Title
81383
    1CHL1    C3    1   2.577   3.247  10.319  0.2281 -0.2252  0.0233
    1CHL1    H3    2   2.487   3.263  10.256 -0.1074 -0.2263  0.4915
    1CHL1    O3    3   2.523   3.257  10.454 -0.6793 -0.0528  0.4223
    1CHL1   H3'    4   2.595   3.268  10.517 -1.3319  1.7604  0.9060
    1CHL1    C4    5   2.644   3.112  10.294 -0.1298  1.1514 -0.4990
    1CHL1   H4A    6   2.723   3.113  10.371 -0.9915 -2.1592  0.5853
    1CHL1   H4B    7   2.590   3.019  10.324  2.3289  0.7823  3.4288
    1CHL1    C5    8   2.712   3.102  10.161 -0.1570 -0.3112  0.2983
    1CHL1    C6    9   2.688   3.006  10.070  0.1754 -0.2755 -0.9572
    1CHL1    H6   10   2.628   2.921  10.103  0.1485  0.3630  0.7469
    1CHL1    C7   11   2.765   2.993   9.943 -0.6697 -0.4198  0.0880
    1CHL1   H7A   12   2.792   2.888   9.919  2.3394  0.1112  0.6603
    1CHL1   H7B   13   2.698   3.025   9.860  0.5967  2.5125  0.0548
    1CHL1    C8   14   2.888   3.087   9.924 -0.1143  0.0895 -0.3076
    1CHL1    H8   15   2.968   3.040   9.985 -1.5753 -1.6504  0.3629
    1CHL1   C14   16   2.939   3.092   9.774  0.0110  1.1570 -0.8304
    1CHL1   H14   17   2.846   3.135   9.730 -2.1111 -2.8276 -0.7240
    1CHL1   C15   18   2.961   2.954   9.693  0.3434 -0.1001 -0.0605
    1CHL1  H15A   19   3.019   2.884   9.757  0.4730  0.3590  0.3323
    1CHL1  H15B   20   2.874   2.898   9.653  0.3718  0.3712 -0.7855
    1CHL1   C16   21   3.054   3.000   9.575  0.0757  0.0265 -0.5472
    1CHL1  H16A   22   3.148   2.942   9.583  0.0125  0.1674  1.9057
    1CHL1  H16B   23   2.990   2.975   9.487 -0.1274  1.6211 -0.8849
    1CHL1   C17   24   3.079   3.161   9.595  0.3107  0.8292  0.9871
    1CHL1   H17   25   2.994   3.203   9.536 -0.5057 -1.0473  0.7528
    1CHL1   C13   26   3.055   3.182   9.745  0.2114 -0.0153  0.3794
    1CHL1   C18   27   3.186   3.129   9.813  0.9471  0.1595 -1.1838
    1CHL1  H18A   28   3.267   3.202   9.793  0.3395  1.4772  0.9060
    1CHL1  H18B   29   3.166   3.119   9.922 -1.5166  0.1253 -1.5841
    1CHL1  H18C   30   3.212   3.026   9.781 -1.1787 -0.6058 -0.6586
    1CHL1   C12   31   3.017   3.323   9.787  0.2939  1.0912 -0.0182
    1CHL1  H12A   32   3.103   3.394   9.791 -0.7963  2.4119  0.9768
    1CHL1  H12B   33   2.941   3.363   9.716  0.4438 -0.7997 -1.3003
    1CHL1   C11   34   2.967   3.323   9.938  0.3145 -0.3989 -0.5928
    1CHL1  H11A   35   3.060   3.306   9.996 -0.8979  0.8252  1.8721
    1CHL1  H11B   36   2.936   3.427   9.964  2.1583 -0.1266  0.7429
    1CHL1    C9   37   2.855   3.221   9.975 -0.1990 -0.1346 -0.6876
    1CHL1    H9   38   2.767   3.239   9.911  0.9615  0.0193 -2.3104
    1CHL1   C10   39   2.807   3.221  10.130 -0.5600  0.1381  0.1900
    1CHL1   C19   40   2.936   3.228  10.217 -0.3735 -0.5232  0.0639
    1CHL1  H19A   41   2.984   3.328  10.216 -1.8300  0.2159 -1.7293
    1CHL1  H19B   42   2.914   3.215  10.325  0.8543  2.5684  0.7917
    1CHL1  H19C   43   3.003   3.144  10.190 -0.9148 -1.1261  0.5578
    1CHL1    C1   44   2.723   3.353  10.144  0.0606  1.0443 -0.0954
    1CHL1   H1A   45   2.787   3.442  10.126  2.4262 -0.5363  0.0600
    1CHL1   H1B   46   2.639   3.354  10.072  0.2759  2.2026 -0.3608
    1CHL1    C2   47   2.662   3.367  10.283 -0.0710  0.4059  0.6339
    1CHL1   H2A   48   2.614   3.466  10.293  0.0946  0.6638 -0.9537
    1CHL1   H2B   49   2.746   3.362  10.356  0.4077  1.1731  0.1434
    1CHL1   C20   50   3.210   3.205   9.529 -0.0698 -0.2363 -0.1404
    1CHL1   H20   51   3.303   3.168   9.578  1.1725  1.3266 -1.1971
    1CHL1   C21   52   3.214   3.360   9.514  0.0113  0.7191 -0.9471
    1CHL1  H21A   53   3.232   3.416   9.609  1.5698  0.7136 -1.2193
    1CHL1  H21B   54   3.112   3.392   9.483 -0.9282 -0.5666  0.6024
    1CHL1  H21C   55   3.287   3.398   9.439  3.6313 -3.0296  0.2611
    1CHL1   C22   56   3.222   3.155   9.380  0.0868  0.5450 -0.0070
    1CHL1  H22A   57   3.174   3.056   9.370  1.5651 -0.3680  1.4604
    1CHL1  H22B   58   3.160   3.221   9.315  0.4604 -1.0171 -2.0574
    1CHL1   C23   59   3.367   3.133   9.342 -0.0628  0.4980 -0.4424
    1CHL1  H23A   60   3.422   3.224   9.375  0.3636  0.3493 -0.7355
    1CHL1  H23B   61   3.392   3.043   9.401 -1.7110  0.1775 -0.1918
    1CHL1   C24   62   3.405   3.124   9.199 -0.8699 -0.5784  0.3256
    1CHL1  H24A   63   3.341   3.043   9.159  0.7187 -0.7561 -2.0886
    1CHL1  H24B   64   3.381   3.224   9.155  0.4960 -0.0700  0.6901
    1CHL1   C25   65   3.549   3.100   9.162 -0.6342  0.4282  1.0831
    1CHL1   H25   66   3.606   3.177   9.219 -0.2066  0.1957  0.9754
    1CHL1   C26   67   3.603   2.960   9.196  0.3828  0.0466  0.4736
    1CHL1  H26A   68   3.713   2.963   9.182  0.1577 -1.9843 -2.5880
    1CHL1  H26B   69   3.592   2.936   9.304 -0.2778 -0.8704  0.2130
    1CHL1  H26C   70   3.552   2.886   9.131  1.0128 -3.1408  3.2903
    1CHL1   C27   71   3.563   3.147   9.017  0.2722 -0.2413 -0.0925
    1CHL1  H27A   72   3.669   3.155   8.982  0.0505  0.5446 -0.6240
    1CHL1  H27B   73   3.503   3.082   8.950  0.1102  1.5111 -1.7595
    1CHL1  H27C   74   3.525   3.252   9.016  1.0023  0.0695 -2.5319
    2CHL1    C3   75   3.153   1.150  10.214  0.1209 -0.8508  0.2443
    2CHL1    H3   76   3.259   1.134  10.182 -0.9054 -0.9169 -3.5964
    2CHL1    O3   77   3.154   1.169  10.354 -0.0291  0.1643 -0.1777
    2CHL1   H3'   78   3.131   1.258  10.381 -1.4841 -0.4808  0.8382
    2CHL1    C4   79   3.100   1.278  10.146  0.3089 -0.7442  0.0300
    2CHL1   H4A   80   2.993   1.291  10.176 -0.3597 -1.9342 -1.6701
    2CHL1   H4B   81   3.148   1.371  10.183 -0.4724 -1.1209  2.1998
    2CHL1    C5   82   3.104   1.261  10.001  0.5368  0.0956  0.6414
    2CHL1    C6   83   3.172   1.344   9.922 -0.3288 -0.3422 -0.5786
    2CHL1    H6   84   3.218   1.433   9.966 -1.9685 -0.0539  0.6551
    2CHL1    C7   85   3.180   1.331   9.773 -0.0639 -0.5421  0.0361
    2CHL1   H7A   86   3.159   1.427   9.721 -0.2871 -1.0384 -0.8078
    2CHL1   H7B   87   3.284   1.301   9.751 -0.2094 -0.1745 -1.2074
    2CHL1    C8   88   3.085   1.235   9.705 -0.3593  0.3136  0.7488
    2CHL1    H8   89   2.985   1.282   9.701 -0.9495 -0.9747 -0.5939
    2CHL1   C14   90   3.142   1.200   9.568 -0.1071  0.4399 -0.4067
    2CHL1   H14   91   3.241   1.157   9.593  0.5255  3.3841  2.8768
    2CHL1   C15   92   3.152   1.314   9.473  0.2205  1.1127 -0.6931
    2CHL1  H15A   93   3.063   1.378   9.491 -1.5057 -1.5810  0.9288
    2CHL1  H15B   94   3.245   1.370   9.494  0.7108 -0.8022  3.0465
    2CHL1   C16   95   3.150   1.245   9.336 -0.2013 -0.5838  0.0940
    2CHL1  H16A   96   3.064   1.282   9.275 -0.1757 -0.5776  0.0616
    2CHL1  H16B   97   3.246   1.265   9.284 -0.4405 -2.7152 -1.3102
    2CHL1   C17   98   3.122   1.090   9.367 -0.0945  0.2092  0.0988
    2CHL1   H17   99   3.219   1.038   9.381 -0.7915 -1.5895 -1.3077
    2CHL1   C13  100   3.051   1.096   9.505 -0.4190 -0.4676 -0.1443
    2CHL1   C18  101   2.909   1.138   9.473 -0.0665 -1.0796 -0.7843
    2CHL1  H18A  102   2.853   1.161   9.566 -0.1028  0.0526 -1.0693
    2CHL1  H18B  103   2.897   1.222   9.402 -0.5115  1.0463  1.6600
    2CHL1  H18C  104   2.847   1.059   9.425 -1.5231  1.1595 -2.8721
    2CHL1   C12  105   3.064   0.974   9.592  0.1166  0.3832 -0.1359
    2CHL1  H12A  106   3.016   0.883   9.550  4.0653 -1.4811 -1.0082
    2CHL1  H12B  107   3.169   0.941   9.603  0.1144  0.4393  0.0525
    2CHL1   C11  108   3.007   0.993   9.737 -0.1655  0.2835  0.1463
    2CHL1  H11A  109   2.900   1.022   9.731  0.0123  0.9803  0.2864
    2CHL1  H11B  110   3.010   0.898   9.795  1.9404  1.2212  1.6449
    2CHL1    C9  111   3.086   1.112   9.799  0.7509 -0.7525  0.3532
    2CHL1    H9  112   3.192   1.076   9.801  0.0408 -2.9513  0.9166
    2CHL1   C10  113   3.040   1.135   9.943 -0.1918  0.4779 -0.1136
    2CHL1   C19  114   2.886   1.150   9.940  0.1247 -0.2567  0.2259
    2CHL1  H19A  115   2.837   1.051   9.926  0.9225 -0.6052 -0.1506
    2CHL1  H19B  116   2.850   1.179  10.041 -1.4879 -1.6367  0.0989
    2CHL1  H19C  117   2.848   1.220   9.863 -1.5062 -1.6425 -0.2986
    2CHL1    C1  118   3.079   1.009  10.027 -0.1245  0.8673 -0.0768
    2CHL1   H1A  119   3.008   0.929   9.999  0.5719  0.4792 -0.7770
    2CHL1   H1B  120   3.180   0.986   9.986 -1.2936  0.3057 -2.8590
    2CHL1    C2  121   3.070   1.026  10.179 -0.1690 -0.4683 -0.2953
    2CHL1   H2A  122   3.096   0.937  10.239 -1.6005  0.2768  1.5505
    2CHL1   H2B  123   2.964   1.049  10.204  0.4493  0.6170  1.5684
    2CHL1   C20  124   3.058   1.011   9.247  0.4882  0.3717 -0.0626
    2CHL1   H20  125   2.960   1.057   9.222  0.1173 -0.9908 -1.3014
    2CHL1   C21  126   3.032   0.869   9.284  0.6292 -0.2957 -0.6455
    2CHL1  H21A  127   2.997   0.803   9.201  1.7066  0.0668 -1.4042
    2CHL1  H21B  128   2.949   0.875   9.358  0.6943  0.7647 -0.6476
    2CHL1  H21C  129   3.124   0.823   9.327 -0.0903  0.4511  1.8836
    2CHL1   C22  130   3.145   1.023   9.125 -0.2781  0.6478  0.3191
    2CHL1  H22A  131   3.204   1.117   9.123  1.2813 -0.2256 -3.7565
    2CHL1  H22B  132   3.214   0.938   9.109 -0.7864  0.4969 -1.2283
    2CHL1   C23  133   3.059   1.019   9.001 -0.9545 -0.5179 -0.0179
    2CHL1  H23A  134   2.999   0.926   9.014  2.6302 -3.5637 -2.8445
    2CHL1  H23B  135   3.004   1.114   8.985 -0.8850 -0.0570  2.2104
    2CHL1   C24  136   3.138   0.987   8.872 -0.4968 -0.2691  0.2856
    2CHL1  H24A  137   3.221   1.061   8.870 -0.9336  0.2225  0.0863
    2CHL1  H24B  138   3.182   0.887   8.889 -0.0786 -0.0446  0.5727
    2CHL1   C25  139   3.064   0.991   8.744 -0.6931 -0.8976  0.0519
    2CHL1   H25  140   3.140   0.958   8.670 -0.1642  0.7199 -0.1633
    2CHL1   C26  141   2.957   0.875   8.736 -0.3712  0.2456  0.3106
    2CHL1  H26A  142   2.867   0.915   8.788 -0.3512  1.3778 -0.4723
    2CHL1  H26B  143   2.936   0.839   8.633  2.8994 -2.3778  0.3959
    2CHL1  H26C  144   3.004   0.792   8.792 -0.2892 -0.9995 -1.5197
    2CHL1   C27  145   3.017   1.127   8.702 -0.3946  0.0809  0.1077
    2CHL1  H27A  146   3.098   1.200   8.721  1.2445 -1.9644  1.4523
    2CHL1  H27B  147   2.998   1.129   8.593  1.7839  0.8257 -0.3137
    2CHL1  H27C  148   2.930   1.163   8.761  1.4777  0.6703  2.6600
    3CHL1    C3  149   3.776   1.297  10.398  0.0139 -0.2566  0.1512
    3CHL1    H3  150   3.872   1.347  10.374 -0.1960  0.6774  1.1805
    3CHL1    O3  151   3.757   1.262  10.531  0.2241  0.4840 -0.0572
    3CHL1   H3'  152   3.813   1.322  10.580  2.4759  0.5945 -2.5143
    3CHL1    C4  153   3.656   1.404  10.366 -0.5030  0.4934 -0.5841
    3CHL1   H4A  154   3.560   1.355  10.393  0.4019 -1.5609 -0.8900
    3CHL1   H4B  155   3.662   1.493  10.432  0.9262  0.9747 -1.3223
    3CHL1    C5  156   3.672   1.438  10.215 -0.0093 -0.5658 -0.1771
    3CHL1    C6  157   3.691   1.568  10.183 -0.3118  0.3245  0.3086
    3CHL1    H6  158   3.703   1.645  10.259 -0.9482  0.9009 -0.1597
    3CHL1    C7  159   3.711   1.607  10.040 -0.5355 -0.0657  0.4360
    3CHL1   H7A  160   3.659   1.704  10.022  1.5766  0.6295 -2.8943
    3CHL1   H7B  161   3.813   1.637  10.005 -0.2419 -0.4706  0.9306
    3CHL1    C8  162   3.652   1.498   9.938 -0.8914  0.1878  0.2227
    3CHL1    H8  163   3.543   1.507   9.956 -0.7685 -0.3188  1.3514
    3CHL1   C14  164   3.689   1.549   9.797  0.3294  0.7058  0.5495
    3CHL1   H14  165   3.800   1.545   9.801  0.3170  1.0991  1.3931
    3CHL1   C15  166   3.647   1.688   9.748  0.4016 -0.2647 -0.4107
    3CHL1  H15A  167   3.545   1.713   9.785  2.0509  1.9342  3.1689
    3CHL1  H15B  168   3.724   1.758   9.787 -1.0587  0.2712  1.7359
    3CHL1   C16  169   3.654   1.678   9.598  0.1466 -0.2632  0.3974
    3CHL1  H16A  170   3.556   1.713   9.560 -0.7046 -0.2176  2.4981
    3CHL1  H16B  171   3.737   1.746   9.570  0.2298 -0.4025  0.3055
    3CHL1   C17  172   3.695   1.531   9.566  0.2670  0.2229 -0.8816
    3CHL1   H17  173   3.806   1.534   9.574  0.1489 -0.4230  3.2713
    3CHL1   C13  174   3.648   1.453   9.689 -0.8875 -0.1863 -0.4741
    3CHL1   C18  175   3.494   1.439   9.682  0.1589  0.7685  1.0580
    3CHL1  H18A  176   3.454   1.525   9.625  0.6428  0.3950  0.1149
    3CHL1  H18B  177   3.474   1.342   9.632 -0.9757  0.9385  1.1637
    3CHL1  H18C  178   3.459   1.422   9.786 -0.6840 -3.6677  0.2524
    3CHL1   C12  179   3.718   1.321   9.716  0.4346 -0.5109  0.2542
    3CHL1  H12A  180   3.691   1.239   9.646  2.1816 -1.1613  0.2844
    3CHL1  H12B  181   3.826   1.339   9.696 -0.2122  3.1687 -0.6261
    3CHL1   C11  182   3.691   1.260   9.863 -0.7952 -0.3403  0.2317
    3CHL1  H11A  183   3.587   1.222   9.854 -0.4889 -0.9291 -1.2766
    3CHL1  H11B  184   3.751   1.168   9.882  0.8770  0.7657  0.4950
    3CHL1    C9  185   3.711   1.364   9.970  0.9756  0.1068  0.2862
    3CHL1    H9  186   3.822   1.373   9.969  1.1209 -1.1294 -2.0429
    3CHL1   C10  187   3.667   1.318  10.112 -0.4617 -0.2686  0.2153
    3CHL1   C19  188   3.519   1.268  10.117  0.6874  0.0244 -0.4625
    3CHL1  H19A  189   3.494   1.185  10.046  2.1498  0.4113 -1.4742
    3CHL1  H19B  190   3.482   1.243  10.218  0.4064  1.8742 -0.0741
    3CHL1  H19C  191   3.448   1.350  10.092 -0.8671 -1.3243 -0.6553
    3CHL1    C1  192   3.767   1.209  10.156  0.4180  0.4437 -0.2168
    3CHL1   H1A  193   3.752   1.119  10.091 -0.3594  0.7998 -0.5310
    3CHL1   H1B  194   3.872   1.242  10.138  0.5485  0.2202  0.1293
    3CHL1    C2  195   3.755   1.179  10.307 -0.0416 -0.2547  0.1004
    3CHL1   H2A  196   3.843   1.112  10.322  0.4641  0.2854 -0.3885
    3CHL1   H2B  197   3.660   1.127  10.332 -0.2234 -0.4010 -0.8543
    3CHL1   C20  198   3.646   1.497   9.422 -0.1744 -0.2579  0.2536
    3CHL1   H20  199   3.536   1.511   9.418 -0.7665 -2.9037  3.4840
    3CHL1   C21  200   3.676   1.351   9.386  0.3586  0.0381 -0.4375
    3CHL1  H21A  201   3.617   1.280   9.447  3.0779 -1.5926  0.4803
    3CHL1  H21B  202   3.778   1.338   9.427  0.2568  0.8955  0.1144
    3CHL1  H21C  203   3.667   1.332   9.277 -0.3038  0.4997 -0.4644
    3CHL1   C22  204   3.704   1.598   9.314  0.0743 -0.2826  0.1578
    3CHL1  H22A  205   3.694   1.703   9.350 -2.9585 -0.3531 -0.1679
    3CHL1  H22B  206   3.813   1.583   9.302 -0.0326 -1.8521  0.9945
    3CHL1   C23  207   3.648   1.575   9.169  0.0680  0.7552  0.1757
    3CHL1  H23A  208   3.709   1.496   9.120 -1.3733  0.0402 -0.5240
    3CHL1  H23B  209   3.543   1.538   9.166 -0.4587  2.1340 -3.5086
    3CHL1   C24  210   3.661   1.696   9.075 -0.1196  0.2249  0.4160
    3CHL1  H24A  211   3.616   1.779   9.132  0.0267  0.9593 -0.5197
    3CHL1  H24B  212   3.769   1.724   9.070 -0.4802  1.4682 -2.1943
    3CHL1   C25  213   3.605   1.678   8.934  0.3579  0.1050  0.4525
    3CHL1   H25  214   3.666   1.595   8.892 -3.5576 -2.1531 -1.3897
    3CHL1   C26  215   3.452   1.637   8.947  0.0316 -0.1092  0.2801
    3CHL1  H26A  216   3.404   1.612   8.850 -2.3098  1.0186  1.0595
    3CHL1  H26B  217   3.434   1.541   8.999  0.9726 -0.0563  0.7230
    3CHL1  H26C  218   3.402   1.727   8.990  1.8022  1.1987 -0.2768
    3CHL1   C27  219   3.618   1.804   8.844 -0.5792 -0.2819 -0.7422
    3CHL1  H27A  220   3.603   1.777   8.737 -1.5305 -0.1738 -0.6446
    3CHL1  H27B  221   3.537   1.876   8.869  0.2429 -0.0228  1.3512
    3CHL1  H27C  222   3.718   1.853   8.847 -0.0760 -1.3313  0.2481
    4CHL1    C3  223   3.036   2.783  10.479 -0.6927  0.3935  0.5157
    4CHL1    H3  224   2.940   2.729  10.480 -0.0166 -0.9073 -1.1149
    4CHL1    O3  225   3.054   2.846  10.602 -0.0521  0.3641  0.2433
    4CHL1   H3'  226   3.138   2.812  10.636  0.6149  1.0227 -0.6880
    4CHL1    C4  227   3.154   2.685  10.452 -0.2174  0.4980  0.4428
    4CHL1   H4A  228   3.256   2.730  10.456  1.0450 -2.1393  0.2777
    4CHL1   H4B  229   3.144   2.608  10.531 -0.4064 -1.0365 -1.0272
    4CHL1    C5  230   3.136   2.608  10.313  0.3587 -0.3793 -0.3834
    4CHL1    C6  231   3.126   2.476  10.314  0.1531 -0.6027  0.3945
    4CHL1    H6  232   3.126   2.413  10.404 -0.4525 -1.8019 -0.4271
    4CHL1    C7  233   3.108   2.400  10.190 -0.2939 -0.3632 -0.5549
    4CHL1   H7A  234   3.164   2.304  10.196  0.2539 -0.1200 -1.4916
    4CHL1   H7B  235   3.002   2.371  10.206 -0.8314  2.1549  0.9562
    4CHL1    C8  236   3.132   2.471  10.062 -0.1723  0.0397 -0.2197
    4CHL1    H8  237   3.239   2.494  10.045 -0.1919  0.0858 -0.2821
    4CHL1   C14  238   3.066   2.395   9.943 -0.2650 -0.2167 -0.3949
    4CHL1   H14  239   2.960   2.386   9.974  0.1635 -1.8417  0.7431
    4CHL1   C15  240   3.110   2.250   9.923  0.4481 -0.3086  1.5062
    4CHL1  H15A  241   3.220   2.243   9.938  0.6303 -0.0638  0.4354
    4CHL1  H15B  242   3.063   2.181   9.996  2.9966 -0.3164  3.2787
    4CHL1   C16  243   3.063   2.224   9.776  0.1168 -0.6581 -0.2315
    4CHL1  H16A  244   3.160   2.206   9.725  0.3658 -0.8755  0.3129
    4CHL1  H16B  245   3.000   2.133   9.778 -1.8469  0.4740  4.5955
    4CHL1   C17  246   3.002   2.360   9.729  0.0456  0.0949  0.7905
    4CHL1   H17  247   2.895   2.356   9.757 -0.0515 -0.3246  0.3637
    4CHL1   C13  248   3.068   2.467   9.810 -0.1845 -0.9848  0.3429
    4CHL1   C18  249   3.211   2.497   9.755  0.0387  0.2333  0.5640
    4CHL1  H18A  250   3.212   2.573   9.674  0.2022 -1.1930 -0.8175
    4CHL1  H18B  251   3.279   2.524   9.839  2.4382 -0.2445 -1.1234
    4CHL1  H18C  252   3.248   2.401   9.716 -2.4501 -0.1939 -0.9779
    4CHL1   C12  253   2.995   2.600   9.826 -0.0132 -0.2050  0.1465
    4CHL1  H12A  254   2.989   2.661   9.733  1.5290  0.6483  0.5684
    4CHL1  H12B  255   2.891   2.583   9.859 -0.4284  2.1853  0.2854
    4CHL1   C11  256   3.070   2.681   9.936 -0.1462  0.1862 -0.2702
    4CHL1  H11A  257   3.170   2.705   9.894 -1.3004 -0.7092 -3.8303
    4CHL1  H11B  258   3.020   2.779   9.946 -1.4450 -0.5155  0.3933
    4CHL1    C9  259   3.063   2.613  10.070  0.4198 -0.2657  0.3868
    4CHL1    H9  260   2.960   2.582  10.097  0.8106 -0.6437  1.4868
    4CHL1   C10  261   3.119   2.697  10.187 -0.6314  0.4360 -0.4084
    4CHL1   C19  262   3.262   2.752  10.148 -0.0754 -0.5215 -0.2183
    4CHL1  H19A  263   3.326   2.671  10.108  1.3633  0.1333  0.6936
    4CHL1  H19B  264   3.258   2.812  10.055 -0.2836  1.9503  1.2922
    4CHL1  H19C  265   3.315   2.800  10.233 -1.6414  0.6206  0.1739
    4CHL1    C1  266   3.013   2.813  10.227 -0.5169 -0.8598  0.0757
    4CHL1   H1A  267   3.019   2.890  10.147 -0.7326  0.0092  0.8784
    4CHL1   H1B  268   2.909   2.775  10.218 -1.4357  1.3559  0.6075
    4CHL1    C2  269   3.044   2.885  10.367  0.4227  0.7836  0.7256
    4CHL1   H2A  270   2.974   2.970  10.384 -0.4891 -0.1098  1.5543
    4CHL1   H2B  271   3.148   2.922  10.355  0.8448 -0.8757 -1.0628
    4CHL1   C20  272   3.004   2.379   9.576  0.2649 -0.1414  0.1050
    4CHL1   H20  273   3.103   2.416   9.544  0.5852  0.1633  1.4089
    4CHL1   C21  274   2.892   2.473   9.527  0.0090  0.1447 -0.2090
    4CHL1  H21A  275   2.791   2.428   9.531 -0.7354  1.5010 -2.5150
    4CHL1  H21B  276   2.912   2.512   9.425 -1.2392 -2.1897 -1.4026
    4CHL1  H21C  277   2.895   2.559   9.598  0.8398 -0.2387  0.2456
    4CHL1   C22  278   2.999   2.247   9.498 -0.0178  0.0248  0.3180
    4CHL1  H22A  279   3.070   2.166   9.529 -2.4591 -1.4282  2.5069
    4CHL1  H22B  280   2.896   2.208   9.507 -0.3868  1.3044  2.1066
    4CHL1   C23  281   3.017   2.283   9.351  0.8446  0.0163 -0.1607
    4CHL1  H23A  282   2.927   2.302   9.288  1.9457  0.3930 -1.6639
    4CHL1  H23B  283   3.086   2.369   9.347  0.0059  0.7153  0.0823
    4CHL1   C24  284   3.076   2.161   9.284 -0.0673 -0.8253  0.9958
    4CHL1  H24A  285   3.181   2.132   9.307  1.2108  0.3656 -2.6129
    4CHL1  H24B  286   3.018   2.070   9.311 -0.9671 -0.8970 -0.9852
    4CHL1   C25  287   3.083   2.164   9.122 -0.1720 -0.2206 -1.2640
    4CHL1   H25  288   2.977   2.180   9.091  0.0986  0.8519 -1.7242
    4CHL1   C26  289   3.150   2.288   9.071  0.0430 -0.0430  0.5512
    4CHL1  H26A  290   3.149   2.286   8.960 -0.2572  0.4523  0.5418
    4CHL1  H26B  291   3.092   2.381   9.091 -1.2444 -0.8756  0.7450
    4CHL1  H26C  292   3.256   2.301   9.102  0.3713 -0.5121 -0.3259
    4CHL1   C27  293   3.141   2.032   9.064 -0.2886 -0.3693 -0.3137
    4CHL1  H27A  294   3.134   2.011   8.955  1.1633 -1.8554 -0.1556
    4CHL1  H27B  295   3.249   2.030   9.088 -0.6303  0.6352  1.4920
    4CHL1  H27C  296   3.096   1.945   9.117 -0.2559  0.7146  1.5892
    5CHL1    C3  297   3.814   0.748  10.351  0.3955  0.2060  0.1871
    5CHL1    H3  298   3.808   0.859  10.350  0.3781  0.2035 -0.7921
    5CHL1    O3  299   3.842   0.701  10.476 -0.1370  0.0504 -0.6334
    5CHL1   H3'  300   3.819   0.608  10.466 -0.4715  0.1150 -0.5015
    5CHL1    C4  301   3.680   0.701  10.306 -0.5524 -0.3339  0.2578
    5CHL1   H4A  302   3.663   0.592  10.319  0.8979 -0.8466 -1.7799
    5CHL1   H4B  303   3.603   0.752  10.369 -1.0164 -1.0446  0.2749
    5CHL1    C5  304   3.645   0.742  10.164 -0.3809  0.0443  0.3778
    5CHL1    C6  305   3.555   0.838  10.134 -0.5546 -0.4825  0.1258
    5CHL1    H6  306   3.487   0.888  10.205  1.8502 -1.0091  3.0152
    5CHL1    C7  307   3.520   0.884   9.994 -0.1876  0.3961 -0.8060
    5CHL1   H7A  308   3.410   0.879   9.978 -0.5101  0.9718  0.9885
    5CHL1   H7B  309   3.552   0.989   9.980 -2.1703  1.1305 -0.1825
    5CHL1    C8  310   3.584   0.797   9.881  0.2942  0.5172  0.1400
    5CHL1    H8  311   3.525   0.705   9.862  1.3153  0.1062 -1.1606
    5CHL1   C14  312   3.584   0.877   9.753 -0.2467  0.0675  0.9927
    5CHL1   H14  313   3.652   0.964   9.768  0.1725  0.2764 -1.7072
    5CHL1   C15  314   3.451   0.935   9.700  0.0012 -0.4768 -0.0767
    5CHL1  H15A  315   3.368   0.861   9.707  0.2103 -0.5675  1.9783
    5CHL1  H15B  316   3.426   1.018   9.769 -1.1007 -1.2027  0.4279
    5CHL1   C16  317   3.496   0.972   9.555 -0.3854  0.8596  0.6997
    5CHL1  H16A  318   3.411   0.934   9.494 -2.5689  2.3122  2.6805
    5CHL1  H16B  319   3.475   1.080   9.539 -2.2718  0.5330  0.7098
    5CHL1   C17  320   3.633   0.909   9.524  0.0225 -0.0629  0.0843
    5CHL1   H17  321   3.721   0.976   9.538  2.1349 -2.1537 -2.2272
    5CHL1   C13  322   3.647   0.806   9.640 -0.4083 -0.4644 -0.2434
    5CHL1   C18  323   3.564   0.672   9.601 -0.7558 -1.2133 -0.4615
    5CHL1  H18A  324   3.456   0.691   9.588 -1.7838 -4.5266  1.9373
    5CHL1  H18B  325   3.619   0.615   9.523  2.0094  1.7488 -0.8822
    5CHL1  H18C  326   3.560   0.604   9.689 -0.6484 -0.7783 -0.1181
    5CHL1   C12  327   3.788   0.765   9.671  0.0376  0.3678  0.7300
    5CHL1  H12A  328   3.833   0.710   9.585 -0.8480  1.2676 -0.3339
    5CHL1  H12B  329   3.843   0.860   9.683  0.7030 -0.0170  0.8094
    5CHL1   C11  330   3.790   0.685   9.799  0.1229 -0.2339  0.0091
    5CHL1  H11A  331   3.749   0.585   9.773  1.0044 -0.5028 -0.3633
    5CHL1  H11B  332   3.890   0.661   9.839 -0.3344 -2.0897  0.1132
    5CHL1    C9  333   3.723   0.759   9.916  0.3778 -0.2133 -0.3848
    5CHL1    H9  334   3.772   0.859   9.926 -1.1972  1.5665 -6.1984
    5CHL1   C10  335   3.737   0.686  10.059 -0.2472 -0.0261  0.4304
    5CHL1   C19  336   3.707   0.533  10.042  0.1518  0.4151 -0.4276
    5CHL1  H19A  337   3.719   0.478  10.138 -0.0827 -2.5455 -1.9918
    5CHL1  H19B  338   3.610   0.505   9.996  0.8853 -1.9239 -0.6724
    5CHL1  H19C  339   3.789   0.498   9.976 -0.3425 -0.8833 -0.3788
    5CHL1    C1  340   3.885   0.721  10.096  0.0594  0.5601 -0.1953
    5CHL1   H1A  341   3.946   0.660  10.026  0.8859 -0.1808  1.1574
    5CHL1   H1B  342   3.895   0.831  10.081 -1.9954  0.7118 -0.8409
    5CHL1    C2  343   3.917   0.683  10.244 -0.4852  0.1446  0.1549
    5CHL1   H2A  344   4.015   0.717  10.286 -0.3696 -0.1087  0.0904
    5CHL1   H2B  345   3.918   0.572  10.242 -2.2101  0.1057 -0.4701
    5CHL1   C20  346   3.656   0.871   9.373 -0.3168 -0.2294 -0.2452
    5CHL1   H20  347   3.583   0.793   9.341  0.8511 -0.9369 -1.2572
    5CHL1   C21  348   3.790   0.804   9.345 -0.1394  0.0036  1.1757
    5CHL1  H21A  349   3.813   0.785   9.238  0.5738 -0.5681  1.4227
    5CHL1  H21B  350   3.786   0.706   9.397  1.1798  0.4811  2.2259
    5CHL1  H21C  351   3.876   0.861   9.384  1.2030 -1.6633  0.7646
    5CHL1   C22  352   3.637   1.001   9.288  0.1734 -0.3615 -0.2413
    5CHL1  H22A  353   3.541   1.047   9.318 -0.2301 -1.6747  0.5716
    5CHL1  H22B  354   3.709   1.076   9.327  0.8298 -0.9979 -0.1942
    5CHL1   C23  355   3.643   1.000   9.135 -0.6725  0.2665  0.1372
    5CHL1  H23A  356   3.738   0.948   9.109 -1.4783 -1.2232  0.0822
    5CHL1  H23B  357   3.561   0.944   9.086 -1.7704  1.3196  0.6997
    5CHL1   C24  358   3.650   1.147   9.077  0.3380  0.3339 -0.1467
    5CHL1  H24A  359   3.571   1.213   9.119  0.1184 -1.2329  2.0501
    5CHL1  H24B  360   3.739   1.198   9.120 -0.1678  1.3108 -0.2206
    5CHL1   C25  361   3.658   1.170   8.917 -0.1864  0.5543  0.0867
    5CHL1   H25  362   3.751   1.127   8.874  0.6395  1.8877  0.4801
    5CHL1   C26  363   3.540   1.100   8.846  0.2628  0.0081 -0.3149
    5CHL1  H26A  364   3.444   1.128   8.894 -0.1138 -1.3911 -0.1933
    5CHL1  H26B  365   3.548   1.132   8.740  0.4045 -0.3246 -0.4057
    5CHL1  H26C  366   3.539   0.989   8.850 -1.7978 -0.0282 -0.4749
    5CHL1   C27  367   3.666   1.320   8.878  0.5856  0.4554  0.2585
    5CHL1  H27A  368   3.756   1.363   8.927  2.0782 -0.5066 -1.5117
    5CHL1  H27B  369   3.678   1.324   8.768 -4.6677  1.9164 -0.5402
    5CHL1  H27C  370   3.573   1.372   8.909  0.9657  0.3878  1.5831
    6CHL1    C3  371   2.312   5.962  10.447 -0.5315  1.0003  0.4699
    6CHL1    H3  372   2.342   5.857  10.425 -1.9286  0.9290 -1.3394
    6CHL1    O3  373   2.309   5.982  10.591  0.3874 -0.0251 -1.2796
    6CHL1   H3'  374   2.221   5.956  10.620  0.4711  0.0224 -0.9791
    6CHL1    C4  375   2.412   6.058  10.381  0.6989  0.9037  0.1056
    6CHL1   H4A  376   2.385   6.164  10.400 -0.2427  1.1114 -2.0142
    6CHL1   H4B  377   2.511   6.030  10.421  0.6097  2.3134  1.3673
    6CHL1    C5  378   2.413   6.043  10.226 -0.2559 -0.4844  0.2772
    6CHL1    C6  379   2.526   6.006  10.156  0.2202  0.0615  0.1637
    6CHL1    H6  380   2.620   5.989  10.210  0.0739  0.7474  0.6397
    6CHL1    C7  381   2.530   5.991  10.008  0.3427 -0.1104  0.0631
    6CHL1   H7A  382   2.616   6.039   9.955  0.7285  3.1870  3.3122
    6CHL1   H7B  383   2.527   5.881   9.997 -2.0661 -0.4233  2.7557
    6CHL1    C8  384   2.405   6.052   9.940 -0.5696 -0.2131 -0.5406
    6CHL1    H8  385   2.416   6.163   9.946 -2.0322 -0.1048  1.0176
    6CHL1   C14  386   2.397   5.995   9.796 -0.5991  0.3792 -0.5533
    6CHL1   H14  387   2.388   5.885   9.806 -0.2444  0.5418  2.1350
    6CHL1   C15  388   2.514   6.016   9.705 -0.8294  0.1488 -0.7476
    6CHL1  H15A  389   2.560   6.117   9.712  2.9286 -1.2710 -2.0092
    6CHL1  H15B  390   2.598   5.950   9.735 -0.7152 -0.6897 -2.7755
    6CHL1   C16  391   2.461   5.981   9.570  0.8220 -0.5408 -0.1222
    6CHL1  H16A  392   2.472   6.066   9.500 -0.2642 -0.8833 -0.7401
    6CHL1  H16B  393   2.509   5.895   9.518  0.5193  0.0087 -1.3370
    6CHL1   C17  394   2.303   5.960   9.589 -0.7147 -0.0971 -0.0257
    6CHL1   H17  395   2.294   5.856   9.628 -1.1249  0.6153  1.8641
    6CHL1   C13  396   2.273   6.039   9.717 -0.6598 -0.0535 -0.4100
    6CHL1   C18  397   2.273   6.190   9.708 -0.7115 -0.1470 -0.6449
    6CHL1  H18A  398   2.363   6.220   9.651  0.8880 -2.8825  0.2726
    6CHL1  H18B  399   2.178   6.229   9.667 -0.7567  2.6089  1.7385
    6CHL1  H18C  400   2.286   6.247   9.803  0.4627  1.5733 -1.7711
    6CHL1   C12  401   2.146   5.991   9.782  0.3510  0.4198  0.1224
    6CHL1  H12A  402   2.063   6.030   9.720  1.3526  0.0666 -1.5092
    6CHL1  H12B  403   2.148   5.880   9.784  1.6916  0.3718 -1.6323
    6CHL1   C11  404   2.149   6.040   9.927  0.8228 -0.1727  0.5038
    6CHL1  H11A  405   2.133   6.149   9.922 -1.6165 -0.5420 -1.2308
    6CHL1  H11B  406   2.070   5.996   9.992 -0.3434  1.0813 -0.0077
    6CHL1    C9  407   2.278   6.008  10.011 -0.3086  0.1450 -0.5279
    6CHL1    H9  408   2.284   5.897  10.020  1.5009  0.2882  0.5709
    6CHL1   C10  409   2.274   6.057  10.162  0.3040  0.5830 -0.0244
    6CHL1   C19  410   2.227   6.209  10.158  0.3919  0.5242 -0.6545
    6CHL1  H19A  411   2.121   6.209  10.125 -0.1065 -1.1896  0.7694
    6CHL1  H19B  412   2.236   6.260  10.257  1.0137  1.8694 -1.3742
    6CHL1  H19C  413   2.286   6.263  10.081  1.2094 -0.5899 -0.8420
    6CHL1    C1  414   2.170   5.969  10.237  0.0915  0.3201 -0.0240
    6CHL1   H1A  415   2.066   5.986  10.202  0.2795 -0.2079 -0.8511
    6CHL1   H1B  416   2.193   5.863  10.213  0.2690  0.5226 -0.7721
    6CHL1    C2  417   2.169   5.986  10.391  0.0312 -0.8561  0.0186
    6CHL1   H2A  418   2.088   5.925  10.436  0.5614 -1.6640 -0.1065
    6CHL1   H2B  419   2.148   6.093  10.415 -0.2485 -0.9420  0.1532
    6CHL1   C20  420   2.211   5.967   9.471 -0.2970 -0.2997 -0.0009
    6CHL1   H20  421   2.109   5.935   9.504  0.0018 -1.1726  0.1136
    6CHL1   C21  422   2.259   5.876   9.360  0.3578  0.2162 -0.7764
    6CHL1  H21A  423   2.179   5.851   9.288 -1.0771 -0.3287  0.9197
    6CHL1  H21B  424   2.296   5.779   9.401 -1.6853 -0.6117 -0.7812
    6CHL1  H21C  425   2.338   5.930   9.304  1.5516 -0.3877  0.2688
    6CHL1   C22  426   2.187   6.108   9.405 -0.3834 -0.2965 -0.1403
    6CHL1  H22A  427   2.207   6.199   9.464  0.3241 -0.1490 -0.6045
    6CHL1  H22B  428   2.264   6.110   9.325  0.2155 -0.6524  0.4213
    6CHL1   C23  429   2.057   6.118   9.321 -0.5601  0.1235 -0.1873
    6CHL1  H23A  430   2.026   6.031   9.258 -3.0821  0.5451  0.3528
    6CHL1  H23B  431   1.964   6.119   9.381 -0.0233 -1.8486  0.7672
    6CHL1   C24  432   2.049   6.244   9.239 -0.7506 -0.5994 -0.0740
    6CHL1  H24A  433   2.085   6.325   9.305  0.7336 -0.3007 -1.2076
    6CHL1  H24B  434   2.108   6.239   9.145 -2.4004  1.9607 -1.3737
    6CHL1   C25  435   1.908   6.280   9.191 -0.1413 -0.0340 -0.7700
    6CHL1   H25  436   1.849   6.195   9.150  1.1472 -1.7875  0.8707
    6CHL1   C26  437   1.819   6.327   9.306  0.9560 -0.0430 -0.6984
    6CHL1  H26A  438   1.779   6.248   9.374  0.0700  0.4429 -0.6454
    6CHL1  H26B  439   1.880   6.398   9.367 -0.4268  1.0979 -0.5963
    6CHL1  H26C  440   1.725   6.370   9.267 -1.6415 -1.8521  2.9230
    6CHL1   C27  441   1.914   6.376   9.073  0.5268  0.3986  0.8161
    6CHL1  H27A  442   1.813   6.422   9.062  0.8622  1.0539  0.4090
    6CHL1  H27B  443   1.978   6.465   9.090  0.0807  0.6673  1.1162
    6CHL1  H27C  444   1.953   6.316   8.988  1.0216  1.8006  0.0125
    7CHL1    C3  445   4.179   0.873  10.485  0.3144 -0.6067  0.8235
    7CHL1    H3  446   4.086   0.818  10.457  0.1726  0.0309  0.0030
    7CHL1    O3  447   4.200   0.860  10.625 -0.1641 -0.0691  0.1089
    7CHL1   H3'  448   4.218   0.951  10.650  1.3279  0.2250 -1.8133
    7CHL1    C4  449   4.295   0.819  10.407 -0.4565 -0.3373  0.3845
    7CHL1   H4A  450   4.391   0.861  10.442 -0.3803  1.2187 -1.5565
    7CHL1   H4B  451   4.294   0.714  10.444 -1.7829  0.0184  1.4279
    7CHL1    C5  452   4.279   0.832  10.259  0.6862  0.4183  0.1700
    7CHL1    C6  453   4.289   0.724  10.174 -0.5886  0.3277  0.3901
    7CHL1    H6  454   4.299   0.623  10.216 -2.1399  0.7342  1.8826
    7CHL1    C7  455   4.263   0.741  10.028  0.0652 -0.1442 -0.0308
    7CHL1   H7A  456   4.347   0.699   9.969  1.2321  0.3337  1.2234
    7CHL1   H7B  457   4.177   0.680   9.992 -2.3408  2.9615  0.0625
    7CHL1    C8  458   4.250   0.892   9.977 -0.0791  0.7261 -0.0679
    7CHL1    H8  459   4.352   0.930   9.958  0.1359 -0.0403 -0.4978
    7CHL1   C14  460   4.187   0.904   9.835 -0.1496  0.5811  0.1994
    7CHL1   H14  461   4.079   0.878   9.845 -0.3874  2.0381  2.0465
    7CHL1   C15  462   4.246   0.813   9.722  0.1495 -0.0681  0.3308
    7CHL1  H15A  463   4.357   0.821   9.723  0.0862  1.0025  0.1637
    7CHL1  H15B  464   4.214   0.707   9.735 -1.4402  0.2778 -0.5282
    7CHL1   C16  465   4.204   0.880   9.596  0.3433  0.3573 -0.2202
    7CHL1  H16A  466   4.283   0.902   9.522  0.6771 -1.6211 -0.4983
    7CHL1  H16B  467   4.129   0.815   9.547  0.5335 -1.8406  2.1915
    7CHL1   C17  468   4.145   1.018   9.635  0.1632  0.8313 -0.0308
    7CHL1   H17  469   4.036   0.999   9.641  0.2242  0.3990 -0.2495
    7CHL1   C13  470   4.184   1.041   9.781 -0.3023 -0.4295 -0.1511
    7CHL1   C18  471   4.330   1.108   9.766  0.2239  0.0765  0.2001
    7CHL1  H18A  472   4.311   1.208   9.721 -0.4235 -0.1530 -0.0558
    7CHL1  H18B  473   4.383   1.121   9.862  1.3816  2.2695 -0.6610
    7CHL1  H18C  474   4.388   1.049   9.692  0.3373  0.1576  0.2248
    7CHL1   C12  475   4.111   1.132   9.877 -0.2654 -0.6126  0.1487
    7CHL1  H12A  476   4.120   1.237   9.840  2.8138 -0.7212  0.3291
    7CHL1  H12B  477   4.006   1.098   9.878  0.1056 -1.8438  1.3922
    7CHL1   C11  478   4.161   1.130  10.019  0.3882  0.1611  0.5945
    7CHL1  H11A  479   4.258   1.185  10.024 -0.2053  1.1628  3.2818
    7CHL1  H11B  480   4.092   1.188  10.084  1.6036  1.9007  0.4238
    7CHL1    C9  481   4.181   0.980  10.069 -0.6486 -0.3845 -0.3268
    7CHL1    H9  482   4.079   0.937  10.079 -0.1890 -1.4245  0.0206
    7CHL1   C10  483   4.234   0.977  10.211 -0.3263 -0.6732 -0.6105
    7CHL1   C19  484   4.363   1.057  10.222  0.3906  0.1503  0.1125
    7CHL1  H19A  485   4.352   1.166  10.208  1.6068  1.0505  4.6705
    7CHL1  H19B  486   4.413   1.052  10.321  0.0778 -0.6861  0.2390
    7CHL1  H19C  487   4.438   1.022  10.148  0.8442 -0.1070  0.6834
    7CHL1    C1  488   4.130   1.042  10.308  0.4271  0.4575  0.8433
    7CHL1   H1A  489   4.126   1.152  10.296  2.0927  0.3318 -1.5763
    7CHL1   H1B  490   4.029   1.008  10.279  1.4944 -1.3740 -1.0046
    7CHL1    C2  491   4.163   1.019  10.456  1.1183 -0.1219  0.6445
    7CHL1   H2A  492   4.081   1.054  10.523 -0.0446 -1.1347 -0.1906
    7CHL1   H2B  493   4.248   1.082  10.487 -0.3965  1.1628  2.3804
    7CHL1   C20  494   4.163   1.132   9.528 -0.1008  0.4440  0.1517
    7CHL1   H20  495   4.260   1.187   9.529 -0.1497  0.5370 -0.1559
    7CHL1   C21  496   4.046   1.234   9.555 -0.3007  0.3378 -0.1211
    7CHL1  H21A  497   3.944   1.207   9.522  0.2203 -3.5127  0.9557
    7CHL1  H21B  498   4.068   1.331   9.506 -1.4249  0.5357 -0.2596
    7CHL1  H21C  499   4.036   1.275   9.658 -0.7827  1.7939 -0.7273
    7CHL1   C22  500   4.138   1.076   9.388  0.0841 -0.9111 -0.4788
    7CHL1  H22A  501   4.220   1.005   9.365 -0.3137 -1.6560  0.3659
    7CHL1  H22B  502   4.043   1.019   9.392  1.0183 -2.4970 -0.2957
    7CHL1   C23  503   4.142   1.181   9.281 -0.4014 -0.2921 -0.2734
    7CHL1  H23A  504   4.069   1.265   9.288  0.1966  0.0904  2.8814
    7CHL1  H23B  505   4.244   1.221   9.303 -0.3365  0.3560 -1.6297
    7CHL1   C24  506   4.143   1.130   9.135  0.3693 -0.2931  0.0116
    7CHL1  H24A  507   4.243   1.086   9.112  1.4179  0.7716  2.2770
    7CHL1  H24B  508   4.066   1.050   9.132 -0.6950  0.7099 -2.9119
    7CHL1   C25  509   4.094   1.233   9.030  0.2104  0.1149 -0.8171
    7CHL1   H25  510   3.993   1.272   9.056  1.1992  1.6510  1.0103
    7CHL1   C26  511   4.185   1.356   9.018  0.5310 -0.3511 -0.3849
    7CHL1  H26A  512   4.289   1.324   8.998  0.3552 -0.8220 -0.5755
    7CHL1  H26B  513   4.152   1.418   8.932 -0.0935  1.4805  1.1124
    7CHL1  H26C  514   4.180   1.425   9.105 -0.5466 -1.1630  0.2319
    7CHL1   C27  515   4.082   1.174   8.886  0.3007  0.2380  0.1750
    7CHL1  H27A  516   4.177   1.126   8.853 -0.9209 -0.5092 -2.5886
    7CHL1  H27B  517   4.004   1.095   8.895  1.2609 -0.8734 -0.8566
    7CHL1  H27C  518   4.055   1.255   8.815 -0.4860  0.4712  0.7233
    8CHL1    C3  519   5.663   1.863  10.412  0.7765  0.1249  0.1901
    8CHL1    H3  520   5.646   1.970  10.387 -2.6842 -0.5190 -0.6226
    8CHL1    O3  521   5.683   1.844  10.553 -0.4535  0.2980  0.6155
    8CHL1   H3'  522   5.684   1.748  10.559  0.8544  0.2966  0.5088
    8CHL1    C4  523   5.527   1.800  10.365  0.0549 -0.6402  0.4316
    8CHL1   H4A  524   5.513   1.698  10.408  0.1223 -1.8092 -2.1630
    8CHL1   H4B  525   5.455   1.865  10.420  1.9120  0.9980  1.0085
    8CHL1    C5  526   5.504   1.799  10.211 -0.0364  1.0726  0.0086
    8CHL1    C6  527   5.387   1.849  10.163 -0.5151  0.1121  0.6155
    8CHL1    H6  528   5.307   1.883  10.230 -0.1893  0.3120  0.9071
    8CHL1    C7  529   5.363   1.860  10.012 -0.7084 -0.1814  0.1759
    8CHL1   H7A  530   5.256   1.842   9.987 -1.3112  3.1980 -0.1310
    8CHL1   H7B  531   5.399   1.960   9.982 -2.2610  0.5865  0.7680
    8CHL1    C8  532   5.455   1.776   9.921 -0.3968 -0.6987 -0.0649
    8CHL1    H8  533   5.436   1.667   9.929  1.3997 -1.0010  0.7015
    8CHL1   C14  534   5.446   1.826   9.776  0.0164 -0.1685 -0.0372
    8CHL1   H14  535   5.473   1.934   9.776  0.8391 -0.3449 -1.7357
    8CHL1   C15  536   5.304   1.823   9.719 -0.3893  0.0870  0.4494
    8CHL1  H15A  537   5.243   1.735   9.750  1.2777 -0.4126  2.6169
    8CHL1  H15B  538   5.244   1.914   9.739 -0.5406  0.3304 -1.0030
    8CHL1   C16  539   5.322   1.809   9.566  0.0140  1.0344  0.7152
    8CHL1  H16A  540   5.268   1.724   9.519  1.7043 -1.3141  2.7747
    8CHL1  H16B  541   5.273   1.898   9.522 -0.9245  1.1117  1.8740
    8CHL1   C17  542   5.475   1.810   9.542  0.3529 -0.7033  0.3217
    8CHL1   H17  543   5.506   1.917   9.533 -1.0834 -0.3498 -0.7326
    8CHL1   C13  544   5.533   1.752   9.674  0.0821 -0.2949 -0.4937
    8CHL1   C18  545   5.498   1.603   9.670 -0.0160  0.3380  0.1387
    8CHL1  H18A  546   5.388   1.587   9.670  0.0333  0.0006  0.1066
    8CHL1  H18B  547   5.547   1.551   9.585 -2.4214  0.3849 -1.3442
    8CHL1  H18C  548   5.542   1.555   9.760  0.6486  2.0106  0.7547
    8CHL1   C12  549   5.681   1.781   9.717  0.4581  0.4407 -0.0656
    8CHL1  H12A  550   5.758   1.726   9.659  0.0283 -0.6164  0.3230
    8CHL1  H12B  551   5.688   1.891   9.705  3.5764  0.3326  0.1113
    8CHL1   C11  552   5.696   1.731   9.869 -0.3805 -0.1391 -0.6764
    8CHL1  H11A  553   5.695   1.620   9.875  1.9411 -0.1246  1.7501
    8CHL1  H11B  554   5.801   1.754   9.898 -1.0665  1.4399  0.7467
    8CHL1    C9  555   5.599   1.796   9.973 -0.6540  0.1417 -0.0044
    8CHL1    H9  556   5.622   1.905   9.968 -1.3278  0.2535 -1.3001
    8CHL1   C10  557   5.627   1.759  10.121  0.1841 -0.0516 -0.2336
    8CHL1   C19  558   5.651   1.606  10.139 -0.0146 -0.0246  0.0738
    8CHL1  H19A  559   5.580   1.556  10.070 -0.0988 -0.5787  0.5479
    8CHL1  H19B  560   5.750   1.573  10.102 -0.6408 -0.7315 -1.0214
    8CHL1  H19C  561   5.635   1.572  10.244 -1.1684  0.4728  0.0840
    8CHL1    C1  562   5.758   1.829  10.183  0.1383 -0.3208  0.4311
    8CHL1   H1A  563   5.837   1.784  10.120 -0.1711 -1.3118  0.7308
    8CHL1   H1B  564   5.766   1.937  10.159 -0.5842 -0.3383  0.1088
    8CHL1    C2  565   5.778   1.803  10.331  0.2032  0.3082  0.4036
    8CHL1   H2A  566   5.869   1.855  10.368  2.3682 -2.4404 -0.7247
    8CHL1   H2B  567   5.781   1.693  10.351 -2.6688 -0.0132 -0.4486
    8CHL1   C20  568   5.514   1.747   9.408  0.0281  0.6365 -0.5333
    8CHL1   H20  569   5.477   1.642   9.408  0.9839  0.2475  1.1412
    8CHL1   C21  570   5.664   1.732   9.403 -0.2186 -0.2508  0.3449
    8CHL1  H21A  571   5.710   1.828   9.435 -0.2219 -0.2634  0.3873
    8CHL1  H21B  572   5.699   1.708   9.301 -2.4833 -1.1931 -0.2593
    8CHL1  H21C  573   5.695   1.652   9.474 -1.5628 -1.7075 -0.6443
    8CHL1   C22  574   5.470   1.834   9.289  0.6891  0.3306 -0.1611
    8CHL1  H22A  575   5.368   1.873   9.309  1.4695  2.6264 -0.3629
    8CHL1  H22B  576   5.541   1.920   9.289  0.8178  0.2310 -0.7093
    8CHL1   C23  577   5.474   1.762   9.157 -0.8755 -0.3884  0.9532
    8CHL1  H23A  578   5.577   1.743   9.120 -1.5705  0.0590 -1.4290
    8CHL1  H23B  579   5.430   1.660   9.161  0.6393 -1.3632 -2.8078
    8CHL1   C24  580   5.410   1.837   9.047  0.4506  0.3321  0.4865
    8CHL1  H24A  581   5.301   1.855   9.058 -0.1526 -0.9867 -2.3546
    8CHL1  H24B  582   5.464   1.934   9.049 -0.1131  0.7590 -1.9895
    8CHL1   C25  583   5.415   1.783   8.896  0.3247 -0.6529 -0.6058
    8CHL1   H25  584   5.523   1.779   8.870  1.3473  3.1591  2.1409
    8CHL1   C26  585   5.357   1.646   8.885  0.3903  0.1799 -0.3917
    8CHL1  H26A  586   5.364   1.599   8.785 -1.9078  0.3426 -0.6905
    8CHL1  H26B  587   5.398   1.572   8.956 -4.4532 -0.7577  1.8744
    8CHL1  H26C  588   5.252   1.658   8.921  1.4075  0.8349  2.6768
    8CHL1   C27  589   5.347   1.880   8.798  0.2550  0.5466  0.5606
    8CHL1  H27A  590   5.389   1.983   8.804  0.8673  0.3220  0.1916
    8CHL1  H27B  591   5.358   1.836   8.696  0.2124 -0.3869  0.9561
    8CHL1  H27C  592   5.240   1.882   8.826  0.5411  0.6406  1.6756
    9CHL1    C3  593   2.551   5.482  10.214 -0.4436 -0.3336  0.7746
    9CHL1    H3  594   2.472   5.405  10.202 -2.2381  1.4343  0.8378
    9CHL1    O3  595   2.562   5.500  10.350 -0.3585 -0.2202  0.0102
    9CHL1   H3'  596   2.621   5.576  10.357  0.5803 -0.7208 -1.8522
    9CHL1    C4  597   2.686   5.444  10.150 -0.0477 -0.0608 -0.4344
    9CHL1   H4A  598   2.759   5.522  10.182 -0.6366  0.3657 -0.1106
    9CHL1   H4B  599   2.711   5.347  10.197 -1.8210  0.2027  1.1822
    9CHL1    C5  600   2.682   5.429   9.998 -0.1718 -0.2754  0.6422
    9CHL1    C6  601   2.714   5.314   9.939  0.1602 -0.2235 -0.3239
    9CHL1    H6  602   2.750   5.233  10.004  1.1749  0.3005 -0.2131
    9CHL1    C7  603   2.700   5.289   9.794 -0.5188 -0.4405 -0.0980
    9CHL1   H7A  604   2.793   5.241   9.756 -0.5209  0.3033 -1.0655
    9CHL1   H7B  605   2.613   5.223   9.775  0.0107 -0.6814 -1.8354
    9CHL1    C8  606   2.681   5.418   9.705 -0.2776 -0.5620 -0.0579
    9CHL1    H8  607   2.778   5.467   9.686  0.3851 -1.7581  0.1788
    9CHL1   C14  608   2.627   5.376   9.565  0.2148  0.1978  0.5567
    9CHL1   H14  609   2.533   5.321   9.587  0.5112 -0.8173 -0.6425
    9CHL1   C15  610   2.720   5.284   9.484  0.9621  0.1020 -0.8051
    9CHL1  H15A  611   2.821   5.329   9.498  2.2402 -2.4558 -1.0894
    9CHL1  H15B  612   2.731   5.181   9.525  0.3536  0.6219  0.7212
    9CHL1   C16  613   2.671   5.292   9.346 -0.3289  0.3900  0.2771
    9CHL1  H16A  614   2.754   5.302   9.272  1.1102 -2.8426  1.2864
    9CHL1  H16B  615   2.618   5.197   9.326  2.0079 -1.2072  1.2284
    9CHL1   C17  616   2.563   5.410   9.342  0.1551 -0.1623 -0.4228
    9CHL1   H17  617   2.461   5.372   9.361  0.3851  0.2861  1.9947
    9CHL1   C13  618   2.596   5.497   9.469 -0.3711  0.0434 -0.5429
    9CHL1   C18  619   2.718   5.590   9.446 -0.2215  0.1214  0.0162
    9CHL1  H18A  620   2.812   5.536   9.421  0.6526  2.0555 -1.0781
    9CHL1  H18B  621   2.701   5.658   9.360 -0.2435 -0.9331 -0.8353
    9CHL1  H18C  622   2.728   5.658   9.533  0.7759  0.8430 -0.6334
    9CHL1   C12  623   2.483   5.572   9.547 -0.0733  0.0503 -0.4370
    9CHL1  H12A  624   2.432   5.652   9.489 -2.7699 -1.7792 -0.7790
    9CHL1  H12B  625   2.401   5.497   9.551 -0.2701  0.2013 -1.3869
    9CHL1   C11  626   2.518   5.613   9.693  0.1906 -0.1489 -0.2700
    9CHL1  H11A  627   2.572   5.710   9.690 -0.0291  0.1280  2.2176
    9CHL1  H11B  628   2.420   5.643   9.738  0.8660  0.7584  0.6390
    9CHL1    C9  629   2.579   5.502   9.774 -0.0429 -0.3682  0.0390
    9CHL1    H9  630   2.504   5.422   9.789  0.8374 -1.1643  0.2963
    9CHL1   C10  631   2.614   5.550   9.920  0.3107  0.3337  0.1928
    9CHL1   C19  632   2.711   5.664   9.908 -0.3236 -0.5276 -0.6062
    9CHL1  H19A  633   2.666   5.754   9.861  0.7100  0.3657  0.0350
    9CHL1  H19B  634   2.745   5.698  10.008 -1.1338  1.5576 -0.9878
    9CHL1  H19C  635   2.804   5.637   9.853 -0.4318 -0.3597 -0.8732
    9CHL1    C1  636   2.479   5.593  10.000  0.5975  0.5878 -0.5523
    9CHL1   H1A  637   2.435   5.681   9.947  3.0374  2.6824  0.6812
    9CHL1   H1B  638   2.412   5.505   9.990 -0.3299  0.9134  1.9920
    9CHL1    C2  639   2.491   5.610  10.151  0.5086  0.1067  0.0053
    9CHL1   H2A  640   2.393   5.631  10.197  0.3162 -1.0595  0.1527
    9CHL1   H2B  641   2.558   5.696  10.172 -0.9773  0.6758  2.8960
    9CHL1   C20  642   2.566   5.474   9.201 -0.0211 -0.1572  0.2109
    9CHL1   H20  643   2.666   5.518   9.184 -0.5075  0.5695 -0.8678
    9CHL1   C21  644   2.459   5.590   9.195  0.0457  0.5476  0.8537
    9CHL1  H21A  645   2.480   5.670   9.269 -0.1144  1.4840 -0.0894
    9CHL1  H21B  646   2.362   5.551   9.233 -0.3134  2.1887  1.7174
    9CHL1  H21C  647   2.439   5.634   9.094 -1.7960 -2.4534 -0.2344
    9CHL1   C22  648   2.536   5.363   9.092 -0.4866  0.9029  0.0892
    9CHL1  H22A  649   2.606   5.279   9.108  1.3738  2.4257  0.3180
    9CHL1  H22B  650   2.430   5.334   9.106 -0.4320 -0.5345 -2.0670
    9CHL1   C23  651   2.565   5.393   8.941  0.2223  0.3158  0.3817
    9CHL1  H23A  652   2.512   5.317   8.879 -1.9594  1.0584  1.2375
    9CHL1  H23B  653   2.526   5.491   8.908  0.1942  0.2271  0.1488
    9CHL1   C24  654   2.717   5.389   8.913  0.5927  0.4984 -0.1441
    9CHL1  H24A  655   2.768   5.476   8.959  1.2017 -1.4938  3.3299
    9CHL1  H24B  656   2.764   5.299   8.959  0.0668 -0.5571 -1.6063
    9CHL1   C25  657   2.743   5.396   8.764  0.1025  0.2507 -0.1362
    9CHL1   H25  658   2.703   5.297   8.732 -1.9599  0.8984  0.2449
    9CHL1   C26  659   2.687   5.511   8.679  1.0844 -0.6094  0.4419
    9CHL1  H26A  660   2.668   5.594   8.750  0.1787 -0.5668  0.1541
    9CHL1  H26B  661   2.756   5.534   8.596 -0.7210 -0.0176 -0.9476
    9CHL1  H26C  662   2.589   5.472   8.645  1.1444 -0.2125 -0.1856
    9CHL1   C27  663   2.891   5.385   8.731  0.6714  0.3158  0.1114
    9CHL1  H27A  664   2.956   5.466   8.769 -0.5105  0.6192  1.5933
    9CHL1  H27B  665   2.922   5.291   8.781 -0.8703 -0.3693 -0.1568
    9CHL1  H27C  666   2.900   5.367   8.621  1.2903 -2.1314  0.5021
   10CHL1    C3  667   1.491   2.900  10.147 -0.1835 -0.6643 -0.7291
   10CHL1    H3  668   1.401   2.899  10.083 -0.9379 -1.0807  0.3153
   10CHL1    O3  669   1.469   2.839  10.276  0.9294  0.0260  0.5964
   10CHL1   H3'  670   1.412   2.900  10.323 -2.6643 -3.7819  1.7208
   10CHL1    C4  671   1.589   2.814  10.062 -0.2819  0.4894  0.8115
   10CHL1   H4A  672   1.679   2.781  10.119  1.2589  1.0208 -1.2013
   10CHL1   H4B  673   1.528   2.725  10.039 -0.3880  0.0422  2.6228
   10CHL1    C5  674   1.632   2.875   9.931  0.9511 -0.1028  0.1565
   10CHL1    C6  675   1.621   2.831   9.800  0.1110  0.4358  0.3803
   10CHL1    H6  676   1.584   2.729   9.780  0.7051 -0.0553  1.6743
   10CHL1    C7  677   1.653   2.911   9.679 -0.5870  0.2463 -0.0315
   10CHL1   H7A  678   1.701   2.838   9.610 -0.8839 -1.2198  1.2582
   10CHL1   H7B  679   1.559   2.952   9.637 -1.2475  0.1002  1.2668
   10CHL1    C8  680   1.760   3.017   9.702  0.1322  0.1894 -0.2513
   10CHL1    H8  681   1.849   2.962   9.738  0.3765  0.8481  0.1689
   10CHL1   C14  682   1.782   3.107   9.582 -0.2760  0.1544 -0.2021
   10CHL1   H14  683   1.687   3.161   9.560 -1.1621 -0.7258  1.2695
   10CHL1   C15  684   1.820   3.032   9.452  0.3807 -0.9182  0.1588
   10CHL1  H15A  685   1.889   2.947   9.471  0.1184 -1.5396 -1.5690
   10CHL1  H15B  686   1.736   2.983   9.400 -0.9793  0.6810  0.7542
   10CHL1   C16  687   1.882   3.142   9.373 -1.4531 -0.4329 -0.1780
   10CHL1  H16A  688   1.989   3.120   9.353 -0.9152 -2.5640  4.0223
   10CHL1  H16B  689   1.825   3.159   9.279 -0.7562 -0.7165 -0.6569
   10CHL1   C17  690   1.884   3.278   9.464 -0.0262  0.0001  0.0997
   10CHL1   H17  691   1.792   3.331   9.432  0.2188 -0.5688 -1.6413
   10CHL1   C13  692   1.876   3.221   9.602 -0.7955 -0.4980 -0.0004
   10CHL1   C18  693   2.014   3.171   9.643 -0.0801 -0.2763 -0.0439
   10CHL1  H18A  694   2.009   3.099   9.728 -0.8072 -0.5526 -0.3106
   10CHL1  H18B  695   2.070   3.140   9.552  0.0608  2.6436 -1.0386
   10CHL1  H18C  696   2.080   3.252   9.681 -0.6825 -0.3044  1.1068
   10CHL1   C12  697   1.821   3.310   9.707 -0.2719  0.3562  0.7068
   10CHL1  H12A  698   1.882   3.401   9.727 -0.4540  0.5903  0.2245
   10CHL1  H12B  699   1.725   3.345   9.663  0.6372  0.9308 -0.9200
   10CHL1   C11  700   1.795   3.230   9.839 -0.5848  0.6234 -0.1547
   10CHL1  H11A  701   1.895   3.210   9.883  0.0832  1.1275 -1.4038
   10CHL1  H11B  702   1.749   3.305   9.906 -2.4937  1.4002 -2.2221
   10CHL1    C9  703   1.705   3.101   9.821  0.4837 -0.5931 -0.0510
   10CHL1    H9  704   1.607   3.134   9.780  0.8283  1.0853  0.3678
   10CHL1   C10  705   1.685   3.017   9.952  0.4788 -0.4447 -0.1235
   10CHL1   C19  706   1.823   3.000  10.028  0.0385  0.8085  0.2795
   10CHL1  H19A  707   1.870   3.098  10.050  2.2247 -0.2669  0.6810
   10CHL1  H19B  708   1.807   2.957  10.129  1.9350 -0.9620 -0.0965
   10CHL1  H19C  709   1.887   2.943   9.957 -2.3180  0.8678 -2.0402
   10CHL1    C1  710   1.584   3.097  10.046 -0.6270 -0.2377  0.0854
   10CHL1   H1A  711   1.637   3.190  10.076 -0.3628 -0.2614 -0.2988
   10CHL1   H1B  712   1.492   3.115   9.987 -0.5325 -0.0326 -0.0011
   10CHL1    C2  713   1.556   3.033  10.181 -0.0020 -0.4960  0.0724
   10CHL1   H2A  714   1.483   3.096  10.236 -0.8949 -0.9937 -0.5169
   10CHL1   H2B  715   1.655   3.024  10.231  1.4054  0.2057 -2.3920
   10CHL1   C20  716   2.003   3.379   9.431  0.5137  0.0886  1.2706
   10CHL1   H20  717   2.097   3.323   9.451  1.7534  1.1573 -1.1029
   10CHL1   C21  718   1.994   3.504   9.509  0.0624 -0.1791  0.5260
   10CHL1  H21A  719   2.052   3.586   9.463  1.4923 -2.0546 -1.1967
   10CHL1  H21B  720   2.026   3.483   9.613  0.6190  0.7674  0.5520
   10CHL1  H21C  721   1.888   3.536   9.507 -0.3526 -1.3998  1.4273
   10CHL1   C22  722   2.004   3.417   9.269 -0.7348 -0.3225  0.3765
   10CHL1  H22A  723   1.993   3.322   9.212  0.8623 -1.3092  1.6439
   10CHL1  H22B  724   1.928   3.495   9.245  0.3615  0.5260 -0.4290
   10CHL1   C23  725   2.136   3.473   9.206 -0.0667 -0.1262  0.5972
   10CHL1  H23A  726   2.170   3.558   9.269 -0.0837  0.0205  0.4067
   10CHL1  H23B  727   2.214   3.395   9.194 -1.2232 -1.1646 -0.4217
   10CHL1   C24  728   2.107   3.524   9.061 -0.0391  0.3813  0.0191
   10CHL1  H24A  729   2.094   3.438   8.992  0.4553  0.3034  0.0170
   10CHL1  H24B  730   2.014   3.584   9.073 -0.8659 -1.2375  2.2490
   10CHL1   C25  731   2.218   3.614   9.001 -0.2486  0.7156  0.8030
   10CHL1   H25  732   2.237   3.677   9.090  0.2231  0.0179  1.2083
   10CHL1   C26  733   2.344   3.536   8.979 -0.0087 -0.2736  0.2654
   10CHL1  H26A  734   2.327   3.467   8.893  0.6171  0.2814 -0.3173
   10CHL1  H26B  735   2.433   3.598   8.958  0.5138 -1.1482 -0.1714
   10CHL1  H26C  736   2.361   3.476   9.070  1.4436  0.6787  0.6451
   10CHL1   C27  737   2.170   3.683   8.874  0.6459  0.3474 -0.5042
   10CHL1  H27A  738   2.250   3.752   8.840  2.1884 -1.9910 -1.8963
   10CHL1  H27B  739   2.147   3.611   8.793 -0.7622  3.0384 -2.7093
   10CHL1  H27C  740   2.076   3.737   8.901  0.9506  1.6345 -1.8967
   11CHL1    C3  741   4.295   6.527  10.248  0.0596 -0.5212 -0.3231
   11CHL1    H3  742   4.202   6.582  10.224  0.0042 -0.4492  0.0520
   11CHL1    O3  743   4.274   6.456  10.372 -0.6409 -0.3363  0.1894
   11CHL1   H3'  744   4.363   6.422  10.384 -0.5125 -0.5242 -1.1210
   11CHL1    C4  745   4.324   6.429  10.139  0.1716  0.0660 -0.5753
   11CHL1   H4A  746   4.417   6.377  10.167 -0.1926  0.0266  0.6127
   11CHL1   H4B  747   4.243   6.353  10.137  0.6763 -0.5372  0.8779
   11CHL1    C5  748   4.356   6.490  10.007  0.5287  0.0641  0.1921
   11CHL1    C6  749   4.282   6.462   9.901  0.1924 -0.0282  0.6823
   11CHL1    H6  750   4.204   6.386   9.915 -0.7713  0.8862  0.3806
   11CHL1    C7  751   4.286   6.536   9.765 -0.2094 -0.3819  0.0551
   11CHL1   H7A  752   4.268   6.458   9.689  1.0448 -0.7758  0.1451
   11CHL1   H7B  753   4.203   6.608   9.750  0.0601 -0.4168 -1.7085
   11CHL1    C8  754   4.424   6.590   9.744  0.2496 -0.6371 -0.0141
   11CHL1    H8  755   4.496   6.508   9.725 -0.1637 -1.0031 -0.0243
   11CHL1   C14  756   4.420   6.686   9.618  0.8977  0.2148 -0.2424
   11CHL1   H14  757   4.350   6.767   9.646  0.3616 -0.7167  1.2717
   11CHL1   C15  758   4.383   6.631   9.478 -0.9700 -0.2662  0.6021
   11CHL1  H15A  759   4.395   6.521   9.477 -2.6329 -0.4926  2.0894
   11CHL1  H15B  760   4.275   6.651   9.469 -0.5777  1.5517 -0.6247
   11CHL1   C16  761   4.449   6.729   9.381  0.1485  0.2401  0.4199
   11CHL1  H16A  762   4.517   6.679   9.308  1.9241  2.5981  0.3497
   11CHL1  H16B  763   4.370   6.785   9.327  0.1832  0.6543  0.7988
   11CHL1   C17  764   4.526   6.831   9.470 -0.4056  0.0176 -0.1365
   11CHL1   H17  765   4.450   6.907   9.499  0.4033  0.6053  0.4675
   11CHL1   C13  766   4.556   6.758   9.601 -0.0272 -0.0598 -0.5829
   11CHL1   C18  767   4.666   6.652   9.572 -0.0077  0.0278  0.3896
   11CHL1  H18A  768   4.690   6.601   9.667  0.0085  1.1128  0.9894
   11CHL1  H18B  769   4.638   6.586   9.487 -0.8426  3.0021 -1.8606
   11CHL1  H18C  770   4.766   6.693   9.546 -0.5804  0.4241 -1.3290
   11CHL1   C12  771   4.585   6.850   9.725  0.3262 -0.8376  0.0492
   11CHL1  H12A  772   4.684   6.897   9.708 -1.6904  3.5791 -0.9557
   11CHL1  H12B  773   4.522   6.940   9.734  1.3601  0.4247 -3.4822
   11CHL1   C11  774   4.596   6.767   9.849  0.1441 -0.3051  0.0479
   11CHL1  H11A  775   4.684   6.700   9.839 -0.6113 -1.0628 -2.0215
   11CHL1  H11B  776   4.618   6.832   9.936  0.8554 -2.4693  1.5625
   11CHL1    C9  777   4.467   6.679   9.873 -0.1820  0.3176 -0.0749
   11CHL1    H9  778   4.384   6.752   9.873  1.0002  1.7563  2.0402
   11CHL1   C10  779   4.467   6.599  10.005 -0.1627 -0.2435  0.4394
   11CHL1   C19  780   4.607   6.540  10.029  0.7273  0.1778 -0.8563
   11CHL1  H19A  781   4.605   6.485  10.125 -0.9568 -0.1693 -1.0651
   11CHL1  H19B  782   4.626   6.463   9.951 -2.1352 -0.9112 -0.6035
   11CHL1  H19C  783   4.679   6.625  10.033 -1.1957  1.8205  1.2519
   11CHL1    C1  784   4.436   6.693  10.123  0.4375 -0.5960  0.1724
   11CHL1   H1A  785   4.527   6.757  10.133  1.3326 -2.0100  1.7258
   11CHL1   H1B  786   4.350   6.757  10.096  0.5995 -0.7978 -0.8842
   11CHL1    C2  787   4.410   6.630  10.253  0.1590  0.1875  0.1833
   11CHL1   H2A  788   4.390   6.701  10.336 -0.0795 -1.3130  1.4672
   11CHL1   H2B  789   4.508   6.585  10.282 -0.7936  0.2567  4.0392
   11CHL1   C20  790   4.635   6.923   9.401 -0.1539  0.5365  0.8740
   11CHL1   H20  791   4.723   6.921   9.468 -0.0929 -1.2220  0.7830
   11CHL1   C21  792   4.582   7.066   9.389  0.3868 -0.5503 -0.0538
   11CHL1  H21A  793   4.481   7.068   9.342 -0.3748  1.1628  1.5260
   11CHL1  H21B  794   4.656   7.132   9.339 -0.2905  0.4619  0.2434
   11CHL1  H21C  795   4.568   7.104   9.492 -2.5149  0.7183 -0.7963
   11CHL1   C22  796   4.696   6.873   9.262 -0.6177 -0.0093 -0.3857
   11CHL1  H22A  797   4.791   6.922   9.235 -0.3548 -0.6203 -0.5928
   11CHL1  H22B  798   4.711   6.764   9.281  0.4234  0.2960  0.5702
   11CHL1   C23  799   4.605   6.882   9.141 -0.5214 -0.8106  0.3071
   11CHL1  H23A  800   4.501   6.864   9.178  0.4423 -2.9738  2.2658
   11CHL1  H23B  801   4.614   6.980   9.091  0.7371 -0.7628  0.6067
   11CHL1   C24  802   4.653   6.783   9.038 -0.1485  0.4213 -0.1656
   11CHL1  H24A  803   4.761   6.798   9.014 -0.3387 -0.0983 -1.4298
   11CHL1  H24B  804   4.644   6.684   9.087 -0.9437  1.7697  2.5688
   11CHL1   C25  805   4.565   6.790   8.905 -0.0245 -0.0800 -0.0344
   11CHL1   H25  806   4.557   6.898   8.883  2.5321  0.3644  0.8164
   11CHL1   C26  807   4.641   6.726   8.797 -0.1358  0.4940  0.2682
   11CHL1  H26A  808   4.671   6.623   8.826 -1.3169 -0.9241 -2.9498
   11CHL1  H26B  809   4.573   6.707   8.711 -2.1121  1.4386  1.5548
   11CHL1  H26C  810   4.722   6.800   8.780 -0.1343  0.6938  1.1020
   11CHL1   C27  811   4.430   6.720   8.925 -0.3686 -0.4796 -0.1968
   11CHL1  H27A  812   4.374   6.765   9.010 -0.5573 -0.2796 -0.4253
   11CHL1  H27B  813   4.363   6.731   8.837 -0.9034 -2.2210 -0.0568
   11CHL1  H27C  814   4.441   6.613   8.952 -1.0572 -0.6817 -0.6982
   12CHL1    C3  815   6.178   2.300  10.423 -0.3340  0.2068  0.1976
   12CHL1    H3  816   6.165   2.404  10.386  1.6334  0.4484  0.0712
   12CHL1    O3  817   6.212   2.298  10.561  0.4738 -0.4165  0.0146
   12CHL1   H3'  818   6.249   2.213  10.584 -1.8070 -1.2413  1.0021
   12CHL1    C4  819   6.059   2.208  10.406 -0.2153  0.4101  0.7935
   12CHL1   H4A  820   6.100   2.112  10.443  0.4396 -0.4080 -1.7926
   12CHL1   H4B  821   5.976   2.233  10.475 -0.0457  1.1552  0.7385
   12CHL1    C5  822   6.018   2.192  10.265 -0.7872  0.0732 -0.3059
   12CHL1    C6  823   5.896   2.228  10.222 -0.0619 -0.0788 -0.1991
   12CHL1    H6  824   5.830   2.254  10.306 -1.4851 -2.4750 -0.4758
   12CHL1    C7  825   5.838   2.215  10.084  0.1343  0.5005  0.6414
   12CHL1   H7A  826   5.752   2.145  10.081 -0.2973  1.0302  0.5897
   12CHL1   H7B  827   5.811   2.308  10.031  0.5147  0.2662  0.0264
   12CHL1    C8  828   5.943   2.140   9.987 -0.6333  0.0536 -0.3644
   12CHL1    H8  829   5.928   2.031  10.002 -1.1095  0.0922 -0.5583
   12CHL1   C14  830   5.916   2.173   9.844 -0.0806  0.4133 -0.7543
   12CHL1   H14  831   5.936   2.281   9.831  0.0033  0.3508 -1.1560
   12CHL1   C15  832   5.778   2.158   9.786  0.0940  0.2734  0.1195
   12CHL1  H15A  833   5.728   2.064   9.818 -0.0426  0.6249  0.9487
   12CHL1  H15B  834   5.709   2.240   9.817 -0.8268 -0.2085 -0.5866
   12CHL1   C16  835   5.800   2.165   9.630  0.8973 -0.6344  0.8704
   12CHL1  H16A  836   5.753   2.075   9.587  0.4583 -0.9647  1.9980
   12CHL1  H16B  837   5.741   2.248   9.586 -0.6745 -2.7263 -1.1963
   12CHL1   C17  838   5.955   2.164   9.611  0.6914 -0.2487  0.0323
   12CHL1   H17  839   5.989   2.268   9.597  0.4600 -0.4789 -2.7718
   12CHL1   C13  840   6.014   2.112   9.745 -0.9938 -0.1503 -0.0659
   12CHL1   C18  841   6.012   1.953   9.750  0.3193  0.7390  0.4933
   12CHL1  H18A  842   6.049   1.917   9.849  1.5200 -0.6844 -0.4359
   12CHL1  H18B  843   5.907   1.922   9.732  0.6742 -0.6288  0.7040
   12CHL1  H18C  844   6.090   1.914   9.682 -0.7209  1.3548 -1.1105
   12CHL1   C12  845   6.157   2.154   9.768 -0.0634 -0.5940  0.1994
   12CHL1  H12A  846   6.237   2.097   9.716  0.1152 -2.4209  2.3310
   12CHL1  H12B  847   6.162   2.262   9.739 -0.6872 -0.5867  0.1065
   12CHL1   C11  848   6.194   2.146   9.918  0.1013 -0.3749  0.0125
   12CHL1  H11A  849   6.215   2.038   9.934  3.6239  0.4742  2.4939
   12CHL1  H11B  850   6.288   2.200   9.943 -0.7836  0.8535  0.7530
   12CHL1    C9  851   6.087   2.185  10.029  0.0955  0.6065 -0.4685
   12CHL1    H9  852   6.077   2.295  10.025 -0.3997  0.5405 -2.2354
   12CHL1   C10  853   6.124   2.148  10.171 -0.1948 -0.0488  0.5284
   12CHL1   C19  854   6.144   1.997  10.184  0.3581  0.7039  0.4703
   12CHL1  H19A  855   6.052   1.952  10.141 -0.6366  2.9995 -0.0093
   12CHL1  H19B  856   6.219   1.955  10.114 -0.0283  0.9864 -0.1286
   12CHL1  H19C  857   6.153   1.951  10.284 -1.1705 -1.4183 -0.3104
   12CHL1    C1  858   6.258   2.216  10.196 -0.1628  0.3603  0.5587
   12CHL1   H1A  859   6.339   2.149  10.159  0.4373  1.9696 -1.1788
   12CHL1   H1B  860   6.274   2.316  10.151 -1.1717  0.4861  0.4591
   12CHL1    C2  861   6.297   2.235  10.345 -0.2334 -0.1924  0.8624
   12CHL1   H2A  862   6.391   2.293  10.352  0.3489 -0.6880 -1.7462
   12CHL1   H2B  863   6.313   2.137  10.396  2.6205 -0.0056  0.4787
   12CHL1   C20  864   5.990   2.085   9.486  0.5365 -0.2344 -0.0018
   12CHL1   H20  865   5.960   1.978   9.498  2.1491 -0.7031  0.1364
   12CHL1   C21  866   6.136   2.105   9.441  0.6163  0.4637  0.6006
   12CHL1  H21A  867   6.209   2.114   9.524  2.3543  0.8841 -0.9125
   12CHL1  H21B  868   6.146   2.197   9.379 -1.3616  1.7574  2.0602
   12CHL1  H21C  869   6.175   2.021   9.380  0.5019  1.0663 -0.3257
   12CHL1   C22  870   5.900   2.136   9.360  0.4532  0.5468  1.0015
   12CHL1  H22A  871   5.793   2.131   9.390 -0.2247  0.4391 -1.2951
   12CHL1  H22B  872   5.921   2.244   9.343  0.3544  0.3133 -0.7441
   12CHL1   C23  873   5.893   2.044   9.232 -0.4545 -0.1885 -0.3966
   12CHL1  H23A  874   5.995   2.010   9.204  0.1893  0.8683  0.5535
   12CHL1  H23B  875   5.846   1.953   9.275 -2.7517  1.1018 -0.0520
   12CHL1   C24  876   5.816   2.111   9.116 -0.0715 -0.0781  0.0168
   12CHL1  H24A  877   5.744   2.175   9.172 -0.0681 -1.3943  1.6063
   12CHL1  H24B  878   5.890   2.170   9.058 -2.2311  0.2002 -2.6691
   12CHL1   C25  879   5.750   2.018   9.015 -0.2832  0.2016  0.5697
   12CHL1   H25  880   5.686   1.949   9.075 -1.2289  1.3179  0.8808
   12CHL1   C26  881   5.673   2.086   8.898 -0.1449  0.6137  0.5442
   12CHL1  H26A  882   5.600   2.159   8.939  0.9744  2.4549 -0.5876
   12CHL1  H26B  883   5.745   2.128   8.825  1.3777 -1.0068  1.0599
   12CHL1  H26C  884   5.614   2.008   8.846  0.1965  0.7714 -0.0884
   12CHL1   C27  885   5.856   1.919   8.950  0.0904 -0.0043 -0.2056
   12CHL1  H27A  886   5.962   1.942   8.973 -0.2959  1.0992  0.5495
   12CHL1  H27B  887   5.823   1.819   8.985 -0.2681  0.3538  0.5030
   12CHL1  H27C  888   5.836   1.920   8.841 -1.9068  0.7949  0.1247
   13CHL1    C3  889   5.649   3.703  10.095  0.6415  0.2388 -0.7414
   13CHL1    H3  890   5.699   3.802  10.094 -1.3941  1.3294 -1.4562
   13CHL1    O3  891   5.629   3.671  10.235 -0.0530 -0.4405 -0.2628
   13CHL1   H3'  892   5.588   3.585  10.234 -3.4651  0.9975  0.1702
   13CHL1    C4  893   5.514   3.711  10.021  0.7499 -0.1055 -0.2920
   13CHL1   H4A  894   5.462   3.613  10.028  3.1776 -1.4076  0.8250
   13CHL1   H4B  895   5.450   3.780  10.081 -0.5497 -1.8888  0.4791
   13CHL1    C5  896   5.534   3.739   9.870 -1.1991  0.2227 -0.5504
   13CHL1    C6  897   5.509   3.857   9.815 -0.2720  0.1410 -0.5286
   13CHL1    H6  898   5.464   3.932   9.881  0.3228 -0.8798  1.0988
   13CHL1    C7  899   5.522   3.888   9.667 -0.5240  0.0005  0.3804
   13CHL1   H7A  900   5.419   3.905   9.630 -1.8252 -3.8682  1.7325
   13CHL1   H7B  901   5.591   3.971   9.639 -0.9041  0.3682  0.5202
   13CHL1    C8  902   5.560   3.762   9.585 -0.3748  0.0506  0.0802
   13CHL1    H8  903   5.470   3.702   9.563  0.6726 -1.7893  0.5955
   13CHL1   C14  904   5.623   3.809   9.450 -0.6977  0.2385 -0.1844
   13CHL1   H14  905   5.715   3.864   9.481 -1.0842 -0.3243  2.2045
   13CHL1   C15  906   5.560   3.905   9.360  0.1955  0.0360 -0.1606
   13CHL1  H15A  907   5.456   3.869   9.353  0.0995  0.1547  0.6327
   13CHL1  H15B  908   5.558   4.006   9.405 -0.5371 -0.2972  0.5598
   13CHL1   C16  909   5.628   3.896   9.223  0.0209 -0.1893 -0.3783
   13CHL1  H16A  910   5.555   3.871   9.143 -0.4368  2.8950 -1.0666
   13CHL1  H16B  911   5.688   3.984   9.191  2.1519 -1.0709  1.0031
   13CHL1   C17  912   5.728   3.781   9.235  1.1549 -0.1922  0.4265
   13CHL1   H17  913   5.822   3.824   9.276  1.4815  0.0918 -0.6102
   13CHL1   C13  914   5.675   3.694   9.357  0.3566  0.3416  0.0399
   13CHL1   C18  915   5.557   3.602   9.309 -0.5534  0.0460 -0.0816
   13CHL1  H18A  916   5.582   3.516   9.243  0.5478 -0.0226  0.4074
   13CHL1  H18B  917   5.506   3.556   9.397 -3.3849  3.6895  0.4501
   13CHL1  H18C  918   5.481   3.663   9.257  0.2302 -1.2105 -2.8561
   13CHL1   C12  919   5.771   3.604   9.436  0.7643 -0.4702 -0.3594
   13CHL1  H12A  920   5.817   3.517   9.383 -0.1557 -1.5318  0.5166
   13CHL1  H12B  921   5.849   3.679   9.457 -0.9861  0.9108  1.5359
   13CHL1   C11  922   5.714   3.551   9.572  0.0236 -0.0770  0.3108
   13CHL1  H11A  923   5.634   3.481   9.541  0.5740  0.1497 -1.7823
   13CHL1  H11B  924   5.793   3.494   9.627  0.5151 -0.2423 -0.5550
   13CHL1    C9  925   5.658   3.664   9.659  0.0095  0.0858 -0.0806
   13CHL1    H9  926   5.748   3.727   9.680  0.6157 -0.1905 -1.6486
   13CHL1   C10  927   5.614   3.626   9.803  0.3716 -0.2264  0.4033
   13CHL1   C19  928   5.532   3.496   9.784 -0.6011  0.1123 -0.1261
   13CHL1  H19A  929   5.465   3.473   9.870 -1.4314 -1.0964 -1.0494
   13CHL1  H19B  930   5.466   3.509   9.696 -0.2864 -0.3635 -0.4361
   13CHL1  H19C  931   5.598   3.410   9.761  0.0575  1.1790 -2.4561
   13CHL1    C1  932   5.745   3.609   9.883  0.1274  0.1641  0.2956
   13CHL1   H1A  933   5.805   3.525   9.844 -0.1644  0.5821 -1.1223
   13CHL1   H1B  934   5.813   3.696   9.870  2.3959 -1.6833 -0.8306
   13CHL1    C2  935   5.729   3.587  10.033 -0.1975 -0.1069 -0.4465
   13CHL1   H2A  936   5.822   3.558  10.086  0.0627 -0.1822 -0.9317
   13CHL1   H2B  937   5.674   3.491  10.035 -1.2930  0.5046  1.8672
   13CHL1   C20  938   5.767   3.706   9.111 -0.6745  0.3394  0.3990
   13CHL1   H20  939   5.696   3.622   9.094 -0.4985  0.7054 -2.9569
   13CHL1   C21  940   5.909   3.652   9.126  0.8011  0.1083  0.5004
   13CHL1  H21A  941   5.987   3.731   9.129  0.1167  0.7830  0.8123
   13CHL1  H21B  942   5.942   3.586   9.042 -0.6508  0.2910 -0.2433
   13CHL1  H21C  943   5.917   3.592   9.219  1.8230  1.5684  1.3929
   13CHL1   C22  944   5.774   3.796   8.982  0.1113 -0.3069  0.1900
   13CHL1  H22A  945   5.703   3.881   8.972  1.8557  1.1588 -0.2784
   13CHL1  H22B  946   5.877   3.840   8.986 -0.0693  0.2828 -1.1314
   13CHL1   C23  947   5.760   3.718   8.851  0.0889  0.4664 -0.1244
   13CHL1  H23A  948   5.808   3.618   8.863 -0.2853  0.2714 -0.2297
   13CHL1  H23B  949   5.652   3.701   8.830 -0.1304  0.3434  1.0338
   13CHL1   C24  950   5.839   3.784   8.734  0.7376  0.0364 -0.1092
   13CHL1  H24A  951   5.794   3.886   8.730 -0.4942 -0.5279 -1.0997
   13CHL1  H24B  952   5.946   3.791   8.765  0.8339 -1.6932  0.0482
   13CHL1   C25  953   5.831   3.711   8.596  0.3222  0.1750  0.5209
   13CHL1   H25  954   5.888   3.616   8.594  0.6127  0.3380  0.9369
   13CHL1   C26  955   5.684   3.675   8.557 -0.1627  0.2087 -0.3920
   13CHL1  H26A  956   5.623   3.767   8.546  1.2121  1.0344 -1.4912
   13CHL1  H26B  957   5.663   3.620   8.462 -0.7572  0.9282 -0.6904
   13CHL1  H26C  958   5.644   3.599   8.626 -0.4197 -0.3421 -1.1385
   13CHL1   C27  959   5.882   3.805   8.481 -0.1353 -0.1237 -0.4639
   13CHL1  H27A  960   5.976   3.855   8.513 -0.3763 -1.1217  2.0564
   13CHL1  H27B  961   5.886   3.742   8.390 -0.5571 -3.8031  1.8904
   13CHL1  H27C  962   5.809   3.888   8.463  0.0694  0.3731  0.8757
   14CHL1    C3  963   5.498   0.076  10.507 -0.1396  0.2717 -0.6464
   14CHL1    H3  964   5.596   0.122  10.534  1.4372 -2.7805 -0.6983
   14CHL1    O3  965   5.443   0.030  10.631  0.3125  0.0469 -0.3429
   14CHL1   H3'  966   5.386  -0.044  10.608  1.1461 -0.1372 -1.9180
   14CHL1    C4  967   5.402   0.176  10.440  0.2819  0.3179  0.0973
   14CHL1   H4A  968   5.301   0.130  10.447  0.2757  0.4359  0.8754
   14CHL1   H4B  969   5.384   0.258  10.512 -0.9757 -0.1934  0.3901
   14CHL1    C5  970   5.435   0.218  10.296  0.0548 -0.6956  0.5070
   14CHL1    C6  971   5.445   0.345  10.251 -0.4603 -0.1230  0.2597
   14CHL1    H6  972   5.444   0.426  10.325  0.2754  0.7331 -0.6425
   14CHL1    C7  973   5.442   0.386  10.110  0.0193 -0.1374 -0.1838
   14CHL1   H7A  974   5.353   0.448  10.085  0.1192 -0.7189 -2.2142
   14CHL1   H7B  975   5.535   0.444  10.088  0.7424 -0.7582  1.1339
   14CHL1    C8  976   5.436   0.274  10.008 -0.5945  0.1809 -0.4002
   14CHL1    H8  977   5.332   0.239   9.991 -0.5363 -0.9334  1.3025
   14CHL1   C14  978   5.503   0.316   9.875 -0.0258 -1.1328  0.2995
   14CHL1   H14  979   5.608   0.337   9.905  0.5198 -0.8735 -1.6387
   14CHL1   C15  980   5.457   0.451   9.815  0.2740 -0.1805 -0.5027
   14CHL1  H15A  981   5.346   0.450   9.816  0.2718 -1.3512  0.4112
   14CHL1  H15B  982   5.500   0.540   9.866  0.9093 -0.2494 -0.9105
   14CHL1   C16  983   5.500   0.439   9.663 -0.1632 -0.7337  0.3373
   14CHL1  H16A  984   5.414   0.464   9.598  0.2835 -1.2216 -0.4649
   14CHL1  H16B  985   5.582   0.514   9.658 -1.4074  0.6494  0.3076
   14CHL1   C17  986   5.550   0.297   9.643 -0.6464  0.0779 -0.3320
   14CHL1   H17  987   5.660   0.306   9.648 -0.8707  4.7105  1.6891
   14CHL1   C13  988   5.500   0.212   9.765 -0.2115  0.0976 -0.1079
   14CHL1   C18  989   5.360   0.169   9.729 -0.4248 -0.6980  0.7330
   14CHL1  H18A  990   5.307   0.130   9.818  0.4662 -0.9150  1.1862
   14CHL1  H18B  991   5.296   0.247   9.684 -0.0627 -0.1363  1.1806
   14CHL1  H18C  992   5.375   0.083   9.659  1.2107  0.3618 -0.2896
   14CHL1   C12  993   5.586   0.101   9.822 -0.3468  0.3321  0.0632
   14CHL1  H12A  994   5.578   0.008   9.762  0.8953 -1.0785  1.9332
   14CHL1  H12B  995   5.688   0.145   9.833  0.1470 -0.5485 -0.8273
   14CHL1   C11  996   5.540   0.053   9.959  0.1058 -0.0169 -0.3982
   14CHL1  H11A  997   5.446  -0.004   9.941 -0.0864 -0.2220  1.1358
   14CHL1  H11B  998   5.598  -0.030  10.006 -0.3004  0.3467  0.7612
   14CHL1    C9  999   5.517   0.160  10.069 -0.4697  0.1297 -0.3144
   14CHL1    H9 1000   5.616   0.207  10.088  0.0340 -1.1375  0.3284
   14CHL1   C10 1001   5.462   0.105  10.207 -0.2281 -0.2405 -0.5422
   14CHL1   C19 1002   5.328   0.024  10.192 -0.1188  0.5901 -0.0343
   14CHL1  H19A 1003   5.343  -0.083  10.165  2.1646  1.4825 -2.7685
   14CHL1  H19B 1004   5.264   0.034  10.283  0.1341  2.3155 -0.0146
   14CHL1  H19C 1005   5.270   0.081  10.117 -0.2573  0.5209  0.0186
   14CHL1    C1 1006   5.570   0.007  10.269  0.0292 -0.3531  0.0646
   14CHL1   H1A 1007   5.577  -0.084  10.206 -1.5445  1.2028 -2.5342
   14CHL1   H1B 1008   5.667   0.061  10.273 -0.5294  0.6997 -0.2265
   14CHL1    C2 1009   5.533  -0.046  10.412  0.6200 -0.1490 -0.3063
   14CHL1   H2A 1010   5.612  -0.119  10.436  0.2406 -0.1245  1.0558
   14CHL1   H2B 1011   5.438  -0.100  10.393  0.8672  0.1719 -2.9574
   14CHL1   C20 1012   5.525   0.239   9.503 -0.0526 -0.0323  0.0505
   14CHL1   H20 1013   5.415   0.243   9.488 -0.4199  5.2260  1.8846
   14CHL1   C21 1014   5.582   0.099   9.496  0.5127  0.4836 -0.0040
   14CHL1  H21A 1015   5.522   0.022   9.551  1.4197  1.0832  1.9135
   14CHL1  H21B 1016   5.684   0.087   9.539 -0.4500 -0.9542  2.0601
   14CHL1  H21C 1017   5.586   0.069   9.389  1.0818  1.3953 -0.2449
   14CHL1   C22 1018   5.569   0.327   9.392  0.2971  0.4943 -0.2629
   14CHL1  H22A 1019   5.517   0.425   9.406 -1.8105 -0.6491  0.3510
   14CHL1  H22B 1020   5.680   0.336   9.391  0.2609  1.2965  0.8617
   14CHL1   C23 1021   5.512   0.280   9.254 -0.7585 -0.4429  0.3282
   14CHL1  H23A 1022   5.555   0.183   9.220 -1.1223 -0.2017 -0.8290
   14CHL1  H23B 1023   5.402   0.274   9.265 -1.3572  3.0737 -2.2171
   14CHL1   C24 1024   5.548   0.373   9.134  1.1658  0.1695 -0.0174
   14CHL1  H24A 1025   5.659   0.382   9.130  1.1732  0.8516  1.1558
   14CHL1  H24B 1026   5.507   0.345   9.035  2.1770 -1.2169 -0.0707
   14CHL1   C25 1027   5.486   0.514   9.152 -0.7771 -0.2730  0.8451
   14CHL1   H25 1028   5.526   0.575   9.235 -0.9059  1.3937 -0.2641
   14CHL1   C26 1029   5.500   0.609   9.027  0.1968 -0.2092 -0.1224
   14CHL1  H26A 1030   5.601   0.649   9.007  0.6397 -0.6051  1.1919
   14CHL1  H26B 1031   5.476   0.543   8.941 -0.7620 -0.8846  0.6356
   14CHL1  H26C 1032   5.428   0.693   9.037  0.1656 -0.3377  0.8924
   14CHL1   C27 1033   5.331   0.496   9.177  0.4062 -0.0487 -0.0345
   14CHL1  H27A 1034   5.284   0.596   9.182 -1.7037 -1.0195  0.6071
   14CHL1  H27B 1035   5.288   0.437   9.093  0.5851 -1.3792  0.7725
   14CHL1  H27C 1036   5.316   0.440   9.272 -1.1732 -1.0668 -0.8407
   15CHL1    C3 1037   5.451   6.256  10.247  0.5433  0.1917  0.7466
   15CHL1    H3 1038   5.348   6.215  10.248  1.1505 -1.4439 -0.3553
   15CHL1    O3 1039   5.503   6.250  10.373 -0.3099  0.3748 -0.3770
   15CHL1   H3' 1040   5.595   6.272  10.356 -0.5208  1.5035 -0.1148
   15CHL1    C4 1041   5.538   6.166  10.154  0.7648  0.1079 -0.1578
   15CHL1   H4A 1042   5.643   6.201  10.165 -0.1030  2.3904  1.7359
   15CHL1   H4B 1043   5.528   6.063  10.192 -0.1563  0.5078  0.7402
   15CHL1    C5 1044   5.501   6.174  10.009 -0.2504 -0.2649  0.2600
   15CHL1    C6 1045   5.463   6.060   9.941  0.1793  0.4212  0.7137
   15CHL1    H6 1046   5.470   5.961   9.987  0.4446 -0.7339 -1.6587
   15CHL1    C7 1047   5.413   6.060   9.797 -0.5283 -0.6530  0.6155
   15CHL1   H7A 1048   5.449   5.971   9.740  0.3694  0.5120 -0.7192
   15CHL1   H7B 1049   5.303   6.063   9.790 -0.4325  0.8392 -1.0912
   15CHL1    C8 1050   5.458   6.181   9.720 -0.1517  0.3213 -0.9311
   15CHL1    H8 1051   5.567   6.166   9.707  0.4359  2.5499  0.6830
   15CHL1   C14 1052   5.373   6.186   9.589 -0.8149 -0.2750 -0.6210
   15CHL1   H14 1053   5.267   6.205   9.614 -0.8191 -1.6474  0.5830
   15CHL1   C15 1054   5.350   6.064   9.494  0.6838 -0.3565  0.3254
   15CHL1  H15A 1055   5.437   5.995   9.485 -0.0960 -1.1137 -1.9102
   15CHL1  H15B 1056   5.266   6.006   9.536 -0.0374  1.3049  1.2787
   15CHL1   C16 1057   5.314   6.120   9.360  0.5797  0.1460  0.4559
   15CHL1  H16A 1058   5.383   6.070   9.290 -1.3869 -2.1214 -0.0238
   15CHL1  H16B 1059   5.215   6.098   9.314  1.6356  2.4432 -3.3128
   15CHL1   C17 1060   5.323   6.270   9.371  0.6831 -0.2435 -0.1864
   15CHL1   H17 1061   5.229   6.306   9.417  0.8266  0.3459 -0.3406
   15CHL1   C13 1062   5.410   6.303   9.497 -0.7701  0.3321 -0.2187
   15CHL1   C18 1063   5.556   6.278   9.449 -0.0271  0.5748 -0.1264
   15CHL1  H18A 1064   5.624   6.258   9.535  0.4208 -1.4438 -0.9023
   15CHL1  H18B 1065   5.557   6.184   9.390 -1.0321  0.3852  0.1422
   15CHL1  H18C 1066   5.592   6.366   9.390  0.4403  1.9434  2.0783
   15CHL1   C12 1067   5.390   6.428   9.576  0.3467 -0.7189 -0.4910
   15CHL1  H12A 1068   5.404   6.515   9.508  5.2064  0.2186  1.2781
   15CHL1  H12B 1069   5.285   6.434   9.610  0.3588 -1.2295 -0.3516
   15CHL1   C11 1070   5.475   6.432   9.711  0.2192 -0.3652  0.0138
   15CHL1  H11A 1071   5.585   6.436   9.697  0.4190  0.2875  1.6711
   15CHL1  H11B 1072   5.439   6.528   9.752 -0.8270 -1.2326  1.2310
   15CHL1    C9 1073   5.443   6.315   9.805 -0.2215  0.4654  0.4415
   15CHL1    H9 1074   5.333   6.323   9.822 -0.5442 -1.4813 -0.4551
   15CHL1   C10 1075   5.503   6.317   9.948  0.6237  0.4562  0.5485
   15CHL1   C19 1076   5.649   6.375   9.943  0.0228 -0.0053  0.2208
   15CHL1  H19A 1077   5.706   6.350  10.035  0.0694  1.0793  0.4988
   15CHL1  H19B 1078   5.702   6.335   9.854 -0.2049  1.9769 -0.8839
   15CHL1  H19C 1079   5.644   6.483   9.914 -2.4239 -0.4996 -1.5354
   15CHL1    C1 1080   5.424   6.413  10.039 -0.6329 -0.9073  0.6771
   15CHL1   H1A 1081   5.445   6.518  10.011  2.3423 -1.8569 -1.0785
   15CHL1   H1B 1082   5.314   6.397  10.032 -0.7973 -0.2496  1.5341
   15CHL1    C2 1083   5.452   6.399  10.197 -0.0297 -0.1458 -0.6094
   15CHL1   H2A 1084   5.385   6.471  10.248  0.2732  1.1591 -1.9838
   15CHL1   H2B 1085   5.554   6.438  10.219 -0.5323 -0.1312  1.9678
   15CHL1   C20 1086   5.328   6.350   9.240 -0.2014  0.0022  0.3521
   15CHL1   H20 1087   5.369   6.451   9.262  0.1323 -0.3035  1.1419
   15CHL1   C21 1088   5.187   6.372   9.184 -0.5413 -0.3458 -0.2934
   15CHL1  H21A 1089   5.175   6.425   9.087 -2.1665  1.4268  0.8178
   15CHL1  H21B 1090   5.140   6.443   9.254 -0.3843  0.8272 -1.3402
   15CHL1  H21C 1091   5.131   6.277   9.196  0.1831 -0.5346  2.1370
   15CHL1   C22 1092   5.426   6.293   9.137 -0.2474  0.5379 -0.3597
   15CHL1  H22A 1093   5.508   6.239   9.190 -0.7078 -0.7121 -0.8867
   15CHL1  H22B 1094   5.367   6.213   9.087 -0.1967  0.1600  0.1777
   15CHL1   C23 1095   5.481   6.393   9.037 -0.0474  0.5604  0.8719
   15CHL1  H23A 1096   5.529   6.346   8.948 -0.8886 -0.0788  0.7526
   15CHL1  H23B 1097   5.403   6.467   9.009 -0.4468  0.0251  0.5417
   15CHL1   C24 1098   5.595   6.473   9.107  0.3101 -0.3780  0.4206
   15CHL1  H24A 1099   5.568   6.521   9.203  0.0099 -1.1427  0.7286
   15CHL1  H24B 1100   5.662   6.392   9.143  3.5244  0.6485 -2.7273
   15CHL1   C25 1101   5.673   6.567   9.015 -0.2798  0.0064 -0.6234
   15CHL1   H25 1102   5.699   6.502   8.929 -0.0657  1.0462 -1.3623
   15CHL1   C26 1103   5.590   6.680   8.959 -0.2671 -0.5673  0.2298
   15CHL1  H26A 1104   5.529   6.735   9.034 -1.0940 -2.3636  0.9216
   15CHL1  H26B 1105   5.671   6.743   8.916  0.8245  0.0605  2.9757
   15CHL1  H26C 1106   5.529   6.662   8.868  0.6714 -0.5265 -0.4228
   15CHL1   C27 1107   5.791   6.616   9.095  0.0438  0.6342  0.1884
   15CHL1  H27A 1108   5.836   6.524   9.138 -1.2609  0.9059  2.3047
   15CHL1  H27B 1109   5.858   6.667   9.022 -3.3700  2.0100 -2.2446
   15CHL1  H27C 1110   5.771   6.681   9.183  0.5057 -0.7578  1.3608
   16CHL1    C3 1111   6.434   0.513  10.416  0.1953  0.2212  0.4460
   16CHL1    H3 1112   6.343   0.576  10.407  0.6514  0.9022  0.4272
   16CHL1    O3 1113   6.475   0.488  10.546  0.1003  1.0467 -0.7884
   16CHL1   H3' 1114   6.560   0.443  10.555  0.4469  1.8817  0.3335
   16CHL1    C4 1115   6.426   0.379  10.348  0.6663 -0.6790  0.6105
   16CHL1   H4A 1116   6.507   0.304  10.361 -0.6263 -2.0357  1.0750
   16CHL1   H4B 1117   6.331   0.331  10.381 -1.3476  1.7007 -1.3042
   16CHL1    C5 1118   6.412   0.407  10.198 -0.3584  0.7110 -0.1505
   16CHL1    C6 1119   6.308   0.355  10.132 -0.3248  0.0797  0.6394
   16CHL1    H6 1120   6.231   0.291  10.178 -2.0873  1.1093 -0.7507
   16CHL1    C7 1121   6.274   0.376   9.986  0.4570  0.1023 -0.3084
   16CHL1   H7A 1122   6.263   0.274   9.944  1.6246 -0.0203 -0.3513
   16CHL1   H7B 1123   6.182   0.439   9.980  0.6964  0.5864  0.7916
   16CHL1    C8 1124   6.389   0.442   9.907 -0.2539 -0.3428  0.1967
   16CHL1    H8 1125   6.471   0.366   9.899  0.9904  0.8441  1.2353
   16CHL1   C14 1126   6.339   0.497   9.774  0.0778 -0.0909 -0.2801
   16CHL1   H14 1127   6.272   0.584   9.792 -0.2565 -0.5953  0.9991
   16CHL1   C15 1128   6.253   0.406   9.684  0.3088  0.3243 -0.4116
   16CHL1  H15A 1129   6.279   0.299   9.694 -1.6061 -0.0561  1.1448
   16CHL1  H15B 1130   6.148   0.421   9.716  0.7877  2.3153  0.3736
   16CHL1   C16 1131   6.273   0.467   9.541  0.6824 -0.3519  0.1869
   16CHL1  H16A 1132   6.324   0.389   9.481  0.1823  1.3886 -2.6811
   16CHL1  H16B 1133   6.176   0.497   9.496  0.9185  2.8433  1.5670
   16CHL1   C17 1134   6.365   0.590   9.559  0.0945  0.5601  1.4196
   16CHL1   H17 1135   6.299   0.668   9.602 -1.7217 -1.3884  2.3778
   16CHL1   C13 1136   6.452   0.557   9.682 -0.4646  0.0502  0.1898
   16CHL1   C18 1137   6.557   0.446   9.659 -0.6246  0.7773  0.1717
   16CHL1  H18A 1138   6.639   0.488   9.596 -0.2099 -2.0671 -1.3601
   16CHL1  H18B 1139   6.612   0.415   9.751 -0.5057 -1.8508 -0.6903
   16CHL1  H18C 1140   6.514   0.361   9.602 -2.5280  1.2295  0.8653
   16CHL1   C12 1141   6.506   0.671   9.750 -0.0391 -0.3487 -0.3429
   16CHL1  H12A 1142   6.597   0.712   9.701 -1.1642  3.3690  0.2909
   16CHL1  H12B 1143   6.437   0.759   9.746  1.0411  0.5391  0.1265
   16CHL1   C11 1144   6.548   0.649   9.901 -0.6089 -0.0587  1.0122
   16CHL1  H11A 1145   6.642   0.592   9.890  0.1196  1.3595 -0.4308
   16CHL1  H11B 1146   6.561   0.740   9.963 -2.0692  1.1051 -0.3166
   16CHL1    C9 1147   6.452   0.559   9.986  0.0880 -0.2571 -0.0643
   16CHL1    H9 1148   6.373   0.632  10.012  2.1251  2.3667 -0.8596
   16CHL1   C10 1149   6.508   0.512  10.123 -0.0442 -0.2602 -0.3126
   16CHL1   C19 1150   6.641   0.441  10.101  0.9273 -0.2724 -0.0778
   16CHL1  H19A 1151   6.670   0.374  10.185 -0.0509  1.2967  1.5885
   16CHL1  H19B 1152   6.654   0.385  10.006 -1.2641 -0.1691 -0.4933
   16CHL1  H19C 1153   6.723   0.516  10.096 -0.4374  1.2412 -0.6894
   16CHL1    C1 1154   6.525   0.638  10.212  0.6516  0.1499 -0.1798
   16CHL1   H1A 1155   6.604   0.705  10.172 -1.1575  1.3940 -1.8807
   16CHL1   H1B 1156   6.434   0.701  10.202  0.2627 -0.6469 -2.1761
   16CHL1    C2 1157   6.550   0.598  10.361  0.3783 -0.7889 -0.4785
   16CHL1   H2A 1158   6.575   0.681  10.430  1.6488 -1.1739 -0.4644
   16CHL1   H2B 1159   6.637   0.530  10.354 -0.6555 -2.2500  0.2513
   16CHL1   C20 1160   6.437   0.627   9.424 -0.0725 -0.1367 -0.2755
   16CHL1   H20 1161   6.533   0.572   9.419 -0.9174 -1.8020  1.0714
   16CHL1   C21 1162   6.467   0.787   9.439 -0.0578  0.8064  0.1291
   16CHL1  H21A 1163   6.508   0.821   9.536 -0.4299  0.8469  0.2741
   16CHL1  H21B 1164   6.377   0.850   9.419  0.0576  1.0171  0.2699
   16CHL1  H21C 1165   6.543   0.809   9.362 -0.1118  1.1558  0.1759
   16CHL1   C22 1166   6.366   0.602   9.296  0.8636 -0.3987 -0.2896
   16CHL1  H22A 1167   6.333   0.498   9.275  1.2153 -0.3586 -1.0772
   16CHL1  H22B 1168   6.280   0.672   9.300  1.9683  1.0076 -0.2132
   16CHL1   C23 1169   6.441   0.639   9.175  0.3673  0.1785 -0.4072
   16CHL1  H23A 1170   6.480   0.744   9.181 -0.3728  0.4154  0.5821
   16CHL1  H23B 1171   6.533   0.577   9.171 -0.9012 -2.3592  3.7286
   16CHL1   C24 1172   6.348   0.626   9.052 -0.1273  0.0731 -0.3828
   16CHL1  H24A 1173   6.297   0.528   9.049 -0.8772  0.4694 -1.6910
   16CHL1  H24B 1174   6.269   0.704   9.060  1.8918  2.1379  0.4733
   16CHL1   C25 1175   6.421   0.657   8.920 -0.1981  0.0168 -0.1589
   16CHL1   H25 1176   6.459   0.762   8.922 -0.5615  0.2467  4.0649
   16CHL1   C26 1177   6.543   0.565   8.896 -0.2756  0.0531 -0.1566
   16CHL1  H26A 1178   6.634   0.579   8.958 -1.5673 -0.6626  2.0112
   16CHL1  H26B 1179   6.513   0.458   8.901  1.1491 -0.3189  1.2034
   16CHL1  H26C 1180   6.572   0.575   8.789 -1.3373  2.1400 -0.3158
   16CHL1   C27 1181   6.320   0.656   8.803 -0.2376  0.4037  0.0542
   16CHL1  H27A 1182   6.271   0.561   8.776 -0.5316  0.7222 -0.5563
   16CHL1  H27B 1183   6.250   0.739   8.828 -0.8521 -0.4295  1.1814
   16CHL1  H27C 1184   6.365   0.692   8.708  0.3799 -0.7180 -0.0935
   17CHL1    C3 1185   1.939   3.858  10.282  0.6001  0.7826 -0.2383
   17CHL1    H3 1186   1.971   3.752  10.271 -0.3035 -0.0502  3.5913
   17CHL1    O3 1187   1.883   3.875  10.411 -0.1520 -0.4630 -0.4758
   17CHL1   H3' 1188   1.900   3.968  10.428 -0.2914 -0.9444  3.0852
   17CHL1    C4 1189   2.059   3.944  10.263 -0.1596  0.6813 -0.2822
   17CHL1   H4A 1190   2.024   4.049  10.275 -0.5787  0.4112  1.0785
   17CHL1   H4B 1191   2.131   3.911  10.341  1.0705  2.0701 -0.8074
   17CHL1    C5 1192   2.120   3.938  10.124  0.6461  0.3704 -0.1885
   17CHL1    C6 1193   2.251   3.919  10.105 -0.0178 -0.7724 -0.5092
   17CHL1    H6 1194   2.311   3.904  10.196  1.4899  0.0237 -1.3471
   17CHL1    C7 1195   2.317   3.923   9.969  0.6004 -0.0102  0.3768
   17CHL1   H7A 1196   2.403   3.994   9.961  1.1949 -0.4897  2.1102
   17CHL1   H7B 1197   2.355   3.820   9.952  1.7391  0.5458 -0.6100
   17CHL1    C8 1198   2.214   3.966   9.858  0.2631 -0.4558  0.0571
   17CHL1    H8 1199   2.207   4.076   9.872 -1.2348 -0.6913  1.5809
   17CHL1   C14 1200   2.261   3.928   9.723 -0.0979 -0.3998  0.2260
   17CHL1   H14 1201   2.248   3.818   9.729 -2.8856 -0.0493  2.0544
   17CHL1   C15 1202   2.410   3.942   9.690 -0.3746  0.2598 -0.1131
   17CHL1  H15A 1203   2.469   4.030   9.724  2.6359 -0.5709 -2.6956
   17CHL1  H15B 1204   2.449   3.846   9.730 -1.3664 -0.1841 -0.1868
   17CHL1   C16 1205   2.411   3.939   9.542  0.0085 -0.4987 -0.2597
   17CHL1  H16A 1206   2.451   4.034   9.500 -1.7422 -0.3881 -1.8145
   17CHL1  H16B 1207   2.482   3.862   9.504  3.0356  0.7785  2.3046
   17CHL1   C17 1208   2.267   3.926   9.483  0.3255 -0.0714  0.4035
   17CHL1   H17 1209   2.242   3.817   9.482  0.2683 -0.0609 -0.8387
   17CHL1   C13 1210   2.178   3.977   9.602 -0.0837 -0.2866  0.6844
   17CHL1   C18 1211   2.175   4.134   9.606  0.2896  0.6284 -0.0722
   17CHL1  H18A 1212   2.087   4.166   9.546 -0.8195  1.3332  1.8430
   17CHL1  H18B 1213   2.147   4.169   9.707 -0.8644  3.0482 -1.1423
   17CHL1  H18C 1214   2.268   4.188   9.577  0.2638  0.4644 -0.4616
   17CHL1   C12 1215   2.037   3.916   9.619 -0.1173  0.2806  0.2581
   17CHL1  H12A 1216   1.966   3.956   9.544 -0.0342  0.5501  0.3204
   17CHL1  H12B 1217   2.027   3.807   9.606 -1.1726  0.2604  1.0428
   17CHL1   C11 1218   1.977   3.951   9.758 -0.4376  0.2251  0.2055
   17CHL1  H11A 1219   1.960   4.060   9.771 -1.1785  0.2128 -0.5792
   17CHL1  H11B 1220   1.884   3.890   9.766  1.1499 -2.7760 -2.0576
   17CHL1    C9 1221   2.076   3.911   9.877  0.2276  0.2140 -0.6866
   17CHL1    H9 1222   2.084   3.801   9.863 -0.4038  0.2333 -1.2706
   17CHL1   C10 1223   2.020   3.945  10.015 -0.0402  0.1790  1.1721
   17CHL1   C19 1224   1.981   4.099  10.016 -0.2563  0.1686 -0.2616
   17CHL1  H19A 1225   1.944   4.136  10.114 -0.6175 -0.5724 -0.1149
   17CHL1  H19B 1226   2.063   4.167   9.985  0.0959  0.3915  1.1029
   17CHL1  H19C 1227   1.897   4.116   9.945 -0.3242  1.2202  0.0574
   17CHL1    C1 1228   1.885   3.869  10.043  0.0944  0.2819  0.3885
   17CHL1   H1A 1229   1.802   3.883   9.971 -1.0696 -2.4081  1.0947
   17CHL1   H1B 1230   1.919   3.764  10.033  0.6482  0.6478 -2.2473
   17CHL1    C2 1231   1.829   3.886  10.185  0.1059  0.3766  0.2924
   17CHL1   H2A 1232   1.750   3.808  10.197  1.5256 -1.0770  0.4496
   17CHL1   H2B 1233   1.785   3.987  10.198 -1.0948 -0.0728 -0.0899
   17CHL1   C20 1234   2.240   3.984   9.339  0.9121  0.1408 -0.0422
   17CHL1   H20 1235   2.236   4.094   9.352  1.0504  0.5015 -2.5201
   17CHL1   C21 1236   2.107   3.919   9.286 -0.0144 -0.7805 -0.6703
   17CHL1  H21A 1237   2.120   3.812   9.258 -1.2142 -0.7029 -1.6346
   17CHL1  H21B 1238   2.078   3.978   9.196  0.5025 -1.6809 -1.4486
   17CHL1  H21C 1239   2.021   3.920   9.356 -0.4200 -1.2660 -1.1556
   17CHL1   C22 1240   2.355   3.946   9.239  0.8587  0.1786  0.3062
   17CHL1  H22A 1241   2.450   3.987   9.278  1.0110 -1.4432  1.7344
   17CHL1  H22B 1242   2.374   3.837   9.231  0.5557  0.1601 -0.2616
   17CHL1   C23 1243   2.348   3.994   9.090  0.4863 -0.0510  0.6926
   17CHL1  H23A 1244   2.254   3.962   9.039  0.9084  0.2033 -0.2678
   17CHL1  H23B 1245   2.332   4.102   9.107 -2.9966 -0.5030  1.2278
   17CHL1   C24 1246   2.474   3.945   9.023  0.4288  0.3527  0.4027
   17CHL1  H24A 1247   2.565   3.973   9.081 -0.7836  2.0738  1.5700
   17CHL1  H24B 1248   2.477   3.835   9.019  0.0268  0.3020  1.2411
   17CHL1   C25 1249   2.498   4.009   8.883  0.2142  0.2895 -0.2702
   17CHL1   H25 1250   2.407   3.981   8.826  0.8082 -2.1921 -0.1284
   17CHL1   C26 1251   2.520   4.164   8.890 -0.5409  0.7811 -0.3115
   17CHL1  H26A 1252   2.441   4.239   8.915  0.8992  1.9054  1.0646
   17CHL1  H26B 1253   2.616   4.182   8.942 -0.3588  0.4703 -0.5363
   17CHL1  H26C 1254   2.542   4.182   8.782 -0.6966 -2.4543 -0.9675
   17CHL1   C27 1255   2.621   3.943   8.820  0.8902  0.5176  0.2631
   17CHL1  H27A 1256   2.635   3.956   8.710  0.7691 -3.9629 -0.4834
   17CHL1  H27B 1257   2.718   3.964   8.868  0.9933  0.0234  0.2745
   17CHL1  H27C 1258   2.602   3.834   8.824 -0.8796  0.7803  0.1132
   18CHL1    C3 1259   1.078   3.002  10.165  0.0662 -0.7640  0.1142
   18CHL1    H3 1260   1.187   2.981  10.171  0.6562  1.2985 -1.9199
   18CHL1    O3 1261   1.022   3.013  10.298  0.5503  0.2476 -0.2233
   18CHL1   H3' 1262   1.058   3.086  10.349 -0.1686 -0.8712  2.0459
   18CHL1    C4 1263   1.060   3.138  10.098 -0.6383 -0.3100 -0.7058
   18CHL1   H4A 1264   0.952   3.161  10.095 -0.4866  1.4210  2.6674
   18CHL1   H4B 1265   1.098   3.221  10.161 -3.0865  0.1632  0.2555
   18CHL1    C5 1266   1.119   3.136   9.964 -0.0682 -0.5587  0.3524
   18CHL1    C6 1267   1.221   3.229   9.941  0.7064  0.7792 -0.0276
   18CHL1    H6 1268   1.236   3.304  10.020 -3.0624  1.1309  0.5507
   18CHL1    C7 1269   1.281   3.243   9.808 -0.4996 -0.0893  0.6195
   18CHL1   H7A 1270   1.281   3.350   9.776 -0.6831 -0.0782  0.6540
   18CHL1   H7B 1271   1.388   3.222   9.830 -0.5155  1.7043  2.7676
   18CHL1    C8 1272   1.230   3.155   9.691 -0.5833 -0.5454  0.2554
   18CHL1    H8 1273   1.138   3.200   9.648  0.1155 -1.6171 -2.5975
   18CHL1   C14 1274   1.338   3.133   9.584  0.3791 -0.0302 -0.1378
   18CHL1   H14 1275   1.422   3.092   9.643 -0.1286 -0.5746  0.2161
   18CHL1   C15 1276   1.409   3.245   9.516 -0.2564 -0.1033 -0.5495
   18CHL1  H15A 1277   1.330   3.322   9.502  2.2918  2.6234 -1.2589
   18CHL1  H15B 1278   1.487   3.286   9.583 -1.1006 -1.4992  1.3651
   18CHL1   C16 1279   1.462   3.193   9.378  0.2019 -0.8988  0.3731
   18CHL1  H16A 1280   1.431   3.269   9.303  2.7192 -1.1295 -1.0231
   18CHL1  H16B 1281   1.573   3.203   9.374  0.0345  2.7789  1.2740
   18CHL1   C17 1282   1.417   3.039   9.372  0.2723 -0.5372 -1.4402
   18CHL1   H17 1283   1.499   2.983   9.421 -0.4487  0.0598  0.5618
   18CHL1   C13 1284   1.296   3.036   9.471  0.3413  0.9863 -0.2130
   18CHL1   C18 1285   1.173   3.097   9.399  0.3557  0.2169  0.7137
   18CHL1  H18A 1286   1.206   3.191   9.349 -0.2450  0.0522 -0.0215
   18CHL1  H18B 1287   1.131   3.038   9.315  1.6274  0.7883 -0.3622
   18CHL1  H18C 1288   1.088   3.116   9.468  0.1048 -1.7390  0.9997
   18CHL1   C12 1289   1.263   2.902   9.536  0.2352 -0.0247 -0.0757
   18CHL1  H12A 1290   1.223   2.832   9.460  0.2619  0.4587 -0.5390
   18CHL1  H12B 1291   1.352   2.853   9.581 -0.1728  0.9705  1.9288
   18CHL1   C11 1292   1.151   2.916   9.637  0.5198 -0.1506  0.0767
   18CHL1  H11A 1293   1.063   2.947   9.577  0.9184 -1.4394 -1.2232
   18CHL1  H11B 1294   1.133   2.824   9.697  1.3434 -0.1011  0.4239
   18CHL1    C9 1295   1.195   3.015   9.751 -0.3484 -0.5044  0.0302
   18CHL1    H9 1296   1.286   2.968   9.793 -0.6125 -2.5496 -1.4986
   18CHL1   C10 1297   1.086   3.024   9.866 -0.4727 -1.1320  0.0587
   18CHL1   C19 1298   0.952   3.047   9.796 -0.4128  0.3912 -0.2514
   18CHL1  H19A 1299   0.878   3.063   9.877 -0.6581 -1.4719 -0.0737
   18CHL1  H19B 1300   0.939   3.141   9.737  0.6771  1.4428  1.1087
   18CHL1  H19C 1301   0.912   2.956   9.746  1.1551 -0.6590  0.3054
   18CHL1    C1 1302   1.069   2.895   9.944 -0.2231 -0.0693  0.2081
   18CHL1   H1A 1303   1.015   2.825   9.878 -0.5405  0.8789 -0.5600
   18CHL1   H1B 1304   1.175   2.865   9.956 -0.3910 -0.9959 -0.5820
   18CHL1    C2 1305   0.998   2.897  10.080 -0.0678  0.3678 -0.1233
   18CHL1   H2A 1306   0.993   2.797  10.127  0.1946 -0.8686 -2.5566
   18CHL1   H2B 1307   0.890   2.922  10.070  0.4646  2.5174 -1.2371
   18CHL1   C20 1308   1.409   2.997   9.226  0.4243 -0.8849  0.2054
   18CHL1   H20 1309   1.315   3.034   9.179  0.1064 -1.9412 -0.0214
   18CHL1   C21 1310   1.369   2.849   9.219 -0.7428  0.0360 -0.0601
   18CHL1  H21A 1311   1.431   2.773   9.273 -0.6544  0.7237  0.8199
   18CHL1  H21B 1312   1.369   2.802   9.118  0.5242  2.4109 -1.2391
   18CHL1  H21C 1313   1.265   2.825   9.250 -0.2786  0.7214  2.1991
   18CHL1   C22 1314   1.537   3.017   9.135  0.0565  0.3033 -0.1157
   18CHL1  H22A 1315   1.620   2.975   9.196  0.0062  1.9223  1.1150
   18CHL1  H22B 1316   1.532   2.953   9.044 -2.3315  1.8155 -1.1366
   18CHL1   C23 1317   1.576   3.153   9.078 -0.2375  0.3978  0.0789
   18CHL1  H23A 1318   1.489   3.180   9.016 -1.3732 -0.9513  1.0274
   18CHL1  H23B 1319   1.591   3.217   9.168 -1.8723  0.6939  0.1708
   18CHL1   C24 1320   1.702   3.148   8.977 -0.1035  0.4512 -0.1448
   18CHL1  H24A 1321   1.796   3.150   9.037  0.0489 -1.3728 -0.2431
   18CHL1  H24B 1322   1.708   3.046   8.932 -0.5374 -0.1071  1.0155
   18CHL1   C25 1323   1.713   3.254   8.864  0.0203 -0.9856 -0.1213
   18CHL1   H25 1324   1.613   3.266   8.816  0.2116 -3.0383 -1.1465
   18CHL1   C26 1325   1.751   3.389   8.923 -0.1985 -0.6549 -0.5832
   18CHL1  H26A 1326   1.723   3.470   8.853  0.5674  0.2042  0.0821
   18CHL1  H26B 1327   1.692   3.401   9.016 -0.1641 -0.2939 -0.6057
   18CHL1  H26C 1328   1.857   3.399   8.957 -0.7546 -1.6743  1.5994
   18CHL1   C27 1329   1.817   3.220   8.757 -0.4914  0.6931 -0.4360
   18CHL1  H27A 1330   1.797   3.128   8.700  3.9684 -0.6037 -0.2685
   18CHL1  H27B 1331   1.821   3.304   8.684 -1.6342  1.8025  0.7087
   18CHL1  H27C 1332   1.916   3.212   8.808 -1.3684 -0.6626  1.1636
   19CHL1    C3 1333   4.868   5.582  10.244  0.5606 -0.0829 -0.1145
   19CHL1    H3 1334   4.796   5.498  10.238  1.5803 -1.1544  1.8241
   19CHL1    O3 1335   4.885   5.608  10.383 -0.4261  0.2227  0.0549
   19CHL1   H3' 1336   4.945   5.683  10.383 -0.1933  0.0403  0.4166
   19CHL1    C4 1337   4.997   5.535  10.169  0.9075  0.1964 -0.4113
   19CHL1   H4A 1338   5.069   5.612  10.204  0.5277 -0.1580  1.2722
   19CHL1   H4B 1339   5.023   5.438  10.217  0.2912  0.6551  0.8943
   19CHL1    C5 1340   4.979   5.517  10.020  0.1950  0.0173 -0.3144
   19CHL1    C6 1341   5.019   5.414   9.942  0.7468  0.4394  0.6466
   19CHL1    H6 1342   5.063   5.325   9.988  0.2113 -0.7072 -0.9717
   19CHL1    C7 1343   4.998   5.405   9.798  0.1443  0.7078 -0.1445
   19CHL1   H7A 1344   5.082   5.359   9.742 -0.8232  0.6190 -1.5823
   19CHL1   H7B 1345   4.920   5.329   9.773  3.5493 -3.4106  0.5415
   19CHL1    C8 1346   4.975   5.534   9.734 -0.2145  0.3123  0.9486
   19CHL1    H8 1347   5.075   5.581   9.736  0.0580 -0.2800  2.0084
   19CHL1   C14 1348   4.920   5.513   9.588  0.1609 -0.3118 -0.1787
   19CHL1   H14 1349   4.817   5.475   9.605  0.5299 -0.9570  0.6701
   19CHL1   C15 1350   4.991   5.415   9.490 -0.5795  0.2022 -0.1911
   19CHL1  H15A 1351   5.099   5.439   9.503 -0.2502 -0.2215 -1.9460
   19CHL1  H15B 1352   4.960   5.314   9.524 -0.0186 -0.8804 -2.6762
   19CHL1   C16 1353   4.936   5.458   9.351 -0.2903 -0.0943 -0.3554
   19CHL1  H16A 1354   5.030   5.473   9.295 -0.5594 -1.1663 -1.1234
   19CHL1  H16B 1355   4.875   5.384   9.296 -1.0984 -1.4421  2.1838
   19CHL1   C17 1356   4.848   5.583   9.379  0.2711 -0.2341  0.5303
   19CHL1   H17 1357   4.750   5.537   9.403  1.8570 -3.2724  1.8893
   19CHL1   C13 1358   4.896   5.637   9.513 -0.1407  0.7455  0.3331
   19CHL1   C18 1359   5.024   5.711   9.491  0.2597 -0.1979 -0.1546
   19CHL1  H18A 1360   5.011   5.793   9.417  3.3180  1.4864  0.9558
   19CHL1  H18B 1361   5.059   5.755   9.586  0.3135 -1.4314  0.4162
   19CHL1  H18C 1362   5.113   5.652   9.458  2.2170  3.0086 -1.1054
   19CHL1   C12 1363   4.787   5.721   9.583 -0.2384  0.8067  0.5670
   19CHL1  H12A 1364   4.780   5.826   9.547 -0.0185  0.9793  1.0115
   19CHL1  H12B 1365   4.692   5.664   9.577  0.7282 -1.1217  2.2810
   19CHL1   C11 1366   4.828   5.738   9.732  0.1311  0.0591  0.4148
   19CHL1  H11A 1367   4.915   5.807   9.726 -0.8381  1.3268  0.4622
   19CHL1  H11B 1368   4.745   5.800   9.772 -1.7717 -0.6181 -2.2307
   19CHL1    C9 1369   4.876   5.620   9.814 -0.3256  0.5643 -0.3701
   19CHL1    H9 1370   4.790   5.551   9.831 -0.1756  0.3943 -0.3043
   19CHL1   C10 1371   4.917   5.646   9.954 -0.4952  0.9510  0.0820
   19CHL1   C19 1372   5.034   5.749   9.950 -0.1851 -0.4580 -0.3248
   19CHL1  H19A 1373   5.100   5.743  10.039 -0.8589  0.9458  0.3079
   19CHL1  H19B 1374   5.103   5.742   9.863  0.9738 -1.3482  0.6323
   19CHL1  H19C 1375   4.999   5.854   9.943  0.7614 -0.1892 -1.5050
   19CHL1    C1 1376   4.795   5.695  10.031  0.2230 -0.5049  0.5530
   19CHL1   H1A 1377   4.760   5.790   9.984  0.0221 -0.6593  0.3908
   19CHL1   H1B 1378   4.714   5.620  10.020  0.7847 -1.1866  0.9640
   19CHL1    C2 1379   4.811   5.711  10.183 -0.6708 -0.5202  0.2211
   19CHL1   H2A 1380   4.709   5.727  10.226 -1.3648  0.0020 -1.5525
   19CHL1   H2B 1381   4.879   5.795  10.208 -1.7397  0.4868 -0.1384
   19CHL1   C20 1382   4.824   5.683   9.263  0.6086  0.2514  0.2285
   19CHL1   H20 1383   4.803   5.785   9.304 -1.8135 -0.2301  0.3527
   19CHL1   C21 1384   4.695   5.639   9.189 -0.2037  0.3147  0.0738
   19CHL1  H21A 1385   4.675   5.684   9.089 -1.1105 -1.5099 -0.6151
   19CHL1  H21B 1386   4.608   5.650   9.257 -0.6354 -1.9445 -0.0224
   19CHL1  H21C 1387   4.707   5.529   9.175 -1.5812  0.2342 -0.6045
   19CHL1   C22 1388   4.941   5.698   9.156  0.5009  0.1977 -0.6900
   19CHL1  H22A 1389   5.030   5.730   9.213  0.3336  1.2007 -0.9748
   19CHL1  H22B 1390   4.955   5.593   9.124 -0.9735  0.5290 -2.6352
   19CHL1   C23 1391   4.914   5.792   9.040 -0.4572 -0.5051  0.1884
   19CHL1  H23A 1392   4.829   5.747   8.985 -0.0659 -0.4828 -0.4346
   19CHL1  H23B 1393   4.880   5.896   9.062 -3.1208 -1.0369 -1.0388
   19CHL1   C24 1394   5.042   5.799   8.957 -0.0331 -0.8930  0.2653
   19CHL1  H24A 1395   5.124   5.839   9.020  0.1089 -0.1733 -0.3661
   19CHL1  H24B 1396   5.082   5.698   8.934 -2.0540 -1.2815 -1.8910
   19CHL1   C25 1397   5.024   5.899   8.842  0.4407 -0.0777 -0.3234
   19CHL1   H25 1398   4.924   5.879   8.797 -0.7570 -0.6614  2.4086
   19CHL1   C26 1399   5.030   6.044   8.878 -0.1482  0.4153  0.0095
   19CHL1  H26A 1400   5.109   6.078   8.949 -1.0182  2.6940 -0.0638
   19CHL1  H26B 1401   5.045   6.107   8.788 -0.7466 -0.6271 -0.8447
   19CHL1  H26C 1402   4.945   6.079   8.940  0.6187  1.4454  0.5066
   19CHL1   C27 1403   5.136   5.863   8.738  0.1456 -0.2061 -0.2337
   19CHL1  H27A 1404   5.118   5.922   8.646  0.7361  0.5726  0.1410
   19CHL1  H27B 1405   5.239   5.888   8.774 -0.2453  0.0369  0.7647
   19CHL1  H27C 1406   5.125   5.761   8.695  0.7074  0.4737 -2.0889
   20CHL1    C3 1407   6.273   6.137  10.303  0.0515 -0.3483  0.1072
   20CHL1    H3 1408   6.224   6.043  10.271  0.3515 -0.2876 -0.5495
   20CHL1    O3 1409   6.325   6.132  10.438 -0.0871  0.0762  0.6158
   20CHL1   H3' 1410   6.337   6.225  10.455 -1.2179  0.5407 -0.9552
   20CHL1    C4 1411   6.391   6.166  10.213 -0.8842  0.1179 -0.0495
   20CHL1   H4A 1412   6.441   6.263  10.234 -0.1336 -0.1723 -0.4690
   20CHL1   H4B 1413   6.467   6.091  10.243  0.5332  0.5266 -2.3285
   20CHL1    C5 1414   6.356   6.162  10.066  0.0048  0.2904 -0.1167
   20CHL1    C6 1415   6.415   6.075   9.978  0.3973 -0.1259  0.6187
   20CHL1    H6 1416   6.479   5.996  10.022 -1.0505 -1.6430  0.1225
   20CHL1    C7 1417   6.377   6.069   9.832 -0.6610  0.0150 -0.0739
   20CHL1   H7A 1418   6.464   6.044   9.767  0.4548  2.0830  0.5326
   20CHL1   H7B 1419   6.312   5.981   9.816  0.5639 -0.5871 -2.1264
   20CHL1    C8 1420   6.303   6.197   9.781  0.1058  0.5269 -0.1034
   20CHL1    H8 1421   6.378   6.279   9.786  1.8119 -1.0075  0.7809
   20CHL1   C14 1422   6.243   6.174   9.646 -0.0364  0.7491 -0.3444
   20CHL1   H14 1423   6.166   6.095   9.660  1.1499 -0.5642 -0.9426
   20CHL1   C15 1424   6.321   6.117   9.529  0.0099 -0.1229 -0.0752
   20CHL1  H15A 1425   6.425   6.158   9.530  0.0938 -0.3258  1.0051
   20CHL1  H15B 1426   6.333   6.006   9.530 -3.4428 -0.6433 -1.8743
   20CHL1   C16 1427   6.249   6.152   9.398 -0.2400  0.0385  0.2110
   20CHL1  H16A 1428   6.326   6.207   9.339  0.1588 -0.3217  0.3862
   20CHL1  H16B 1429   6.214   6.066   9.338 -0.2489  0.1049  0.1218
   20CHL1   C17 1430   6.134   6.243   9.447  0.1219 -0.1996  0.0034
   20CHL1   H17 1431   6.058   6.164   9.466  2.4269 -2.2811  1.1826
   20CHL1   C13 1432   6.172   6.293   9.593 -0.4372 -0.4732  0.7992
   20CHL1   C18 1433   6.271   6.405   9.577  0.1854 -0.4460 -0.1944
   20CHL1  H18A 1434   6.296   6.443   9.678 -0.4953  0.9253 -0.5141
   20CHL1  H18B 1435   6.356   6.375   9.512  0.7602 -1.8763  1.1622
   20CHL1  H18C 1436   6.229   6.501   9.539 -1.4261 -0.4327  1.4728
   20CHL1   C12 1437   6.047   6.316   9.685 -0.5118  0.9587  0.3422
   20CHL1  H12A 1438   5.988   6.399   9.640 -0.6639  1.1319  0.8594
   20CHL1  H12B 1439   5.988   6.222   9.683  2.4248 -1.0477  0.9315
   20CHL1   C11 1440   6.092   6.351   9.823  0.3936 -0.4086 -0.5360
   20CHL1  H11A 1441   6.137   6.452   9.816 -1.6235  0.5092 -0.7766
   20CHL1  H11B 1442   6.012   6.370   9.897 -0.1334 -0.4403 -1.0923
   20CHL1    C9 1443   6.185   6.241   9.882  0.2541 -0.3782  0.3520
   20CHL1    H9 1444   6.117   6.154   9.892 -1.7071  0.9474 -0.7024
   20CHL1   C10 1445   6.242   6.268  10.025 -0.0008 -0.7597 -0.5240
   20CHL1   C19 1446   6.316   6.412  10.031  0.4077 -0.0280  0.1498
   20CHL1  H19A 1447   6.347   6.442  10.134  0.8883 -0.1968  0.0549
   20CHL1  H19B 1448   6.397   6.414   9.956  0.1607  0.1291 -0.1173
   20CHL1  H19C 1449   6.250   6.491   9.989  1.7196  2.0818  1.7944
   20CHL1    C1 1450   6.129   6.257  10.130  0.1615  0.4311 -0.7422
   20CHL1   H1A 1451   6.064   6.347  10.121 -0.5239 -0.2167 -3.0454
   20CHL1   H1B 1452   6.067   6.169  10.104  1.8086 -1.4155  1.2282
   20CHL1    C2 1453   6.170   6.256  10.276 -0.6670  0.0233 -0.8373
   20CHL1   H2A 1454   6.079   6.247  10.340 -1.7088 -2.2453 -2.4819
   20CHL1   H2B 1455   6.220   6.354  10.287 -0.0007 -0.3409 -0.5568
   20CHL1   C20 1456   6.069   6.347   9.350  0.3797 -0.6252  0.3119
   20CHL1   H20 1457   6.059   6.446   9.400 -1.1859  1.5931 -3.8730
   20CHL1   C21 1458   5.918   6.308   9.323 -0.7334 -0.0611  0.2569
   20CHL1  H21A 1459   5.855   6.325   9.413 -0.1639  2.9982  0.1631
   20CHL1  H21B 1460   5.905   6.202   9.291  0.9128 -0.8951  2.1739
   20CHL1  H21C 1461   5.878   6.372   9.241 -1.4840 -1.5726 -0.5991
   20CHL1   C22 1462   6.145   6.367   9.216  0.2220 -0.3248  0.5342
   20CHL1  H22A 1463   6.168   6.265   9.177 -1.1331 -0.6041  0.4089
   20CHL1  H22B 1464   6.072   6.410   9.144  1.0537  0.9542  0.4375
   20CHL1   C23 1465   6.267   6.457   9.207  0.2707  0.0324  0.4118
   20CHL1  H23A 1466   6.237   6.562   9.223 -1.4173 -0.3676  0.0108
   20CHL1  H23B 1467   6.340   6.421   9.282  0.8237 -1.1484 -0.6442
   20CHL1   C24 1468   6.327   6.442   9.068 -0.3970  0.3932  0.1058
   20CHL1  H24A 1469   6.415   6.374   9.075 -0.5740 -0.0499 -1.4749
   20CHL1  H24B 1470   6.257   6.394   8.995  0.4218  1.0341 -1.1340
   20CHL1   C25 1471   6.356   6.565   8.995 -0.0035 -0.1673  0.3811
   20CHL1   H25 1472   6.418   6.632   9.059 -2.4953  1.5944  1.0696
   20CHL1   C26 1473   6.412   6.528   8.854 -0.1006  0.5133 -1.1276
   20CHL1  H26A 1474   6.435   6.617   8.792 -0.7268  0.3468 -1.6087
   20CHL1  H26B 1475   6.501   6.463   8.871 -0.2974  0.5633  0.2184
   20CHL1  H26C 1476   6.342   6.457   8.805  0.2155 -0.7239  0.1375
   20CHL1   C27 1477   6.231   6.647   8.955  0.0790 -0.1848  0.1014
   20CHL1  H27A 1478   6.261   6.698   8.861  1.9151  1.7759  1.6538
   20CHL1  H27B 1479   6.146   6.578   8.935  1.1078 -1.4854  0.0147
   20CHL1  H27C 1480   6.203   6.718   9.035 -0.2291  1.6283 -1.5594
   21CHL1    C3 1481   0.148   2.374  10.309  0.3037 -0.6895  0.2514
   21CHL1    H3 1482   0.051   2.418  10.275  1.4832  0.7719 -1.3840
   21CHL1    O3 1483   0.112   2.361  10.439 -0.1424  0.3345 -0.0662
   21CHL1   H3' 1484   0.200   2.350  10.475  0.6003  3.6994 -0.4867
   21CHL1    C4 1485   0.170   2.236  10.249  0.0522  0.0750  0.0066
   21CHL1   H4A 1486   0.266   2.200  10.291  0.7272  1.9600  0.1821
   21CHL1   H4B 1487   0.082   2.174  10.276  0.8926 -1.6833 -1.1267
   21CHL1    C5 1488   0.176   2.249  10.102 -0.5773  0.2229 -0.0947
   21CHL1    C6 1489   0.099   2.174  10.027 -0.2058 -0.1527  0.1180
   21CHL1    H6 1490   0.037   2.097  10.075 -0.9917 -1.0567 -2.2152
   21CHL1    C7 1491   0.098   2.177   9.878  1.0580  0.1671  0.2781
   21CHL1   H7A 1492   0.081   2.075   9.838 -2.3806  0.7983 -0.2246
   21CHL1   H7B 1493   0.011   2.237   9.842  1.0255 -0.6169 -1.0046
   21CHL1    C8 1494   0.226   2.248   9.823  0.3650 -0.4437  0.0589
   21CHL1    H8 1495   0.314   2.180   9.831  0.8862 -0.0133 -1.5007
   21CHL1   C14 1496   0.220   2.277   9.678  0.4196 -0.1375  0.8065
   21CHL1   H14 1497   0.125   2.334   9.673  0.6136  0.2157  1.1602
   21CHL1   C15 1498   0.191   2.161   9.589 -0.4150  1.2881  0.2291
   21CHL1  H15A 1499   0.273   2.087   9.602 -1.6080 -0.6014 -2.1710
   21CHL1  H15B 1500   0.090   2.114   9.597 -0.2342  0.4370 -1.8527
   21CHL1   C16 1501   0.211   2.225   9.452  0.4484 -0.5313  0.4182
   21CHL1  H16A 1502   0.265   2.155   9.384 -0.9419 -2.3190  1.0829
   21CHL1  H16B 1503   0.107   2.237   9.416  0.3941  1.8748  1.1646
   21CHL1   C17 1504   0.296   2.360   9.460 -0.0521 -0.8805 -0.4321
   21CHL1   H17 1505   0.227   2.442   9.431  1.7516  0.1045 -2.1435
   21CHL1   C13 1506   0.333   2.361   9.613 -0.3183  0.2496 -0.2014
   21CHL1   C18 1507   0.470   2.290   9.638  0.6162 -0.3031  0.3326
   21CHL1  H18A 1508   0.475   2.257   9.743 -0.9365  0.1758  0.5810
   21CHL1  H18B 1509   0.487   2.207   9.566  0.5022  0.3351 -0.4480
   21CHL1  H18C 1510   0.540   2.376   9.626  0.5343 -0.2210  0.4374
   21CHL1   C12 1511   0.332   2.497   9.681  0.5337  0.4608  0.1081
   21CHL1  H12A 1512   0.413   2.565   9.646  1.1382 -0.5193 -0.4257
   21CHL1  H12B 1513   0.234   2.547   9.664 -0.1639 -0.6263  0.8241
   21CHL1   C11 1514   0.347   2.479   9.829 -0.1269 -0.3757 -0.1340
   21CHL1  H11A 1515   0.451   2.447   9.852  0.8845 -0.0105 -3.5973
   21CHL1  H11B 1516   0.328   2.581   9.870 -0.0064 -0.2332 -0.4299
   21CHL1    C9 1517   0.241   2.382   9.900 -0.8601  0.1800  0.8832
   21CHL1    H9 1518   0.144   2.434   9.883  0.7198  2.3921 -2.7094
   21CHL1   C10 1519   0.270   2.354  10.052  0.1944 -0.2009 -0.3002
   21CHL1   C19 1520   0.416   2.302  10.075  0.2669  0.1037 -0.0694
   21CHL1  H19A 1521   0.429   2.214  10.008  2.4493 -1.1476  1.8781
   21CHL1  H19B 1522   0.490   2.378  10.042  0.1572  0.7366  1.0882
   21CHL1  H19C 1523   0.440   2.269  10.178  3.6178 -0.9471 -1.0550
   21CHL1    C1 1524   0.254   2.490  10.133  0.0353 -0.5459  0.2795
   21CHL1   H1A 1525   0.341   2.554  10.105 -0.1907 -0.6808 -0.8007
   21CHL1   H1B 1526   0.161   2.536  10.095  0.9895  0.8039 -0.5104
   21CHL1    C2 1527   0.258   2.479  10.281  0.9890 -0.1824  0.2430
   21CHL1   H2A 1528   0.245   2.575  10.336  0.7406  0.5249 -1.0089
   21CHL1   H2B 1529   0.356   2.445  10.321  0.4864 -0.9152  0.8775
   21CHL1   C20 1530   0.403   2.382   9.350 -0.5374  0.6136  0.0241
   21CHL1   H20 1531   0.474   2.296   9.356  1.5373  2.1630 -0.9520
   21CHL1   C21 1532   0.487   2.508   9.370  0.3816  0.6086  0.0586
   21CHL1  H21A 1533   0.428   2.601   9.369 -0.2324  0.2307  0.4369
   21CHL1  H21B 1534   0.569   2.512   9.294  0.0382 -0.4920 -0.4024
   21CHL1  H21C 1535   0.547   2.494   9.462  0.2724  1.2787  0.2347
   21CHL1   C22 1536   0.343   2.368   9.207 -0.2562  0.2016 -0.4739
   21CHL1  H22A 1537   0.280   2.276   9.204 -1.6785  1.1386 -0.5165
   21CHL1  H22B 1538   0.280   2.458   9.188  0.3524  1.0321  1.2844
   21CHL1   C23 1539   0.448   2.350   9.095  0.0855 -0.4428  0.4108
   21CHL1  H23A 1540   0.498   2.444   9.064 -0.3952 -0.4170 -0.3220
   21CHL1  H23B 1541   0.520   2.276   9.137  0.1071 -0.7055 -0.0820
   21CHL1   C24 1542   0.404   2.299   8.958 -0.1362 -0.1523 -0.4830
   21CHL1  H24A 1543   0.339   2.374   8.906 -1.6201 -1.3570 -0.4375
   21CHL1  H24B 1544   0.496   2.294   8.896  0.6385 -0.4528  0.6595
   21CHL1   C25 1545   0.340   2.159   8.954 -0.5588 -0.4627  0.4624
   21CHL1   H25 1546   0.387   2.101   9.036  1.7477  1.0703  0.3176
   21CHL1   C26 1547   0.190   2.154   8.957 -0.2548 -0.2143  0.4603
   21CHL1  H26A 1548   0.144   2.053   8.964  0.5541 -0.5202  1.7826
   21CHL1  H26B 1549   0.148   2.214   9.041  0.1834  2.0537 -0.8402
   21CHL1  H26C 1550   0.146   2.190   8.862 -1.0031 -3.9882 -0.7752
   21CHL1   C27 1551   0.383   2.081   8.826  0.2453  0.2147 -0.0599
   21CHL1  H27A 1552   0.379   2.147   8.737  3.6519  1.3052  0.4492
   21CHL1  H27B 1553   0.491   2.057   8.839 -0.1224 -0.0930  3.6619
   21CHL1  H27C 1554   0.332   1.983   8.813 -1.4117  1.1139 -0.6569
   22CHL1    C3 1555   6.156   3.639  10.057  0.1062  0.6122  0.1161
   22CHL1    H3 1556   6.058   3.672  10.015  1.3021  1.6308 -2.0066
   22CHL1    O3 1557   6.159   3.633  10.199  0.2491 -0.1730 -0.9188
   22CHL1   H3' 1558   6.250   3.624  10.228 -0.4103 -0.0335  1.3467
   22CHL1    C4 1559   6.190   3.497  10.008 -0.2785  0.0477 -0.0416
   22CHL1   H4A 1560   6.294   3.477  10.041  0.0456  0.5836 -0.7087
   22CHL1   H4B 1561   6.111   3.430  10.048 -0.4772  0.4519  0.2469
   22CHL1    C5 1562   6.184   3.501   9.859 -0.0590 -0.1729  0.4782
   22CHL1    C6 1563   6.091   3.431   9.784  0.3271 -0.6044 -0.1193
   22CHL1    H6 1564   6.027   3.360   9.839  1.2031 -2.2805 -1.1483
   22CHL1    C7 1565   6.095   3.432   9.634  0.1440  0.4150  0.1924
   22CHL1   H7A 1566   6.088   3.322   9.618  1.4882 -0.1609  2.9141
   22CHL1   H7B 1567   6.001   3.473   9.592  1.5466  1.3358 -2.2653
   22CHL1    C8 1568   6.228   3.491   9.577 -0.1016  0.0233 -0.5093
   22CHL1    H8 1569   6.302   3.419   9.620  1.4815  2.4269  1.0065
   22CHL1   C14 1570   6.226   3.481   9.427 -0.1249 -0.4282 -0.1032
   22CHL1   H14 1571   6.142   3.540   9.385 -0.5584 -1.6091 -0.9483
   22CHL1   C15 1572   6.202   3.346   9.364 -0.0361  0.2324  0.3378
   22CHL1  H15A 1573   6.274   3.276   9.410  1.4523  2.5584  1.7420
   22CHL1  H15B 1574   6.101   3.302   9.375  1.2385 -2.5726  1.6067
   22CHL1   C16 1575   6.247   3.358   9.219 -0.0075 -0.1030  0.3982
   22CHL1  H16A 1576   6.321   3.276   9.202 -1.4955 -0.9819 -2.2196
   22CHL1  H16B 1577   6.170   3.337   9.143  1.9734 -0.7511 -1.5462
   22CHL1   C17 1578   6.316   3.500   9.218  0.2861 -0.0564  0.8494
   22CHL1   H17 1579   6.237   3.568   9.179 -0.6987 -1.7208 -0.1577
   22CHL1   C13 1580   6.352   3.538   9.361  0.4997  0.1389 -0.4368
   22CHL1   C18 1581   6.486   3.464   9.408  0.2320 -1.0674 -0.6630
   22CHL1  H18A 1582   6.571   3.513   9.354  1.7896 -0.9305  1.7663
   22CHL1  H18B 1583   6.486   3.471   9.519  2.8176 -0.7572 -0.6051
   22CHL1  H18C 1584   6.477   3.357   9.378  2.0403 -1.1731 -0.9619
   22CHL1   C12 1585   6.352   3.687   9.395 -0.2193  0.4890  0.5305
   22CHL1  H12A 1586   6.431   3.747   9.345 -0.1317 -1.3801 -1.7385
   22CHL1  H12B 1587   6.252   3.723   9.361  0.0906 -0.6955 -1.8096
   22CHL1   C11 1588   6.346   3.705   9.550  0.5127  0.4989  0.0468
   22CHL1  H11A 1589   6.452   3.675   9.567  1.3804  1.2792 -3.2171
   22CHL1  H11B 1590   6.332   3.809   9.585  0.9542  0.3826  0.5884
   22CHL1    C9 1591   6.245   3.623   9.634  0.5400 -0.5999 -0.0557
   22CHL1    H9 1592   6.150   3.682   9.633  1.3664  0.7848 -0.2976
   22CHL1   C10 1593   6.278   3.603   9.792  0.4447 -0.0139 -0.0012
   22CHL1   C19 1594   6.425   3.548   9.824  0.5973  0.5949  0.3260
   22CHL1  H19A 1595   6.450   3.543   9.932 -1.1587 -1.5154  0.7115
   22CHL1  H19B 1596   6.464   3.456   9.775 -0.2494  0.1369  0.4817
   22CHL1  H19C 1597   6.497   3.617   9.775 -1.2468  2.0514 -0.4628
   22CHL1    C1 1598   6.259   3.744   9.857 -0.3009 -0.2413 -0.1602
   22CHL1   H1A 1599   6.334   3.820   9.824 -1.0719 -0.1875 -1.8718
   22CHL1   H1B 1600   6.164   3.788   9.821 -0.0282  1.0320  0.6205
   22CHL1    C2 1601   6.254   3.741  10.010  1.0933 -0.0944 -0.1440
   22CHL1   H2A 1602   6.230   3.843  10.046 -1.4265 -0.5630 -0.3515
   22CHL1   H2B 1603   6.354   3.710  10.049  1.4197 -0.0682 -0.9435
   22CHL1   C20 1604   6.430   3.507   9.113  0.2087 -0.0535  0.4308
   22CHL1   H20 1605   6.514   3.447   9.153 -0.9225 -1.7202  0.3880
   22CHL1   C21 1606   6.477   3.650   9.099 -0.2173 -0.7784 -0.8745
   22CHL1  H21A 1607   6.388   3.703   9.060 -0.1491 -1.9658 -2.7494
   22CHL1  H21B 1608   6.563   3.652   9.028  0.7546 -1.0554  0.2480
   22CHL1  H21C 1609   6.523   3.694   9.190 -0.6239 -0.2469 -0.9238
   22CHL1   C22 1610   6.373   3.438   8.982 -0.1971  0.5839 -0.0952
   22CHL1  H22A 1611   6.378   3.328   8.996 -0.1706  0.6371  0.3343
   22CHL1  H22B 1612   6.269   3.475   8.978 -0.2095  0.5805  0.1843
   22CHL1   C23 1613   6.446   3.469   8.853  0.1991 -0.0596 -0.2555
   22CHL1  H23A 1614   6.383   3.439   8.767 -0.9024  0.6283  0.2984
   22CHL1  H23B 1615   6.453   3.579   8.843 -1.1187  0.1833  1.1195
   22CHL1   C24 1616   6.594   3.414   8.846 -0.5451  0.5398 -0.6599
   22CHL1  H24A 1617   6.646   3.402   8.943 -0.7340  0.9208 -0.5076
   22CHL1  H24B 1618   6.590   3.312   8.802  1.1930 -0.2124  0.7770
   22CHL1   C25 1619   6.691   3.487   8.748 -0.0230 -0.1966 -0.6787
   22CHL1   H25 1620   6.699   3.591   8.784  0.0260 -0.9495  1.6748
   22CHL1   C26 1621   6.828   3.416   8.778  0.2433  0.0248  0.7355
   22CHL1  H26A 1622   6.899   3.485   8.728  0.8308  0.8002  2.5599
   22CHL1  H26B 1623   6.862   3.403   8.883  1.4576 -1.4664  0.1959
   22CHL1  H26C 1624   6.820   3.315   8.731  0.3718  0.1486  0.4474
   22CHL1   C27 1625   6.646   3.478   8.606  0.1462 -0.0861 -0.3158
   22CHL1  H27A 1626   6.620   3.376   8.571  0.4181 -0.0081 -0.7561
   22CHL1  H27B 1627   6.553   3.536   8.590  1.0244  1.2012 -0.9266
   22CHL1  H27C 1628   6.717   3.515   8.530  3.0036  0.1522  2.2695
   23CHL1    C3 1629   2.693   6.371  10.287 -0.1735 -0.3240 -0.2529
   23CHL1    H3 1630   2.727   6.266  10.296  0.6533 -0.1386 -1.0720
   23CHL1    O3 1631   2.645   6.414  10.416 -0.1691  0.2227 -0.3040
   23CHL1   H3' 1632   2.617   6.506  10.412 -0.8593  0.0999  1.1786
   23CHL1    C4 1633   2.808   6.458  10.234 -0.1569 -0.0075 -0.3967
   23CHL1   H4A 1634   2.805   6.565  10.264  1.0695 -0.1276  0.2008
   23CHL1   H4B 1635   2.892   6.420  10.296  1.1012 -0.4405 -2.2847
   23CHL1    C5 1636   2.833   6.451  10.084  1.1359  0.2603 -0.8378
   23CHL1    C6 1637   2.957   6.449  10.038 -0.2823 -1.1714 -0.5426
   23CHL1    H6 1638   3.040   6.466  10.107 -2.0505  0.7506  1.2277
   23CHL1    C7 1639   3.006   6.434   9.900  0.1793  0.4255  0.7071
   23CHL1   H7A 1640   3.067   6.527   9.889  0.2502  0.3427  0.3933
   23CHL1   H7B 1641   3.071   6.345   9.886 -1.0349 -0.3518 -0.1765
   23CHL1    C8 1642   2.887   6.448   9.796 -0.0832  0.0060  0.2051
   23CHL1    H8 1643   2.894   6.559   9.789  0.8386 -0.1357 -1.7615
   23CHL1   C14 1644   2.912   6.388   9.663  0.5302 -0.3682  0.9263
   23CHL1   H14 1645   2.905   6.277   9.672 -1.0290 -0.1950  2.6480
   23CHL1   C15 1646   3.045   6.412   9.598 -0.4658  1.2604  0.5792
   23CHL1  H15A 1647   3.072   6.519   9.605  0.1401  1.2431 -1.0118
   23CHL1  H15B 1648   3.122   6.346   9.644 -0.3142 -0.1630 -1.5525
   23CHL1   C16 1649   3.026   6.385   9.443  0.0830  0.2210 -0.8590
   23CHL1  H16A 1650   3.066   6.471   9.386  0.3812 -0.2405 -1.3494
   23CHL1  H16B 1651   3.085   6.295   9.417 -1.2961 -0.6946 -0.9123
   23CHL1   C17 1652   2.871   6.350   9.427  1.0004 -0.7324 -0.0589
   23CHL1   H17 1653   2.879   6.240   9.444 -1.3400 -0.6404  2.2058
   23CHL1   C13 1654   2.806   6.413   9.550  0.1195 -0.4860 -1.2628
   23CHL1   C18 1655   2.800   6.566   9.528  0.2939  0.6997 -0.7693
   23CHL1  H18A 1656   2.773   6.625   9.618 -2.1629 -1.7717  0.2436
   23CHL1  H18B 1657   2.901   6.610   9.510  0.0877  1.3871 -0.2763
   23CHL1  H18C 1658   2.739   6.584   9.437 -0.4320  0.3467 -0.3654
   23CHL1   C12 1659   2.671   6.350   9.596 -0.8078 -0.1255  0.0424
   23CHL1  H12A 1660   2.592   6.366   9.520 -0.8645  0.7826  0.2857
   23CHL1  H12B 1661   2.698   6.244   9.617  1.2947  0.6139  1.3457
   23CHL1   C11 1662   2.628   6.406   9.740  0.4920 -0.4480  0.4704
   23CHL1  H11A 1663   2.585   6.508   9.737  2.6330  0.7165  3.7756
   23CHL1  H11B 1664   2.545   6.345   9.781  1.6426 -0.6181  2.7317
   23CHL1    C9 1665   2.752   6.402   9.841  0.7064  0.0091  0.1447
   23CHL1    H9 1666   2.763   6.291   9.848 -0.1823 -0.1542 -0.8965
   23CHL1   C10 1667   2.713   6.441   9.985 -0.1658  0.2859  0.7282
   23CHL1   C19 1668   2.643   6.589   9.979  0.6939  0.3845  0.8195
   23CHL1  H19A 1669   2.539   6.567   9.947  0.7030  1.0657  0.3062
   23CHL1  H19B 1670   2.648   6.646  10.075  0.4642  0.4602  0.7861
   23CHL1  H19C 1671   2.689   6.656   9.904  1.9909  1.1277  2.2119
   23CHL1    C1 1672   2.623   6.334  10.044 -0.2658  0.0460  0.1074
   23CHL1   H1A 1673   2.533   6.329   9.979 -2.4462 -1.0132  2.9986
   23CHL1   H1B 1674   2.676   6.237  10.036  1.1977  0.7697  0.6916
   23CHL1    C2 1675   2.575   6.374  10.189 -0.2326 -0.5498  0.1444
   23CHL1   H2A 1676   2.505   6.293  10.220  0.1504 -0.6796  0.6806
   23CHL1   H2B 1677   2.520   6.469  10.200  0.4926 -0.2654  1.6269
   23CHL1   C20 1678   2.810   6.364   9.287  0.3867 -0.1694  0.3117
   23CHL1   H20 1679   2.784   6.472   9.281 -1.6413 -0.5372  1.5013
   23CHL1   C21 1680   2.689   6.271   9.262 -0.3271 -0.4588 -0.7135
   23CHL1  H21A 1681   2.642   6.310   9.169  0.8196  1.1748 -0.6439
   23CHL1  H21B 1682   2.619   6.270   9.348  0.2702 -0.8984 -0.2201
   23CHL1  H21C 1683   2.724   6.167   9.242 -2.7318 -1.5343  0.3609
   23CHL1   C22 1684   2.911   6.334   9.177 -0.5558  0.4548 -0.0996
   23CHL1  H22A 1685   3.001   6.398   9.185 -1.5696  2.0854 -1.1131
   23CHL1  H22B 1686   2.932   6.226   9.181 -1.4106  0.3188  1.3412
   23CHL1   C23 1687   2.856   6.362   9.035  0.4478  0.3335  0.1837
   23CHL1  H23A 1688   2.769   6.294   9.018 -0.9713  2.0523  0.2543
   23CHL1  H23B 1689   2.818   6.466   9.035 -0.0560  0.1961  2.2766
   23CHL1   C24 1690   2.951   6.329   8.920  0.4663  0.3288 -0.0087
   23CHL1  H24A 1691   3.026   6.411   8.918  0.2323  0.5874  1.0838
   23CHL1  H24B 1692   2.998   6.233   8.949 -1.2552 -0.3354  0.7240
   23CHL1   C25 1693   2.878   6.328   8.787 -0.9275  0.0368 -0.4865
   23CHL1   H25 1694   2.806   6.244   8.795  0.2490 -1.2468 -2.7085
   23CHL1   C26 1695   2.803   6.458   8.751 -0.7512  0.3717 -0.1110
   23CHL1  H26A 1696   2.886   6.532   8.745  1.2796 -1.7786 -0.0884
   23CHL1  H26B 1697   2.740   6.446   8.661  0.3328 -1.9211 -0.6499
   23CHL1  H26C 1698   2.724   6.494   8.820 -1.0184  1.7645 -1.1150
   23CHL1   C27 1699   2.967   6.291   8.673 -0.0465 -0.3830  0.1175
   23CHL1  H27A 1700   3.036   6.208   8.703  0.7311  0.0664 -0.3864
   23CHL1  H27B 1701   2.920   6.255   8.579 -0.9544 -0.5499  0.6230
   23CHL1  H27C 1702   3.049   6.362   8.650 -0.2972  0.4163  1.5894
   24CHL1    C3 1703   4.878   6.249  10.074  0.6781  0.2033 -0.0017
   24CHL1    H3 1704   4.800   6.326  10.089  0.6446 -0.1945  2.1608
   24CHL1    O3 1705   4.927   6.213  10.203 -0.0615  0.7460  0.2861
   24CHL1   H3' 1706   5.005   6.161  10.183  0.3705  0.7987  1.6776
   24CHL1    C4 1707   4.817   6.123  10.005 -0.2379  0.8395  0.1375
   24CHL1   H4A 1708   4.899   6.049  10.014  0.7165  1.9614  0.9570
   24CHL1   H4B 1709   4.733   6.089  10.069 -0.2465 -0.5756 -0.5916
   24CHL1    C5 1710   4.767   6.146   9.867 -0.3213  0.5444 -0.6012
   24CHL1    C6 1711   4.643   6.115   9.833 -0.3060 -0.2332  0.1162
   24CHL1    H6 1712   4.575   6.060   9.900  0.4218 -0.1116  0.9596
   24CHL1    C7 1713   4.588   6.139   9.694  0.0555  0.1784  0.0103
   24CHL1   H7A 1714   4.528   6.053   9.658 -2.4405  1.0653  1.8159
   24CHL1   H7B 1715   4.517   6.222   9.677 -0.4508 -0.8088 -3.3558
   24CHL1    C8 1716   4.704   6.155   9.587 -0.2135 -0.2058 -0.1373
   24CHL1    H8 1717   4.749   6.054   9.572 -1.5529 -1.0682  1.3405
   24CHL1   C14 1718   4.649   6.192   9.451  0.0458 -0.1090 -0.7141
   24CHL1   H14 1719   4.597   6.287   9.476  1.3012  0.6095 -0.7520
   24CHL1   C15 1720   4.541   6.112   9.377 -0.5104 -0.4193 -1.6354
   24CHL1  H15A 1721   4.567   6.004   9.368  0.4018 -0.5606  1.4776
   24CHL1  H15B 1722   4.442   6.132   9.423 -0.3090 -1.0713 -0.9139
   24CHL1   C16 1723   4.535   6.182   9.240  0.1355 -0.1240 -0.1257
   24CHL1  H16A 1724   4.524   6.096   9.170  0.0645  0.7428 -1.1930
   24CHL1  H16B 1725   4.444   6.246   9.235 -0.0044 -0.3852 -1.6203
   24CHL1   C17 1726   4.671   6.261   9.223 -0.3941 -0.0320 -0.3231
   24CHL1   H17 1727   4.654   6.370   9.239  1.4399  0.3798 -0.9043
   24CHL1   C13 1728   4.759   6.217   9.342  0.1651 -0.1329  0.1851
   24CHL1   C18 1729   4.830   6.081   9.310  0.2721  1.2565  0.1283
   24CHL1  H18A 1730   4.762   6.010   9.258  1.7454  0.9461 -1.4475
   24CHL1  H18B 1731   4.908   6.098   9.233  1.4495 -1.1875  0.6829
   24CHL1  H18C 1732   4.876   6.046   9.404 -0.2847 -0.8933 -0.3258
   24CHL1   C12 1733   4.854   6.329   9.394  0.1613 -0.2948  0.2610
   24CHL1  H12A 1734   4.933   6.360   9.323  1.0948 -0.8967  1.0033
   24CHL1  H12B 1735   4.809   6.428   9.415 -1.2455 -0.4278 -1.9075
   24CHL1   C11 1736   4.914   6.293   9.533  0.3356  0.5165 -1.0132
   24CHL1  H11A 1737   4.973   6.202   9.508  1.0618  0.7035 -0.0253
   24CHL1  H11B 1738   4.978   6.371   9.578 -1.3033 -0.2010  3.0375
   24CHL1    C9 1739   4.808   6.258   9.641  0.6816 -0.4557 -0.0778
   24CHL1    H9 1740   4.753   6.354   9.652  0.4206 -0.4562 -1.1770
   24CHL1   C10 1741   4.871   6.216   9.779 -0.3177 -0.3952 -0.3976
   24CHL1   C19 1742   4.989   6.110   9.750  0.3867  0.4125  0.2281
   24CHL1  H19A 1743   5.022   6.068   9.848 -2.7329 -0.2911  1.0683
   24CHL1  H19B 1744   4.954   6.027   9.686  1.6952 -0.2247  0.3001
   24CHL1  H19C 1745   5.083   6.156   9.712  0.3969 -0.2280 -0.5526
   24CHL1    C1 1746   4.936   6.339   9.857  0.0398  0.2891  0.1804
   24CHL1   H1A 1747   5.017   6.380   9.793  1.6150 -2.6891  0.0938
   24CHL1   H1B 1748   4.864   6.423   9.866 -1.2619 -0.7701 -0.0870
   24CHL1    C2 1749   4.994   6.303   9.993  1.3118  0.1679  0.3855
   24CHL1   H2A 1750   5.034   6.397  10.035 -1.3380  2.9598 -2.7384
   24CHL1   H2B 1751   5.073   6.227   9.979 -0.0798 -1.3719  0.5214
   24CHL1   C20 1752   4.730   6.251   9.078 -0.0591  0.0767 -0.1193
   24CHL1   H20 1753   4.757   6.144   9.059 -0.8076 -0.5724  2.1318
   24CHL1   C21 1754   4.863   6.330   9.069 -0.1771 -0.1792  0.3504
   24CHL1  H21A 1755   4.907   6.314   8.968 -1.1575 -1.1608  0.0552
   24CHL1  H21B 1756   4.942   6.290   9.136  1.5671  1.6002 -0.5559
   24CHL1  H21C 1757   4.849   6.437   9.092 -0.3495  0.3581 -1.9846
   24CHL1   C22 1758   4.627   6.313   8.977 -0.1947  0.2750 -0.2057
   24CHL1  H22A 1759   4.525   6.275   9.000  1.0281 -2.1341  1.8369
   24CHL1  H22B 1760   4.614   6.422   8.988 -2.2950 -0.0988  1.6514
   24CHL1   C23 1761   4.652   6.284   8.829 -0.5214  0.2940 -0.0506
   24CHL1  H23A 1762   4.573   6.335   8.769 -1.2326  0.7111  1.2013
   24CHL1  H23B 1763   4.750   6.323   8.796 -0.4488 -0.5702 -0.8761
   24CHL1   C24 1764   4.648   6.136   8.783  0.8400  0.3778  0.8038
   24CHL1  H24A 1765   4.718   6.072   8.842  1.3668  1.6870  1.6268
   24CHL1  H24B 1766   4.546   6.098   8.806  1.1551 -0.4948  0.8074
   24CHL1   C25 1767   4.678   6.116   8.627  0.1669 -0.2679 -0.8108
   24CHL1   H25 1768   4.772   6.164   8.592  0.6564 -0.5150  0.1147
   24CHL1   C26 1769   4.703   5.969   8.591 -0.1244 -0.4310  0.9142
   24CHL1  H26A 1770   4.724   5.960   8.482  0.4278 -0.2453  0.9977
   24CHL1  H26B 1771   4.786   5.921   8.647  1.0057  0.0115 -0.3181
   24CHL1  H26C 1772   4.612   5.913   8.619  0.5611 -2.5436 -0.7122
   24CHL1   C27 1773   4.560   6.169   8.549 -0.0748 -0.3670  0.4678
   24CHL1  H27A 1774   4.465   6.143   8.601 -0.4825  0.0831 -0.0457
   24CHL1  H27B 1775   4.562   6.280   8.551 -1.8011 -0.3234  1.1495
   24CHL1  H27C 1776   4.551   6.135   8.443 -1.1765  1.6377 -0.1243
   25CHL1    C3 1777   5.945   0.385  10.531 -0.6480 -0.0514  0.0970
   25CHL1    H3 1778   6.030   0.342  10.473 -1.5774 -1.9518  0.0897
   25CHL1    O3 1779   5.955   0.327  10.660 -0.4286  0.5058 -0.1972
   25CHL1   H3' 1780   6.039   0.344  10.705 -0.2997 -1.1814  0.2654
   25CHL1    C4 1781   5.945   0.541  10.541 -0.4731  0.2130 -0.1561
   25CHL1   H4A 1782   5.850   0.579  10.583 -0.2051  3.2386 -2.0543
   25CHL1   H4B 1783   6.031   0.573  10.604  1.9770  0.4189 -3.3293
   25CHL1    C5 1784   5.959   0.605  10.404 -0.2922 -0.3194  0.9190
   25CHL1    C6 1785   6.070   0.666  10.372  0.1651 -0.1122  0.2258
   25CHL1    H6 1786   6.149   0.679  10.447 -0.0965 -1.5278  0.7802
   25CHL1    C7 1787   6.097   0.728  10.232  0.5424  0.5991 -0.7782
   25CHL1   H7A 1788   6.135   0.832  10.240 -2.4795  1.9010 -1.6943
   25CHL1   H7B 1789   6.171   0.671  10.173 -0.6796  0.3094 -2.0930
   25CHL1    C8 1790   5.971   0.718  10.129  0.0731  0.2084 -0.3695
   25CHL1    H8 1791   5.892   0.794  10.149  0.6489  0.5255  0.8445
   25CHL1   C14 1792   6.018   0.724   9.987 -0.6671 -0.0424  1.4178
   25CHL1   H14 1793   6.083   0.636   9.964 -0.6797  0.6182 -1.6191
   25CHL1   C15 1794   6.100   0.849   9.945 -0.4078 -0.5902 -0.3535
   25CHL1  H15A 1795   6.049   0.941   9.979  0.2320  0.8217 -3.0015
   25CHL1  H15B 1796   6.206   0.861   9.976  0.2029 -1.0539 -2.1319
   25CHL1   C16 1797   6.095   0.855   9.792 -0.0413 -0.3667 -0.4101
   25CHL1  H16A 1798   6.054   0.948   9.748  0.0757  1.2127  2.5991
   25CHL1  H16B 1799   6.193   0.846   9.741 -0.1582  1.4807 -1.0291
   25CHL1   C17 1800   6.004   0.738   9.752 -0.3109  0.3874 -0.1768
   25CHL1   H17 1801   6.063   0.644   9.751  1.0663  1.2200  0.2704
   25CHL1   C13 1802   5.906   0.716   9.874 -0.5502  0.6081  0.8051
   25CHL1   C18 1803   5.792   0.817   9.887 -0.7278 -0.3812  0.4216
   25CHL1  H18A 1804   5.743   0.817   9.987  0.0848  0.2376  0.8358
   25CHL1  H18B 1805   5.837   0.919   9.886  0.2751 -0.8163  0.4960
   25CHL1  H18C 1806   5.721   0.802   9.802 -2.3699  0.3886  1.6063
   25CHL1   C12 1807   5.853   0.567   9.890  0.4636 -0.0234  0.0062
   25CHL1  H12A 1808   5.759   0.558   9.831 -0.2776  5.4468 -0.1760
   25CHL1  H12B 1809   5.929   0.486   9.880  0.7594  0.3070 -0.4467
   25CHL1   C11 1810   5.809   0.547  10.039  0.5957  0.1924 -0.5723
   25CHL1  H11A 1811   5.711   0.597  10.058  0.4349 -0.4123  0.2035
   25CHL1  H11B 1812   5.779   0.441  10.035  0.2782  0.1038  2.3073
   25CHL1    C9 1813   5.909   0.579  10.146  0.4457  0.0491 -0.1714
   25CHL1    H9 1814   5.989   0.504  10.126 -1.0649 -0.9683 -2.9473
   25CHL1   C10 1815   5.859   0.558  10.298 -0.5366  0.0960 -0.9280
   25CHL1   C19 1816   5.724   0.629  10.320  0.0216 -0.3409 -0.2478
   25CHL1  H19A 1817   5.738   0.738  10.305  3.6899 -0.2284  2.4886
   25CHL1  H19B 1818   5.638   0.595  10.259  0.8843  1.0638 -2.3777
   25CHL1  H19C 1819   5.688   0.617  10.424  0.7479 -0.7444 -0.0375
   25CHL1    C1 1820   5.836   0.403  10.318  0.0676 -0.4059 -0.0709
   25CHL1   H1A 1821   5.746   0.379  10.257  1.8370 -1.1146 -2.5549
   25CHL1   H1B 1822   5.920   0.352  10.266 -0.1619  0.3770 -1.2594
   25CHL1    C2 1823   5.821   0.344  10.455  0.0945 -0.0099  0.1256
   25CHL1   H2A 1824   5.804   0.234  10.448  0.3624 -0.0394 -0.0686
   25CHL1   H2B 1825   5.724   0.379  10.496  0.6598 -1.7307  3.3035
   25CHL1   C20 1826   5.940   0.747   9.609 -0.1550 -0.4978 -1.1504
   25CHL1   H20 1827   5.846   0.806   9.620  0.4598  0.4425 -0.8772
   25CHL1   C21 1828   5.901   0.606   9.556 -0.1812 -0.2185 -0.2488
   25CHL1  H21A 1829   5.877   0.533   9.637  3.4706  0.2312  1.4282
   25CHL1  H21B 1830   5.976   0.561   9.488 -1.6497 -0.8707 -1.5071
   25CHL1  H21C 1831   5.814   0.619   9.488 -0.5609 -0.6405  0.1433
   25CHL1   C22 1832   6.015   0.826   9.508  0.2664 -0.1684  0.0548
   25CHL1  H22A 1833   6.025   0.932   9.538 -1.2691  0.5394 -1.7377
   25CHL1  H22B 1834   6.120   0.791   9.494  0.5510  1.0487 -1.0242
   25CHL1   C23 1835   5.933   0.831   9.374  0.0625  0.5240  0.1942
   25CHL1  H23A 1836   5.928   0.726   9.339  1.4942  0.4971 -0.0001
   25CHL1  H23B 1837   5.835   0.879   9.393  0.2481  1.9757 -2.1168
   25CHL1   C24 1838   6.004   0.918   9.263  0.4245  0.5007 -0.2123
   25CHL1  H24A 1839   6.009   1.025   9.293  1.3891  0.5681 -0.5699
   25CHL1  H24B 1840   6.109   0.880   9.263  1.1857  2.3900  1.4379
   25CHL1   C25 1841   5.929   0.917   9.134  0.1404  0.0166 -0.2554
   25CHL1   H25 1842   5.822   0.930   9.159 -0.2032 -3.2772  0.4329
   25CHL1   C26 1843   5.970   1.029   9.039  0.7460  0.1530 -0.1509
   25CHL1  H26A 1844   5.895   1.022   8.958 -3.4039  0.1457  3.3748
   25CHL1  H26B 1845   5.950   1.134   9.070  0.6690  0.1394 -0.1527
   25CHL1  H26C 1846   6.080   1.021   9.020  0.9271  0.3176  0.7824
   25CHL1   C27 1847   5.937   0.782   9.057  0.3927 -0.0479  0.0606
   25CHL1  H27A 1848   5.984   0.793   8.956  1.1763 -0.0242  0.4179
   25CHL1  H27B 1849   6.000   0.713   9.117  1.5849  2.2720  1.5891
   25CHL1  H27C 1850   5.832   0.750   9.045  0.5352 -0.2889 -0.5801
   26CHL1    C3 1851   0.019   3.392  10.251  0.3057  0.1562 -0.3101
   26CHL1    H3 1852  -0.085   3.356  10.268  0.5316 -1.7733 -2.5260
   26CHL1    O3 1853   0.071   3.448  10.377  0.0174  0.1896 -0.1565
   26CHL1   H3' 1854   0.166   3.440  10.389 -0.2451 -0.3311  1.9713
   26CHL1    C4 1855   0.110   3.275  10.205  0.0324  0.3395 -0.2015
   26CHL1   H4A 1856   0.214   3.311  10.222  0.4027 -1.5074  1.9628
   26CHL1   H4B 1857   0.098   3.200  10.285  1.2959  2.1902  1.8467
   26CHL1    C5 1858   0.088   3.231  10.060  0.1471  0.1928  0.4761
   26CHL1    C6 1859   0.039   3.109  10.020  0.5291  0.6817  0.1489
   26CHL1    H6 1860   0.014   3.039  10.101  0.4587 -1.3955 -1.5910
   26CHL1    C7 1861   0.014   3.063   9.874 -0.0800 -0.4947  0.3088
   26CHL1   H7A 1862   0.040   2.956   9.854 -0.2468  0.0254 -3.4986
   26CHL1   H7B 1863  -0.094   3.073   9.851  0.2694  2.2402 -0.4544
   26CHL1    C8 1864   0.081   3.164   9.779 -0.1580  0.4034 -0.8855
   26CHL1    H8 1865   0.189   3.145   9.791  0.1346  1.7967 -1.1810
   26CHL1   C14 1866   0.035   3.121   9.636  0.2200 -0.5438 -1.5531
   26CHL1   H14 1867  -0.076   3.124   9.642  0.2594  0.7277 -1.0763
   26CHL1   C15 1868   0.053   2.976   9.586  0.4459  0.3253  0.4817
   26CHL1  H15A 1869   0.151   2.938   9.625  0.6258 -0.5096 -0.7152
   26CHL1  H15B 1870  -0.034   2.915   9.617 -0.1139  0.2165 -1.2072
   26CHL1   C16 1871   0.040   2.989   9.435  0.1771 -0.0640 -0.4586
   26CHL1  H16A 1872   0.139   2.956   9.399  0.4869  1.0994 -0.7328
   26CHL1  H16B 1873  -0.045   2.929   9.395  0.0587 -1.1450  1.2841
   26CHL1   C17 1874   0.021   3.141   9.407 -0.7261 -0.1186  0.7890
   26CHL1   H17 1875  -0.088   3.159   9.392 -0.3538  3.2466  1.3322
   26CHL1   C13 1876   0.072   3.215   9.527  1.0673  0.5264  0.4891
   26CHL1   C18 1877   0.225   3.218   9.510 -0.2340  0.0621  0.1634
   26CHL1  H18A 1878   0.259   3.118   9.475 -1.0484 -0.0695 -0.2975
   26CHL1  H18B 1879   0.258   3.302   9.445 -0.3390  1.5719  2.0075
   26CHL1  H18C 1880   0.272   3.235   9.609  0.4797  1.5058 -0.3894
   26CHL1   C12 1881   0.015   3.353   9.564  0.3121 -0.8825 -0.0988
   26CHL1  H12A 1882   0.041   3.437   9.497 -2.3607 -0.9461 -1.3444
   26CHL1  H12B 1883  -0.096   3.353   9.565  0.2609 -3.1281 -1.1102
   26CHL1   C11 1884   0.065   3.405   9.702  0.0792 -0.6784 -0.2824
   26CHL1  H11A 1885   0.174   3.427   9.703  0.3308 -1.7804  1.6614
   26CHL1  H11B 1886   0.022   3.503   9.731  1.7414  0.1330 -0.4179
   26CHL1    C9 1887   0.040   3.305   9.817  0.2553 -0.3260  0.0851
   26CHL1    H9 1888  -0.070   3.291   9.829  0.2545  0.8488  1.6770
   26CHL1   C10 1889   0.079   3.345   9.960  0.0769 -0.3453  0.7207
   26CHL1   C19 1890   0.225   3.392   9.939 -0.6535  0.4957 -0.6261
   26CHL1  H19A 1891   0.291   3.324   9.881  0.3538 -0.3641  1.4203
   26CHL1  H19B 1892   0.220   3.493   9.893  0.7721  0.4595 -0.9006
   26CHL1  H19C 1893   0.271   3.415  10.038 -0.7574  1.1975 -0.7368
   26CHL1    C1 1894  -0.012   3.461  10.007 -0.1588 -0.2361 -0.1449
   26CHL1   H1A 1895   0.001   3.546   9.937 -0.1963 -0.5567 -0.5434
   26CHL1   H1B 1896  -0.118   3.436   9.983  0.0085 -0.4577 -0.6596
   26CHL1    C2 1897   0.015   3.507  10.147 -0.2754  0.1899  0.2702
   26CHL1   H2A 1898  -0.048   3.591  10.183  1.5541  1.5340  0.4698
   26CHL1   H2B 1899   0.114   3.556  10.155 -0.5991  0.7173  1.1896
   26CHL1   C20 1900   0.077   3.181   9.266  0.1093  0.0454  0.0321
   26CHL1   H20 1901   0.188   3.176   9.265  0.2993  2.4502 -2.5807
   26CHL1   C21 1902   0.033   3.330   9.227  0.3177 -0.2230  0.5361
   26CHL1  H21A 1903   0.077   3.406   9.295 -1.6285  0.3726  1.2149
   26CHL1  H21B 1904  -0.077   3.346   9.223  0.2704 -0.7951 -1.3661
   26CHL1  H21C 1905   0.069   3.353   9.124 -0.1661  2.0638  0.8263
   26CHL1   C22 1906   0.040   3.086   9.152 -0.2776 -0.7405 -0.0905
   26CHL1  H22A 1907   0.096   3.123   9.065 -0.7220  1.5123  0.5214
   26CHL1  H22B 1908   0.071   2.982   9.175 -0.0791 -0.6916 -0.1384
   26CHL1   C23 1909  -0.101   3.082   9.112  0.6464 -0.5026 -0.4629
   26CHL1  H23A 1910  -0.168   3.054   9.196  2.7821  0.9721  1.8711
   26CHL1  H23B 1911  -0.131   3.181   9.071  1.4919  0.1093  0.3692
   26CHL1   C24 1912  -0.133   2.976   9.003  0.0418 -0.2085 -0.9914
   26CHL1  H24A 1913  -0.060   2.977   8.920  0.5745 -3.1818 -0.6716
   26CHL1  H24B 1914  -0.126   2.876   9.051 -0.7148  1.5722  3.2877
   26CHL1   C25 1915  -0.274   2.987   8.943  0.2175 -0.2668  0.5925
   26CHL1   H25 1916  -0.295   3.074   8.878 -0.6803 -1.0444 -0.1936
   26CHL1   C26 1917  -0.289   2.872   8.847 -1.0088 -0.9523 -0.2329
   26CHL1  H26A 1918  -0.378   2.883   8.782  1.1599 -0.7200 -3.3741
   26CHL1  H26B 1919  -0.202   2.865   8.778 -1.8864 -1.2688 -1.3430
   26CHL1  H26C 1920  -0.294   2.784   8.915  0.7860 -1.8528 -1.2011
   26CHL1   C27 1921  -0.386   2.995   9.046  0.0161 -0.0308 -0.0866
   26CHL1  H27A 1922  -0.382   3.083   9.114  0.6481  0.5484 -0.8441
   26CHL1  H27B 1923  -0.486   2.993   8.999 -1.3655  1.5273  2.5298
   26CHL1  H27C 1924  -0.392   2.899   9.101  1.9047 -1.1618 -1.6960
   27CHL1    C3 1925   0.095   0.907  10.407  0.0438 -0.5035 -0.1703
   27CHL1    H3 1926   0.004   0.843  10.406 -0.4275  0.1157  0.9152
   27CHL1    O3 1927   0.129   0.931  10.543 -0.6160  0.3732 -0.1017
   27CHL1   H3' 1928   0.094   1.013  10.579  1.3356  0.2624  2.3957
   27CHL1    C4 1929   0.208   0.832  10.336 -0.2212  0.2893 -0.4022
   27CHL1   H4A 1930   0.295   0.900  10.350 -1.4587  2.6338 -2.9741
   27CHL1   H4B 1931   0.228   0.735  10.386 -0.3491 -0.8225 -2.3975
   27CHL1    C5 1932   0.185   0.814  10.191  0.2690  0.1180  1.0035
   27CHL1    C6 1933   0.206   0.692  10.134  0.3466 -0.8011 -0.4520
   27CHL1    H6 1934   0.246   0.604  10.186 -1.4768 -1.2412  0.2588
   27CHL1    C7 1935   0.193   0.670   9.988  0.8974  0.0056  0.0195
   27CHL1   H7A 1936   0.279   0.604   9.964  0.5999  0.0360 -1.1891
   27CHL1   H7B 1937   0.097   0.622   9.959  0.2644  1.7343 -0.9170
   27CHL1    C8 1938   0.194   0.792   9.897  0.3667 -0.0639  0.8267
   27CHL1    H8 1939   0.297   0.832   9.890 -0.1228  1.2865  1.0262
   27CHL1   C14 1940   0.145   0.765   9.762  0.5715  0.9807  0.0408
   27CHL1   H14 1941   0.044   0.724   9.784  0.9270  0.5393  0.8886
   27CHL1   C15 1942   0.213   0.645   9.683 -0.3566 -0.7776  0.2883
   27CHL1  H15A 1943   0.321   0.651   9.704  0.0358  0.6612 -1.8471
   27CHL1  H15B 1944   0.171   0.546   9.712 -3.9328  1.1492  2.4228
   27CHL1   C16 1945   0.188   0.688   9.530  0.3877 -0.1477  0.2624
   27CHL1  H16A 1946   0.289   0.693   9.484  0.3005  1.9734  0.2160
   27CHL1  H16B 1947   0.121   0.623   9.469 -0.6023  1.4136 -0.3829
   27CHL1   C17 1948   0.109   0.822   9.534  0.0569  0.3443  0.4998
   27CHL1   H17 1949  -0.000   0.808   9.549 -0.2743  2.8820  0.8677
   27CHL1   C13 1950   0.143   0.887   9.667 -0.4793 -0.4466 -0.1616
   27CHL1   C18 1951   0.287   0.947   9.663 -0.5578 -0.5179 -0.1983
   27CHL1  H18A 1952   0.374   0.880   9.649 -0.1234 -0.4132  1.6976
   27CHL1  H18B 1953   0.285   1.027   9.586 -0.2741 -1.5021 -1.2510
   27CHL1  H18C 1954   0.310   0.996   9.760  2.2354  0.3026 -1.1915
   27CHL1   C12 1955   0.051   0.989   9.727 -0.5393 -0.1125  0.0032
   27CHL1  H12A 1956   0.066   1.083   9.668  2.8905 -0.9453 -0.6476
   27CHL1  H12B 1957  -0.050   0.943   9.718  0.7947 -3.7484  1.7103
   27CHL1   C11 1958   0.087   1.026   9.870 -0.2565 -0.2682 -0.0580
   27CHL1  H11A 1959   0.173   1.096   9.862 -0.3640 -0.0966  0.2832
   27CHL1  H11B 1960  -0.000   1.088   9.900  1.5243  2.5318 -0.3428
   27CHL1    C9 1961   0.106   0.908   9.962 -0.2053 -0.6587 -0.4671
   27CHL1    H9 1962   0.003   0.868   9.965 -1.4898  2.2268 -2.1856
   27CHL1   C10 1963   0.146   0.943  10.107 -0.9301 -0.2506 -0.1036
   27CHL1   C19 1964   0.275   1.045  10.092  0.6283  0.7436  0.1192
   27CHL1  H19A 1965   0.347   0.989  10.028  0.8317  0.3191  0.7099
   27CHL1  H19B 1966   0.248   1.146  10.055  0.5022  0.7138  0.1297
   27CHL1  H19C 1967   0.324   1.052  10.191  1.2664 -0.3602 -0.1014
   27CHL1    C1 1968   0.037   1.015  10.184 -0.5316 -0.5887 -0.2159
   27CHL1   H1A 1969   0.015   1.110  10.129 -0.0695 -0.6225 -0.4689
   27CHL1   H1B 1970  -0.060   0.962  10.183 -2.2357  2.2731  1.5774
   27CHL1    C2 1971   0.067   1.042  10.336 -0.2362  0.0893 -0.0129
   27CHL1   H2A 1972  -0.013   1.094  10.394 -0.7539  0.9093 -1.3952
   27CHL1   H2B 1973   0.157   1.104  10.351  0.3772 -0.4900 -1.2337
   27CHL1   C20 1974   0.130   0.904   9.401  0.0034  0.1825 -0.4532
   27CHL1   H20 1975   0.231   0.950   9.388 -0.3477  1.8226  1.9323
   27CHL1   C21 1976   0.028   1.020   9.408 -0.4057  0.0464 -1.0729
   27CHL1  H21A 1977  -0.009   1.054   9.308  1.4527  0.2203 -1.7322
   27CHL1  H21B 1978   0.069   1.104   9.466  0.1505 -0.9062 -0.0604
   27CHL1  H21C 1979  -0.062   0.973   9.453 -0.4523  1.0589 -0.0797
   27CHL1   C22 1980   0.112   0.814   9.277  0.5021  0.3574  0.0454
   27CHL1  H22A 1981   0.169   0.719   9.278 -1.1087 -0.6506 -0.1876
   27CHL1  H22B 1982   0.003   0.791   9.281  0.3816  0.8937  3.6265
   27CHL1   C23 1983   0.153   0.886   9.151  0.0610 -0.6994 -0.0732
   27CHL1  H23A 1984   0.116   0.990   9.148  1.0176 -0.3615 -1.9673
   27CHL1  H23B 1985   0.263   0.874   9.147 -0.2042 -3.8860 -0.7070
   27CHL1   C24 1986   0.106   0.809   9.025  0.8351  0.4240 -0.5783
   27CHL1  H24A 1987   0.129   0.701   9.039 -3.4622 -0.7237 -0.6851
   27CHL1  H24B 1988  -0.005   0.822   9.025  1.0298  3.2243  2.1379
   27CHL1   C25 1989   0.164   0.852   8.888  0.2834  0.4104 -0.4824
   27CHL1   H25 1990   0.254   0.787   8.882 -0.1600 -0.3867  1.0598
   27CHL1   C26 1991   0.074   0.808   8.762 -0.3790  0.9690 -0.7379
   27CHL1  H26A 1992   0.058   0.699   8.762  1.1691  0.7152 -0.5395
   27CHL1  H26B 1993  -0.025   0.858   8.756 -0.6424  0.5125 -0.2291
   27CHL1  H26C 1994   0.129   0.839   8.670  1.8735 -1.7501 -0.4562
   27CHL1   C27 1995   0.193   1.003   8.875 -0.2573 -0.1244  0.2082
   27CHL1  H27A 1996   0.102   1.059   8.907 -0.9719 -0.3933 -1.2478
   27CHL1  H27B 1997   0.276   1.042   8.937 -0.9965  1.5873  0.1709
   27CHL1  H27C 1998   0.235   1.027   8.774  1.4567 -0.2537  0.8592
   28CHL1    C3 1999   5.915   5.893  10.151 -0.0274 -0.0418  0.6140
   28CHL1    H3 2000   5.971   5.989  10.148  0.9395 -0.6016 -2.4645
   28CHL1    O3 2001   5.859   5.886  10.276 -0.3579  0.1921 -0.0485
   28CHL1   H3' 2002   5.831   5.794  10.284  0.9505 -0.4551 -2.2263
   28CHL1    C4 2003   5.802   5.897  10.051  0.1737 -0.1183 -0.3910
   28CHL1   H4A 2004   5.734   5.813  10.079  0.6314 -0.0948  0.8316
   28CHL1   H4B 2005   5.737   5.984  10.076  0.3299  0.7289 -2.6439
   28CHL1    C5 2006   5.830   5.879   9.905  0.7662  0.3330  0.5642
   28CHL1    C6 2007   5.788   5.968   9.818 -0.3675  0.2605 -0.4665
   28CHL1    H6 2008   5.728   6.057   9.839  2.1396  2.3562 -1.6410
   28CHL1    C7 2009   5.818   5.956   9.669 -0.2545 -0.5119 -0.3949
   28CHL1   H7A 2010   5.731   5.983   9.605 -0.2775  3.5039  1.0377
   28CHL1   H7B 2011   5.882   6.042   9.638 -2.8609 -0.0975 -5.7699
   28CHL1    C8 2012   5.873   5.821   9.628 -0.5251  0.4745  0.3016
   28CHL1    H8 2013   5.785   5.755   9.615  0.6442 -0.8887 -1.2146
   28CHL1   C14 2014   5.940   5.835   9.487 -0.4465 -0.7590  0.0711
   28CHL1   H14 2015   6.021   5.908   9.508 -2.5500  1.6478  0.1768
   28CHL1   C15 2016   5.868   5.899   9.373  0.1357 -0.1743 -0.4663
   28CHL1  H15A 2017   5.765   5.861   9.359  0.2648 -0.0334 -1.9803
   28CHL1  H15B 2018   5.854   6.009   9.385  1.0592  0.0396 -1.2645
   28CHL1   C16 2019   5.951   5.852   9.258  1.1079 -0.6346  0.1269
   28CHL1  H16A 2020   5.886   5.815   9.176  0.5740  1.3698 -0.3942
   28CHL1  H16B 2021   6.002   5.936   9.206 -0.3178 -0.5196 -1.1738
   28CHL1   C17 2022   6.060   5.759   9.310 -0.9950 -0.5775 -0.4449
   28CHL1   H17 2023   6.150   5.819   9.334 -1.5290 -0.0256  0.2176
   28CHL1   C13 2024   6.005   5.709   9.436 -0.3776  0.9765 -0.0462
   28CHL1   C18 2025   5.897   5.612   9.399  0.0329 -0.5385 -0.1831
   28CHL1  H18A 2026   5.845   5.630   9.302 -0.5636 -2.4688 -0.2521
   28CHL1  H18B 2027   5.953   5.521   9.370  2.2391  0.2976  1.2102
   28CHL1  H18C 2028   5.812   5.605   9.470  1.1189 -1.2570  1.0752
   28CHL1   C12 2029   6.102   5.647   9.545 -0.1260 -0.3583 -0.5809
   28CHL1  H12A 2030   6.138   5.548   9.510  1.5229  0.2078 -0.5433
   28CHL1  H12B 2031   6.186   5.718   9.555 -0.3577 -0.1647  0.0050
   28CHL1   C11 2032   6.040   5.634   9.682 -0.5178  0.4630  0.0146
   28CHL1  H11A 2033   5.964   5.552   9.680 -0.9810  0.8440  1.2389
   28CHL1  H11B 2034   6.126   5.605   9.746  1.5561 -0.5685 -3.0118
   28CHL1    C9 2035   5.979   5.767   9.729  0.0740 -0.7412  0.3047
   28CHL1    H9 2036   6.061   5.842   9.730  0.3175 -0.9499 -1.6023
   28CHL1   C10 2037   5.917   5.759   9.873 -0.0228 -0.3991 -0.2241
   28CHL1   C19 2038   5.837   5.633   9.875 -0.0469  0.3913 -1.0763
   28CHL1  H19A 2039   5.902   5.545   9.892 -2.5150 -1.8003 -2.3546
   28CHL1  H19B 2040   5.772   5.625   9.965 -1.2834 -0.7205 -2.0309
   28CHL1  H19C 2041   5.758   5.624   9.798 -0.4339  1.3099 -0.8110
   28CHL1    C1 2042   6.033   5.765   9.970  0.3614  0.2610  0.2957
   28CHL1   H1A 2043   6.105   5.685   9.942 -0.0963 -0.5499  1.3820
   28CHL1   H1B 2044   6.096   5.856   9.963 -0.7210  1.1709  1.8946
   28CHL1    C2 2045   6.000   5.764  10.118  0.1470  0.2043  0.1109
   28CHL1   H2A 2046   6.092   5.764  10.180  0.8526 -3.4113 -0.7375
   28CHL1   H2B 2047   5.935   5.678  10.144 -1.1647  1.9611  3.2045
   28CHL1   C20 2048   6.115   5.666   9.197 -0.2297 -0.2076 -0.3051
   28CHL1   H20 2049   6.042   5.583   9.185 -2.3780  1.3944  1.0294
   28CHL1   C21 2050   6.250   5.615   9.241 -0.4491 -0.2428 -0.0679
   28CHL1  H21A 2051   6.289   5.529   9.183  3.5737 -0.8988  3.1794
   28CHL1  H21B 2052   6.253   5.592   9.350  0.6508  1.1303  0.2320
   28CHL1  H21C 2053   6.321   5.701   9.236  0.0126 -0.5819  0.5007
   28CHL1   C22 2054   6.138   5.740   9.055 -0.1507  0.1620 -0.9143
   28CHL1  H22A 2055   6.036   5.761   9.016  0.2707  3.2772 -0.5858
   28CHL1  H22B 2056   6.203   5.827   9.079  0.5161 -0.6134  0.1853
   28CHL1   C23 2057   6.209   5.650   8.950  0.1439 -0.0085  1.1529
   28CHL1  H23A 2058   6.317   5.642   8.973  0.2429  0.3542  0.8133
   28CHL1  H23B 2059   6.159   5.551   8.951 -0.8824  0.4107 -1.3914
   28CHL1   C24 2060   6.203   5.711   8.803 -0.0910 -0.4010  0.0623
   28CHL1  H24A 2061   6.097   5.724   8.771  0.3033  1.4007 -0.6028
   28CHL1  H24B 2062   6.250   5.811   8.801 -1.6318  0.3577  0.3164
   28CHL1   C25 2063   6.264   5.628   8.700  0.4016  0.9468  0.6501
   28CHL1   H25 2064   6.368   5.598   8.727  0.2741 -0.4785 -0.2714
   28CHL1   C26 2065   6.191   5.488   8.675 -0.0643  0.9845 -0.1566
   28CHL1  H26A 2066   6.232   5.445   8.581 -2.0268 -2.3871  0.3723
   28CHL1  H26B 2067   6.196   5.417   8.760  1.4730  1.8002  0.4734
   28CHL1  H26C 2068   6.084   5.509   8.656 -0.0267 -0.5559 -2.4588
   28CHL1   C27 2069   6.276   5.696   8.565  0.4440 -0.1486 -0.4391
   28CHL1  H27A 2070   6.327   5.636   8.487 -0.2855 -0.1663 -0.9109
   28CHL1  H27B 2071   6.178   5.739   8.536  0.5684  2.0391  1.9619
   28CHL1  H27C 2072   6.339   5.787   8.574  0.2260 -0.1590  1.5900
   29CHL1    C3 2073   6.279   3.991   6.703  0.3365 -0.0897 -0.2916
   29CHL1    H3 2074   6.239   3.893   6.737 -1.2121  0.8171  0.5997
   29CHL1    O3 2075   6.290   3.984   6.564  0.1301  0.5859 -0.5044
   29CHL1   H3' 2076   6.292   4.075   6.533  1.5734  1.4638  1.9241
   29CHL1    C4 2077   6.179   4.094   6.751 -1.2077 -0.1428 -0.0529
   29CHL1   H4A 2078   6.203   4.194   6.708  0.2839  0.4870  2.0689
   29CHL1   H4B 2079   6.079   4.072   6.708  0.1680 -4.5403 -1.5555
   29CHL1    C5 2080   6.180   4.098   6.898  0.1213 -0.1536  0.0248
   29CHL1    C6 2081   6.060   4.097   6.961 -0.1469  0.0063 -0.0197
   29CHL1    H6 2082   5.970   4.066   6.905 -0.6836 -1.1416  1.4024
   29CHL1    C7 2083   6.049   4.114   7.112  0.3543  0.1863  0.5471
   29CHL1   H7A 2084   5.984   4.204   7.119  0.9048  0.6033  0.4210
   29CHL1   H7B 2085   6.009   4.019   7.154  0.9252 -0.0058  0.6628
   29CHL1    C8 2086   6.180   4.153   7.185  0.7491  0.1083  0.5236
   29CHL1    H8 2087   6.193   4.263   7.172 -1.6584  0.7437  2.6142
   29CHL1   C14 2088   6.166   4.129   7.334  0.0918 -0.8634 -0.4580
   29CHL1   H14 2089   6.162   4.019   7.349  2.1473 -0.9942 -0.5361
   29CHL1   C15 2090   6.051   4.194   7.412  0.4292 -1.1125  0.0748
   29CHL1  H15A 2091   6.052   4.304   7.394  0.8118 -0.9769  0.8714
   29CHL1  H15B 2092   5.951   4.148   7.396 -1.5201  2.2951  1.3191
   29CHL1   C16 2093   6.096   4.181   7.557 -0.4824 -0.1170 -0.3931
   29CHL1  H16A 2094   6.086   4.273   7.619 -0.0500 -1.5557  1.9277
   29CHL1  H16B 2095   6.039   4.112   7.623  1.1496  1.8110  3.2923
   29CHL1   C17 2096   6.243   4.122   7.561  0.7413  0.6007 -0.3959
   29CHL1   H17 2097   6.231   4.012   7.569  0.7828  0.6754  1.0422
   29CHL1   C13 2098   6.287   4.156   7.420 -0.1183 -0.6628  0.9924
   29CHL1   C18 2099   6.338   4.309   7.408 -0.5141  0.1030  0.0057
   29CHL1  H18A 2100   6.352   4.326   7.299  1.5538 -2.0737 -0.1626
   29CHL1  H18B 2101   6.259   4.366   7.460  1.4912  1.7041  1.4580
   29CHL1  H18C 2102   6.441   4.322   7.448  0.3943 -0.1905 -2.0620
   29CHL1   C12 2103   6.406   4.065   7.368 -0.4625  0.0130  0.1287
   29CHL1  H12A 2104   6.501   4.095   7.417 -1.0742  1.0961  0.6879
   29CHL1  H12B 2105   6.379   3.957   7.376 -1.7198  0.2628 -0.5662
   29CHL1   C11 2106   6.433   4.092   7.219 -0.3966 -0.4473 -0.2539
   29CHL1  H11A 2107   6.489   4.184   7.191  3.2645 -2.2195  0.7357
   29CHL1  H11B 2108   6.504   4.011   7.193  0.4762 -0.1602  1.1518
   29CHL1    C9 2109   6.303   4.078   7.129  0.0496 -0.4169 -0.4593
   29CHL1    H9 2110   6.267   3.974   7.138 -1.3338 -0.1506 -2.4327
   29CHL1   C10 2111   6.315   4.105   6.976 -0.3197 -0.8053  0.4264
   29CHL1   C19 2112   6.368   4.251   6.951  0.1710  0.9505 -0.1667
   29CHL1  H19A 2113   6.301   4.327   6.995 -2.1185  0.2206 -2.1795
   29CHL1  H19B 2114   6.470   4.260   6.994 -0.4040 -1.3938  1.9201
   29CHL1  H19C 2115   6.385   4.270   6.843  0.1144 -0.9768 -0.5582
   29CHL1    C1 2116   6.421   4.012   6.911  0.0382  0.0183  0.2783
   29CHL1   H1A 2117   6.526   4.042   6.934  0.7860  0.2786 -3.0300
   29CHL1   H1B 2118   6.426   3.906   6.944  1.5006  0.7835  2.8230
   29CHL1    C2 2119   6.421   4.016   6.759  0.3139  0.0731 -0.8210
   29CHL1   H2A 2120   6.483   3.934   6.718 -0.2996 -0.7696 -0.0895
   29CHL1   H2B 2121   6.458   4.113   6.719  0.2487 -0.2863 -1.7762
   29CHL1   C20 2122   6.324   4.164   7.678  0.1245 -0.0793 -0.0506
   29CHL1   H20 2123   6.324   4.274   7.691 -0.3814 -0.3867  3.4948
   29CHL1   C21 2124   6.469   4.115   7.685 -0.2667  0.1833  0.8147
   29CHL1  H21A 2125   6.477   4.005   7.669  1.2869  0.3446  0.2533
   29CHL1  H21B 2126   6.514   4.143   7.782  0.1605 -0.8042  0.9093
   29CHL1  H21C 2127   6.548   4.142   7.611 -2.0474  0.0628 -1.2186
   29CHL1   C22 2128   6.254   4.110   7.811  0.2192  0.0611 -0.0962
   29CHL1  H22A 2129   6.148   4.139   7.825  0.5200  1.9927 -1.3541
   29CHL1  H22B 2130   6.264   4.000   7.802 -1.9603 -0.0318 -2.4760
   29CHL1   C23 2131   6.324   4.159   7.942  0.8699  0.2338 -0.3582
   29CHL1  H23A 2132   6.425   4.112   7.949  0.3236 -0.8500  0.4019
   29CHL1  H23B 2133   6.331   4.270   7.943 -0.3951  0.3467 -1.2531
   29CHL1   C24 2134   6.247   4.112   8.066 -0.2720 -0.2578 -0.3981
   29CHL1  H24A 2135   6.296   4.143   8.161 -0.3615 -2.8472  0.5983
   29CHL1  H24B 2136   6.150   4.165   8.078  0.4248  0.4277  4.2060
   29CHL1   C25 2137   6.237   3.958   8.084 -0.5408 -0.6100 -0.1604
   29CHL1   H25 2138   6.216   3.912   7.986 -2.1639  0.4637 -0.3380
   29CHL1   C26 2139   6.367   3.894   8.157  0.2530  0.0833 -0.3652
   29CHL1  H26A 2140   6.463   3.927   8.111  0.2775  1.9721  0.9104
   29CHL1  H26B 2141   6.379   3.927   8.263  1.4717 -0.0246 -0.4513
   29CHL1  H26C 2142   6.379   3.784   8.160 -1.9989 -0.1826  1.0018
   29CHL1   C27 2143   6.116   3.926   8.164  0.1247 -0.2687 -0.0332
   29CHL1  H27A 2144   6.104   3.999   8.246  2.9010 -0.7312  0.8982
   29CHL1  H27B 2145   6.022   3.919   8.105 -0.1417 -0.7117  0.4333
   29CHL1  H27C 2146   6.133   3.828   8.214 -0.1983  0.5504  1.7291
   30CHL1    C3 2147   4.540   2.779   7.481  0.1719 -0.2741 -0.0801
   30CHL1    H3 2148   4.518   2.887   7.495  0.9585 -0.1966  0.6289
   30CHL1    O3 2149   4.551   2.759   7.343  0.6514  0.4235  0.5123
   30CHL1   H3' 2150   4.462   2.766   7.308  0.8121 -0.4779 -0.1256
   30CHL1    C4 2151   4.681   2.756   7.544 -0.1931 -0.5900 -0.6627
   30CHL1   H4A 2152   4.714   2.653   7.518  0.4899 -0.3816 -0.6551
   30CHL1   H4B 2153   4.763   2.821   7.505  1.4484 -1.0017  1.8167
   30CHL1    C5 2154   4.670   2.786   7.695 -0.3481 -0.2926  0.4082
   30CHL1    C6 2155   4.754   2.869   7.754  0.1414 -0.9952 -0.0639
   30CHL1    H6 2156   4.830   2.930   7.704 -0.6200  2.5667  2.7226
   30CHL1    C7 2157   4.745   2.905   7.897  0.2359 -0.0763  0.0603
   30CHL1   H7A 2158   4.846   2.923   7.939  0.3414 -0.2012 -0.1357
   30CHL1   H7B 2159   4.703   3.008   7.900 -0.8858 -0.5422  0.9109
   30CHL1    C8 2160   4.668   2.801   7.984 -0.5505  0.0692  0.7419
   30CHL1    H8 2161   4.737   2.714   7.994 -1.0102 -0.5722 -1.3170
   30CHL1   C14 2162   4.632   2.859   8.117  0.0400 -0.3518  0.2228
   30CHL1   H14 2163   4.564   2.945   8.102 -0.9780 -1.1278  0.2707
   30CHL1   C15 2164   4.743   2.899   8.212 -0.2349  0.3124  0.7622
   30CHL1  H15A 2165   4.825   2.825   8.212  0.7145  1.2950 -1.1740
   30CHL1  H15B 2166   4.781   2.995   8.170 -0.7114  0.8231  1.4618
   30CHL1   C16 2167   4.682   2.903   8.347 -0.6052 -0.4345 -0.4297
   30CHL1  H16A 2168   4.729   2.823   8.409  0.5733  0.0113 -0.7202
   30CHL1  H16B 2169   4.701   3.000   8.398  3.2877 -0.2117 -1.9841
   30CHL1   C17 2170   4.531   2.850   8.332 -0.9290  0.8426 -1.1864
   30CHL1   H17 2171   4.476   2.945   8.319 -0.6874  1.1981  0.2400
   30CHL1   C13 2172   4.541   2.768   8.204 -0.6110 -0.0379 -0.5665
   30CHL1   C18 2173   4.610   2.627   8.243  0.1308 -0.0285  0.1942
   30CHL1  H18A 2174   4.693   2.645   8.315  1.2623 -0.1626 -1.0244
   30CHL1  H18B 2175   4.527   2.564   8.281  0.7639 -1.5159 -0.7755
   30CHL1  H18C 2176   4.653   2.593   8.146 -0.2472  1.7490 -0.6576
   30CHL1   C12 2177   4.411   2.741   8.127 -0.0548 -0.4186 -0.7753
   30CHL1  H12A 2178   4.339   2.676   8.182 -0.3977  0.1492 -0.5536
   30CHL1  H12B 2179   4.359   2.839   8.117 -0.9335 -0.8065 -0.2012
   30CHL1   C11 2180   4.438   2.678   7.993 -0.1180  1.1851 -0.1831
   30CHL1  H11A 2181   4.482   2.577   8.010 -2.2956 -0.0846 -1.5530
   30CHL1  H11B 2182   4.341   2.659   7.943  0.7573  1.4948 -2.0906
   30CHL1    C9 2183   4.534   2.760   7.910 -0.0058 -0.1314  0.1384
   30CHL1    H9 2184   4.483   2.858   7.902 -0.5879 -0.1956  2.3349
   30CHL1   C10 2185   4.556   2.701   7.774 -1.0724 -0.5211 -0.2827
   30CHL1   C19 2186   4.607   2.555   7.773  0.6475 -0.0042  0.4602
   30CHL1  H19A 2187   4.619   2.513   7.671 -1.3433 -1.3291  0.7093
   30CHL1  H19B 2188   4.709   2.558   7.815  1.0691  0.2262 -0.5574
   30CHL1  H19C 2189   4.539   2.484   7.825  1.2452  1.0417  2.7600
   30CHL1    C1 2190   4.423   2.721   7.691 -0.9786 -0.5120  0.0492
   30CHL1   H1A 2191   4.351   2.655   7.744  0.5679  0.3396  3.4152
   30CHL1   H1B 2192   4.381   2.823   7.696 -3.0772 -1.1770 -1.8615
   30CHL1    C2 2193   4.430   2.696   7.544 -0.0453  0.2510  0.1673
   30CHL1   H2A 2194   4.338   2.723   7.488 -0.3239 -0.8575  0.0677
   30CHL1   H2B 2195   4.438   2.587   7.524 -0.0940  0.4764 -1.1930
   30CHL1   C20 2196   4.475   2.789   8.459  0.0975 -0.2311  0.0056
   30CHL1   H20 2197   4.496   2.681   8.472  0.4835 -0.1300  0.2496
   30CHL1   C21 2198   4.322   2.802   8.446 -0.0544 -0.1811  0.4320
   30CHL1  H21A 2199   4.299   2.752   8.350 -1.0654  1.3000 -0.1336
   30CHL1  H21B 2200   4.295   2.910   8.438 -0.1034 -0.3140 -1.4574
   30CHL1  H21C 2201   4.262   2.755   8.527 -3.2966  1.6909 -0.7225
   30CHL1   C22 2202   4.519   2.860   8.594  0.0751  0.4182  0.1432
   30CHL1  H22A 2203   4.630   2.870   8.603 -0.1158  1.6145  1.5913
   30CHL1  H22B 2204   4.473   2.961   8.597 -0.2789  0.2359  1.3755
   30CHL1   C23 2205   4.459   2.792   8.717  0.5605 -0.1067 -0.3500
   30CHL1  H23A 2206   4.350   2.813   8.715  0.2816 -1.4344 -0.0312
   30CHL1  H23B 2207   4.476   2.682   8.710  0.2612 -0.6691  4.4639
   30CHL1   C24 2208   4.520   2.847   8.851  0.5149  1.1449 -0.6963
   30CHL1  H24A 2209   4.630   2.842   8.837  0.4769  1.0933 -1.0039
   30CHL1  H24B 2210   4.505   2.957   8.860  1.2031  1.1238  1.1292
   30CHL1   C25 2211   4.481   2.778   8.985  0.2493 -0.1770 -0.1366
   30CHL1   H25 2212   4.502   2.854   9.063 -2.9737 -0.5754  1.2802
   30CHL1   C26 2213   4.328   2.747   8.983  0.7805 -0.1991 -0.4771
   30CHL1  H26A 2214   4.302   2.735   9.090 -0.0383  3.2851 -0.1539
   30CHL1  H26B 2215   4.274   2.839   8.951 -0.1094 -0.6661 -0.3437
   30CHL1  H26C 2216   4.299   2.664   8.916 -0.6886  2.6726 -3.7206
   30CHL1   C27 2217   4.554   2.640   9.009 -0.1259  0.2314  0.2623
   30CHL1  H27A 2218   4.512   2.592   9.100 -1.2584  0.3702 -0.1716
   30CHL1  H27B 2219   4.542   2.577   8.918 -0.6348  1.2475 -0.3920
   30CHL1  H27C 2220   4.663   2.637   9.031 -0.2435 -0.9712  0.7627
   31CHL1    C3 2221   4.630   5.118   6.685 -0.3562 -0.2865  0.6372
   31CHL1    H3 2222   4.537   5.178   6.681 -0.7817 -0.7238  2.8623
   31CHL1    O3 2223   4.672   5.112   6.545  0.7612  0.5527 -0.0446
   31CHL1   H3' 2224   4.634   5.026   6.526  1.1559  0.0254  1.3988
   31CHL1    C4 2225   4.744   5.194   6.758  1.2218  0.4844  0.0771
   31CHL1   H4A 2226   4.834   5.129   6.756  0.3340 -0.8325  1.5572
   31CHL1   H4B 2227   4.772   5.287   6.704  1.9671 -0.2864 -0.9113
   31CHL1    C5 2228   4.705   5.212   6.903  0.8393  0.0811  0.5843
   31CHL1    C6 2229   4.689   5.329   6.959 -0.3440  0.3195 -0.2222
   31CHL1    H6 2230   4.721   5.412   6.893 -2.0551  2.0768  1.0401
   31CHL1    C7 2231   4.636   5.363   7.100 -0.1237 -0.3051  0.5620
   31CHL1   H7A 2232   4.698   5.435   7.157 -1.4905  1.1935  0.2468
   31CHL1   H7B 2233   4.535   5.408   7.090  0.6613  1.4810  0.3034
   31CHL1    C8 2234   4.635   5.230   7.182  0.0484 -0.3158  1.0622
   31CHL1    H8 2235   4.743   5.210   7.198  0.2483 -1.3139 -1.1467
   31CHL1   C14 2236   4.559   5.241   7.315 -0.3061 -0.0196 -0.4400
   31CHL1   H14 2237   4.450   5.257   7.300 -0.3969  0.2176  0.3973
   31CHL1   C15 2238   4.606   5.361   7.406 -0.1552  0.1831 -0.4768
   31CHL1  H15A 2239   4.716   5.350   7.416 -0.3952 -2.2979  0.0194
   31CHL1  H15B 2240   4.570   5.459   7.367 -0.3531  0.0767 -0.5643
   31CHL1   C16 2241   4.545   5.319   7.545  0.2244  0.2902 -0.2935
   31CHL1  H16A 2242   4.626   5.311   7.620  0.3823 -0.0224 -0.4949
   31CHL1  H16B 2243   4.458   5.380   7.578 -2.4734 -2.9018 -0.9206
   31CHL1   C17 2244   4.498   5.171   7.533 -0.2686  0.1867  0.3894
   31CHL1   H17 2245   4.391   5.176   7.507  0.1556  1.6024 -1.2761
   31CHL1   C13 2246   4.563   5.120   7.400 -0.2342  0.4856 -0.2202
   31CHL1   C18 2247   4.710   5.078   7.436 -0.3002  0.3393  0.3746
   31CHL1  H18A 2248   4.702   4.989   7.501 -0.9864  0.0753 -0.0574
   31CHL1  H18B 2249   4.767   5.057   7.343 -2.0575 -1.7709 -0.2884
   31CHL1  H18C 2250   4.764   5.154   7.497 -1.0718  0.2040  1.2404
   31CHL1   C12 2251   4.478   5.011   7.328 -0.2447  0.7091  0.0757
   31CHL1  H12A 2252   4.481   4.918   7.389  0.1909  0.7429  0.1107
   31CHL1  H12B 2253   4.374   5.051   7.325 -0.2421  1.0098  2.3349
   31CHL1   C11 2254   4.532   4.986   7.188  0.0359  0.6507 -0.7047
   31CHL1  H11A 2255   4.628   4.932   7.199  0.4502  0.8890 -2.7310
   31CHL1  H11B 2256   4.466   4.912   7.138  0.9890 -1.3686  0.8616
   31CHL1    C9 2257   4.573   5.113   7.102 -0.0602 -0.1738 -0.7963
   31CHL1    H9 2258   4.476   5.154   7.066  0.3590  0.2152 -1.4992
   31CHL1   C10 2259   4.655   5.090   6.975 -0.0943  0.2858  0.0645
   31CHL1   C19 2260   4.779   5.003   7.006 -0.7780  1.0519  0.7749
   31CHL1  H19A 2261   4.840   5.057   7.081  0.2727  0.2069  0.5514
   31CHL1  H19B 2262   4.765   4.899   7.043 -0.2865  1.4065  2.0088
   31CHL1  H19C 2263   4.833   4.987   6.910 -0.3481  0.7276  1.0691
   31CHL1    C1 2264   4.560   5.000   6.890 -0.1335 -0.5186  0.7201
   31CHL1   H1A 2265   4.567   4.895   6.924  1.4558 -0.8353 -0.4741
   31CHL1   H1B 2266   4.458   5.045   6.895  0.9152  2.2681 -0.5377
   31CHL1    C2 2267   4.601   4.986   6.743  0.4342 -0.2667 -0.0391
   31CHL1   H2A 2268   4.525   4.939   6.678 -1.8199 -0.1056  2.3118
   31CHL1   H2B 2269   4.686   4.914   6.748 -1.0249 -2.0064  2.4511
   31CHL1   C20 2270   4.516   5.091   7.670 -0.1520 -0.0651  0.1574
   31CHL1   H20 2271   4.625   5.098   7.689 -0.7529  2.3502  3.7717
   31CHL1   C21 2272   4.477   4.945   7.655 -0.0855 -0.5857  0.0319
   31CHL1  H21A 2273   4.548   4.881   7.597 -0.9522 -2.4368  0.9126
   31CHL1  H21B 2274   4.381   4.932   7.600  1.1776  0.1314 -2.4730
   31CHL1  H21C 2275   4.458   4.898   7.755 -2.2490  2.4276  1.1877
   31CHL1   C22 2276   4.440   5.161   7.787 -0.6423  0.6817  0.0605
   31CHL1  H22A 2277   4.426   5.271   7.786  1.0984  0.9595 -2.8621
   31CHL1  H22B 2278   4.338   5.119   7.770 -0.8098  1.2795 -0.4240
   31CHL1   C23 2279   4.488   5.117   7.929  0.2939  1.1498  0.7570
   31CHL1  H23A 2280   4.420   5.152   8.010 -1.1218 -1.4251  0.7963
   31CHL1  H23B 2281   4.485   5.007   7.943 -0.0184  1.2468  1.4657
   31CHL1   C24 2282   4.622   5.172   7.973  0.6480  0.7320 -0.4977
   31CHL1  H24A 2283   4.704   5.125   7.915  1.2490  0.8793  0.2228
   31CHL1  H24B 2284   4.633   5.279   7.944  1.7235  0.9110  0.5013
   31CHL1   C25 2285   4.642   5.170   8.125  0.0796  0.6553  0.0996
   31CHL1   H25 2286   4.628   5.069   8.169 -0.5410  1.6025  2.2274
   31CHL1   C26 2287   4.785   5.200   8.162 -0.4855 -0.4235 -0.6929
   31CHL1  H26A 2288   4.807   5.158   8.263 -1.5788  0.8866  0.1268
   31CHL1  H26B 2289   4.845   5.145   8.086  1.6043  0.1092  0.5083
   31CHL1  H26C 2290   4.813   5.307   8.164 -0.1458 -0.5072  1.4509
   31CHL1   C27 2291   4.553   5.275   8.195 -0.4568 -0.1044  0.1251
   31CHL1  H27A 2292   4.577   5.371   8.145 -0.4961  0.2113  0.7061
   31CHL1  H27B 2293   4.580   5.279   8.303 -0.1744 -1.4656  0.1294
   31CHL1  H27C 2294   4.444   5.258   8.180 -0.5666 -0.4798  1.2498
   32CHL1    C3 2295   5.802   1.583   6.948  0.6291  0.2113 -0.4392
   32CHL1    H3 2296   5.791   1.475   6.927  1.0381  0.0520  0.1353
   32CHL1    O3 2297   5.819   1.657   6.832  0.0254  0.0542  0.6690
   32CHL1   H3' 2298   5.905   1.700   6.831  0.1979 -0.2856  0.2091
   32CHL1    C4 2299   5.682   1.641   7.021  1.0913  1.4384 -0.1031
   32CHL1   H4A 2300   5.682   1.752   7.022  1.0745  1.4560 -1.1357
   32CHL1   H4B 2301   5.598   1.623   6.952  1.7867 -0.6709 -0.4757
   32CHL1    C5 2302   5.640   1.585   7.158 -0.1181  0.2727 -0.6555
   32CHL1    C6 2303   5.524   1.536   7.188 -0.4410  0.0026  0.2734
   32CHL1    H6 2304   5.442   1.546   7.115 -0.9716  1.7273  1.0274
   32CHL1    C7 2305   5.477   1.476   7.319 -0.3829 -0.2957  0.1393
   32CHL1   H7A 2306   5.380   1.511   7.361  0.1993 -0.5830  1.8033
   32CHL1   H7B 2307   5.477   1.365   7.314  3.3924 -0.4833  1.1495
   32CHL1    C8 2308   5.570   1.523   7.431 -0.0603 -0.2765  0.2702
   32CHL1    H8 2309   5.553   1.631   7.450  0.9473 -0.1029  0.2362
   32CHL1   C14 2310   5.541   1.450   7.561 -0.1952  0.2861  0.6744
   32CHL1   H14 2311   5.554   1.342   7.541  1.3061  0.6244 -0.3294
   32CHL1   C15 2312   5.405   1.452   7.618  0.9445  0.6164  0.2867
   32CHL1  H15A 2313   5.370   1.557   7.629  1.7573  0.7209  2.4290
   32CHL1  H15B 2314   5.331   1.398   7.555  2.8950 -1.3815 -0.4316
   32CHL1   C16 2315   5.430   1.389   7.760 -0.2564  0.0004 -0.6206
   32CHL1  H16A 2316   5.362   1.434   7.836  0.3586 -0.8282  0.4550
   32CHL1  H16B 2317   5.396   1.284   7.755  0.4327 -0.4444  2.1237
   32CHL1   C17 2318   5.576   1.388   7.795  1.0808  0.5113 -0.0979
   32CHL1   H17 2319   5.612   1.284   7.785  0.1609  0.0183  1.4629
   32CHL1   C13 2320   5.635   1.478   7.679 -1.3666 -0.2511  0.0505
   32CHL1   C18 2321   5.621   1.632   7.715  0.3525  0.1986 -0.0272
   32CHL1  H18A 2322   5.679   1.664   7.804 -0.3865  2.4507 -0.2960
   32CHL1  H18B 2323   5.645   1.701   7.632 -0.2130 -1.6657 -1.8173
   32CHL1  H18C 2324   5.514   1.645   7.745  0.4289 -1.6594  1.2197
   32CHL1   C12 2325   5.778   1.439   7.632  0.5579  0.0648  0.3600
   32CHL1  H12A 2326   5.850   1.455   7.715  0.5429  3.7405 -0.1654
   32CHL1  H12B 2327   5.780   1.329   7.617  1.6738  0.1675 -0.3882
   32CHL1   C11 2328   5.823   1.508   7.496  0.2859  0.5417 -0.7725
   32CHL1  H11A 2329   5.838   1.610   7.538  0.9385 -0.0307  0.4504
   32CHL1  H11B 2330   5.922   1.465   7.469  0.4567  0.5706 -0.2170
   32CHL1    C9 2331   5.720   1.498   7.384 -0.4647  0.4895 -0.5296
   32CHL1    H9 2332   5.722   1.396   7.341  1.3695  0.8336 -1.3396
   32CHL1   C10 2333   5.756   1.582   7.260 -0.6555 -0.9954 -0.0456
   32CHL1   C19 2334   5.781   1.727   7.307 -0.7607  0.8217  0.8020
   32CHL1  H19A 2335   5.697   1.764   7.369 -0.1077 -1.8184  3.4211
   32CHL1  H19B 2336   5.876   1.730   7.364 -1.3617  0.2917  1.8369
   32CHL1  H19C 2337   5.791   1.788   7.214  1.7638 -2.6621 -1.4605
   32CHL1    C1 2338   5.883   1.521   7.182 -0.0485 -0.3617  0.4937
   32CHL1   H1A 2339   5.966   1.539   7.252  0.1961  1.9183 -0.2943
   32CHL1   H1B 2340   5.853   1.416   7.162 -0.4825  0.2399 -2.5001
   32CHL1    C2 2341   5.916   1.596   7.048 -0.5355 -0.3317 -0.3032
   32CHL1   H2A 2342   6.008   1.564   6.995  0.6476  1.5402  0.5334
   32CHL1   H2B 2343   5.928   1.704   7.071 -0.5377 -0.5924  1.0027
   32CHL1   C20 2344   5.596   1.429   7.937  0.3650  0.2606  0.4132
   32CHL1   H20 2345   5.555   1.532   7.948  0.2333  0.1763  0.7195
   32CHL1   C21 2346   5.748   1.449   7.959  0.3116 -0.6322  0.2858
   32CHL1  H21A 2347   5.808   1.363   7.923  0.3310 -0.3898 -0.2691
   32CHL1  H21B 2348   5.772   1.461   8.066  0.1131  3.0190  0.0261
   32CHL1  H21C 2349   5.796   1.537   7.912  0.0589 -0.0205  1.1403
   32CHL1   C22 2350   5.537   1.328   8.032  0.1293  0.0565  0.2630
   32CHL1  H22A 2351   5.439   1.290   7.997 -1.4068  2.7641  1.3236
   32CHL1  H22B 2352   5.615   1.249   8.035  0.2629  0.0786 -1.6879
   32CHL1   C23 2353   5.504   1.383   8.182 -0.3012 -0.1033 -0.0376
   32CHL1  H23A 2354   5.605   1.416   8.213  0.2500  1.3890 -3.0421
   32CHL1  H23B 2355   5.439   1.473   8.181 -0.3179 -0.1000 -1.7952
   32CHL1   C24 2356   5.459   1.278   8.280  0.0369  0.2051 -0.0758
   32CHL1  H24A 2357   5.349   1.271   8.262 -0.4082  2.9655  0.9846
   32CHL1  H24B 2358   5.515   1.184   8.261 -0.3654  0.1034 -0.7983
   32CHL1   C25 2359   5.455   1.303   8.437  0.9380  0.4072 -0.5161
   32CHL1   H25 2360   5.556   1.270   8.470  0.8252 -0.4640 -0.9895
   32CHL1   C26 2361   5.437   1.448   8.479 -0.0590 -0.4265 -0.9264
   32CHL1  H26A 2362   5.410   1.458   8.586 -1.1225 -1.2196 -1.1013
   32CHL1  H26B 2363   5.523   1.516   8.458  1.5591 -1.1298  2.7028
   32CHL1  H26C 2364   5.345   1.493   8.435 -0.4590  0.2822  0.5801
   32CHL1   C27 2365   5.346   1.213   8.506  0.3737 -0.6001  0.7931
   32CHL1  H27A 2366   5.376   1.107   8.495  0.1999 -0.5517 -0.2606
   32CHL1  H27B 2367   5.342   1.240   8.614  0.1373  0.1455  0.6068
   32CHL1  H27C 2368   5.241   1.226   8.472  0.2768 -1.7403  0.6402
   33CHL1    C3 2369   5.930   2.279   7.075  0.2544 -0.4419 -0.0033
   33CHL1    H3 2370   5.880   2.369   7.117  1.3303  1.1163 -1.8476
   33CHL1    O3 2371   5.928   2.297   6.930 -0.0776  0.1046 -0.0852
   33CHL1   H3' 2372   6.013   2.337   6.912  0.8637 -1.9742 -0.4290
   33CHL1    C4 2373   6.069   2.270   7.133  0.5511  0.2253 -0.2492
   33CHL1   H4A 2374   6.126   2.190   7.080  0.9771  0.6639 -0.4619
   33CHL1   H4B 2375   6.125   2.364   7.114 -0.2684  0.2287 -2.9555
   33CHL1    C5 2376   6.059   2.246   7.286 -0.3835 -0.1671  0.2134
   33CHL1    C6 2377   6.124   2.330   7.372 -0.5536 -0.0129 -0.3328
   33CHL1    H6 2378   6.187   2.413   7.336  0.8664  0.7051  3.3988
   33CHL1    C7 2379   6.120   2.306   7.519  0.1942  1.0111  0.4768
   33CHL1   H7A 2380   6.220   2.323   7.564  0.7619 -1.4586  0.3405
   33CHL1   H7B 2381   6.051   2.376   7.570  0.6813  1.2905  0.7666
   33CHL1    C8 2382   6.079   2.157   7.553  0.4689 -0.2449  0.4935
   33CHL1    H8 2383   6.165   2.094   7.522  1.6182  1.1898  0.6756
   33CHL1   C14 2384   6.040   2.151   7.697  0.5522 -0.4414  0.8371
   33CHL1   H14 2385   5.951   2.218   7.697  0.1815 -0.8664 -1.5301
   33CHL1   C15 2386   6.130   2.219   7.794  0.0605 -0.1633 -0.1271
   33CHL1  H15A 2387   6.228   2.166   7.787 -0.3894 -0.9906 -0.3450
   33CHL1  H15B 2388   6.150   2.324   7.766 -1.4470  0.0333 -0.5308
   33CHL1   C16 2389   6.059   2.192   7.924 -0.3691  0.7100  0.4522
   33CHL1  H16A 2390   6.134   2.169   8.002 -2.3270 -2.4481  1.6219
   33CHL1  H16B 2391   5.999   2.279   7.958 -1.0898  1.1274 -1.7005
   33CHL1   C17 2392   5.963   2.066   7.904  0.5359 -0.1997  0.0764
   33CHL1   H17 2393   5.857   2.100   7.902 -0.0394 -1.7872  1.3555
   33CHL1   C13 2394   5.990   2.020   7.756 -0.0639  0.1245  0.2899
   33CHL1   C18 2395   6.108   1.920   7.748  0.0883  0.1557 -0.3198
   33CHL1  H18A 2396   6.070   1.822   7.785  0.7752  0.5692  1.5766
   33CHL1  H18B 2397   6.148   1.910   7.645 -0.2387  0.2842 -0.4612
   33CHL1  H18C 2398   6.197   1.953   7.805 -0.8279  0.7488  0.8306
   33CHL1   C12 2399   5.869   1.968   7.675 -0.3916  0.5974 -0.3735
   33CHL1  H12A 2400   5.850   1.863   7.707 -1.0967  0.9887  0.5279
   33CHL1  H12B 2401   5.776   2.024   7.701 -2.7082 -3.2563  0.4255
   33CHL1   C11 2402   5.899   1.977   7.526  0.5126  0.0621  0.0380
   33CHL1  H11A 2403   5.973   1.896   7.507  0.7887  0.6292 -1.4500
   33CHL1  H11B 2404   5.813   1.952   7.460  1.2928  0.7399 -1.2760
   33CHL1    C9 2405   5.945   2.119   7.473  0.6516  0.0251  0.1750
   33CHL1    H9 2406   5.867   2.196   7.489  1.5208  1.0728 -0.5225
   33CHL1   C10 2407   5.975   2.124   7.323  0.6980  0.3395 -0.8853
   33CHL1   C19 2408   6.056   1.998   7.284 -0.0989 -0.1389  0.0018
   33CHL1  H19A 2409   6.139   1.967   7.352 -1.1857 -0.6971  1.0970
   33CHL1  H19B 2410   5.990   1.910   7.295  2.0510 -1.7114  1.2662
   33CHL1  H19C 2411   6.096   1.986   7.181  0.6483  0.9486  0.1480
   33CHL1    C1 2412   5.837   2.126   7.250 -0.0763 -0.7030  0.0939
   33CHL1   H1A 2413   5.778   2.035   7.272 -1.4541  0.4076  1.1890
   33CHL1   H1B 2414   5.763   2.201   7.287 -0.2478 -0.6523 -0.3415
   33CHL1    C2 2415   5.858   2.150   7.100  0.0687 -0.7277 -0.0984
   33CHL1   H2A 2416   5.756   2.149   7.057 -1.0268 -2.0545  2.3255
   33CHL1   H2B 2417   5.916   2.065   7.058 -1.5083 -0.9695 -1.9376
   33CHL1   C20 2418   5.967   1.956   8.011 -0.0588  0.4710  0.7291
   33CHL1   H20 2419   6.072   1.921   8.017  0.6942  2.6966  1.9416
   33CHL1   C21 2420   5.874   1.833   7.977 -0.0487 -0.3325  0.0509
   33CHL1  H21A 2421   5.779   1.876   7.940  0.0389 -1.6567 -1.8441
   33CHL1  H21B 2422   5.866   1.766   8.066  2.4646 -0.8476 -0.0195
   33CHL1  H21C 2423   5.911   1.769   7.894 -0.1247  0.3528 -0.5097
   33CHL1   C22 2424   5.938   2.012   8.150 -0.5578  0.4412  0.0215
   33CHL1  H22A 2425   5.966   2.117   8.169 -0.8708  0.2267  1.8960
   33CHL1  H22B 2426   5.827   2.011   8.165 -0.5755  1.3965 -0.0037
   33CHL1   C23 2427   5.986   1.933   8.275  0.0720 -0.5911  0.2961
   33CHL1  H23A 2428   5.963   1.994   8.365  1.1271 -0.0865  0.2417
   33CHL1  H23B 2429   5.922   1.842   8.284 -0.4116 -0.4996 -1.7284
   33CHL1   C24 2430   6.132   1.899   8.267  0.7063  0.6017  0.8040
   33CHL1  H24A 2431   6.141   1.817   8.192 -1.4291  1.9585 -1.0600
   33CHL1  H24B 2432   6.189   1.985   8.224  0.9100 -0.3132 -0.8629
   33CHL1   C25 2433   6.185   1.843   8.406  0.4750 -0.8105  0.2756
   33CHL1   H25 2434   6.130   1.750   8.430  0.4612 -0.9140 -0.1387
   33CHL1   C26 2435   6.335   1.814   8.394  0.3554  0.2294 -0.2504
   33CHL1  H26A 2436   6.369   1.743   8.316 -1.1645 -2.7299  1.5942
   33CHL1  H26B 2437   6.397   1.906   8.396  0.0170  0.4550  0.8599
   33CHL1  H26C 2438   6.369   1.756   8.482  0.4786 -1.4721 -1.3701
   33CHL1   C27 2439   6.169   1.944   8.526 -0.0335  0.6019  0.4008
   33CHL1  H27A 2440   6.249   2.021   8.534  1.7842 -1.2843  1.1381
   33CHL1  H27B 2441   6.081   2.011   8.516  0.3481  0.9059 -1.1784
   33CHL1  H27C 2442   6.175   1.886   8.620  1.2397  0.5232  0.2845
   34CHL1    C3 2443   6.630   6.438   7.153  0.0229 -0.5018  0.5459
   34CHL1    H3 2444   6.593   6.537   7.185 -0.3741 -0.7598  0.8940
   34CHL1    O3 2445   6.620   6.424   7.016  0.1416  0.1076 -0.0128
   34CHL1   H3' 2446   6.587   6.334   7.008 -2.5207  0.8637  1.2189
   34CHL1    C4 2447   6.782   6.417   7.190 -0.2261 -0.1694 -0.2533
   34CHL1   H4A 2448   6.816   6.315   7.162  1.5446  0.3353 -0.0657
   34CHL1   H4B 2449   6.832   6.499   7.134 -1.1460 -0.1791 -1.0962
   34CHL1    C5 2450   6.804   6.432   7.336 -0.4423 -0.2393  0.2414
   34CHL1    C6 2451   6.891   6.524   7.383  0.8448 -0.3189  0.3015
   34CHL1    H6 2452   6.949   6.591   7.316  1.0791 -0.2863  0.5360
   34CHL1    C7 2453   6.929   6.529   7.529 -0.1061  0.1019 -0.4526
   34CHL1   H7A 2454   7.040   6.526   7.526 -0.1145 -0.3936 -0.4960
   34CHL1   H7B 2455   6.895   6.622   7.578  1.6164  0.2448  0.5615
   34CHL1    C8 2456   6.876   6.410   7.609  0.1516 -0.1296 -0.0154
   34CHL1    H8 2457   6.939   6.319   7.596  0.5489 -0.2646  2.3007
   34CHL1   C14 2458   6.889   6.442   7.754 -0.4399  0.5942 -0.1355
   34CHL1   H14 2459   6.814   6.520   7.779 -0.9099  0.0685  0.1245
   34CHL1   C15 2460   7.024   6.488   7.816 -0.0602  0.4868  1.2930
   34CHL1  H15A 2461   7.104   6.416   7.786 -0.6427  0.0139  0.8370
   34CHL1  H15B 2462   7.061   6.586   7.780 -0.5284  0.5069  0.8531
   34CHL1   C16 2463   6.993   6.476   7.961 -0.2748  0.5790  0.0850
   34CHL1  H16A 2464   7.082   6.447   8.020 -0.1562  0.4071 -0.1771
   34CHL1  H16B 2465   6.965   6.576   8.002  1.1634  0.6979  0.8419
   34CHL1   C17 2466   6.867   6.386   7.986 -0.0752  0.2386  0.2638
   34CHL1   H17 2467   6.784   6.458   8.001 -0.2933  0.3918 -1.4745
   34CHL1   C13 2468   6.847   6.322   7.850 -0.0304 -0.5892 -0.1151
   34CHL1   C18 2469   6.935   6.198   7.831  0.0812 -0.2568  0.2876
   34CHL1  H18A 2470   6.936   6.154   7.729 -1.6649 -0.5337  0.3546
   34CHL1  H18B 2471   7.040   6.215   7.862  0.2008 -0.0438 -0.2278
   34CHL1  H18C 2472   6.902   6.117   7.899  0.6297  0.1532  1.0610
   34CHL1   C12 2473   6.701   6.296   7.812 -0.4633 -0.1037 -0.6102
   34CHL1  H12A 2474   6.656   6.210   7.866 -2.7469  1.4658  0.1519
   34CHL1  H12B 2475   6.629   6.378   7.835  0.1631  0.2012  0.3088
   34CHL1   C11 2476   6.683   6.255   7.666 -0.2893  0.8157  0.4228
   34CHL1  H11A 2477   6.743   6.162   7.662 -1.3451 -0.0655  2.9599
   34CHL1  H11B 2478   6.581   6.236   7.627  0.1805  1.5191 -1.2261
   34CHL1    C9 2479   6.738   6.367   7.569 -0.0548 -0.2967  0.0365
   34CHL1    H9 2480   6.662   6.445   7.588 -1.0230 -1.3406  0.5787
   34CHL1   C10 2481   6.720   6.334   7.420 -0.1516  0.2847 -0.1103
   34CHL1   C19 2482   6.767   6.187   7.410 -0.8254 -0.3214 -0.1958
   34CHL1  H19A 2483   6.870   6.171   7.448 -0.4895 -0.7435 -1.2651
   34CHL1  H19B 2484   6.699   6.115   7.461 -2.0117  0.2033 -0.9769
   34CHL1  H19C 2485   6.765   6.154   7.305  2.4248  2.3170 -1.2554
   34CHL1    C1 2486   6.566   6.345   7.382 -0.0355  0.6464  0.8750
   34CHL1   H1A 2487   6.505   6.263   7.425  0.6976 -2.4820 -3.4419
   34CHL1   H1B 2488   6.528   6.444   7.416  1.5792  1.3106  0.8699
   34CHL1    C2 2489   6.546   6.331   7.228 -0.0015 -1.0499  0.0511
   34CHL1   H2A 2490   6.439   6.346   7.203 -0.0780 -1.4757  0.1079
   34CHL1   H2B 2491   6.572   6.230   7.188 -0.7877 -2.1006  2.0129
   34CHL1   C20 2492   6.883   6.285   8.103  0.5451  0.2399  0.0526
   34CHL1   H20 2493   6.966   6.214   8.083  0.4868 -0.1017  0.9574
   34CHL1   C21 2494   6.755   6.209   8.117 -0.3440 -0.0679 -0.1147
   34CHL1  H21A 2495   6.754   6.152   8.212  1.4393 -0.1497 -0.1145
   34CHL1  H21B 2496   6.748   6.132   8.037 -0.5462  0.9542 -1.1160
   34CHL1  H21C 2497   6.672   6.283   8.123  1.3480  2.1032 -1.5226
   34CHL1   C22 2498   6.921   6.351   8.233 -0.1689 -0.2345  0.0210
   34CHL1  H22A 2499   6.908   6.274   8.312  2.8366 -0.6821  0.2049
   34CHL1  H22B 2500   7.028   6.380   8.239 -0.5286  1.0147  0.6993
   34CHL1   C23 2501   6.842   6.479   8.269  0.3638  0.0144 -0.2680
   34CHL1  H23A 2502   6.855   6.558   8.192  0.4885  0.0157 -0.2460
   34CHL1  H23B 2503   6.734   6.455   8.264  0.5020 -0.4024 -3.4548
   34CHL1   C24 2504   6.878   6.538   8.406  0.2101  0.6602 -0.6458
   34CHL1  H24A 2505   6.809   6.618   8.442 -0.6627 -0.7752  1.0603
   34CHL1  H24B 2506   6.868   6.454   8.477  1.9941 -0.7765 -2.0040
   34CHL1   C25 2507   7.026   6.583   8.414  0.0680 -0.4505  0.4329
   34CHL1   H25 2508   7.087   6.490   8.411  0.9124  0.0388 -3.1807
   34CHL1   C26 2509   7.064   6.682   8.306  0.0730  0.4917  0.2268
   34CHL1  H26A 2510   7.164   6.727   8.320  1.0356 -1.7998  1.1004
   34CHL1  H26B 2511   7.054   6.638   8.204  0.3237 -0.2901  0.5287
   34CHL1  H26C 2512   6.994   6.768   8.309  2.1031  2.3799 -2.3197
   34CHL1   C27 2513   7.054   6.658   8.546 -0.3267 -0.0718  0.2840
   34CHL1  H27A 2514   6.977   6.737   8.557 -0.0453  0.6375 -2.2807
   34CHL1  H27B 2515   7.053   6.589   8.634 -0.4560 -1.1914 -0.5783
   34CHL1  H27C 2516   7.156   6.702   8.549  0.3623 -1.6246  1.1366
   35CHL1    C3 2517   2.953   1.079   7.168  0.2059 -0.3213  0.5951
   35CHL1    H3 2518   2.867   1.135   7.211 -0.3725 -1.7398  1.3444
   35CHL1    O3 2519   2.982   1.117   7.032 -0.0039 -0.6876  0.1491
   35CHL1   H3' 2520   3.075   1.104   7.011 -0.6008 -1.0959 -2.6244
   35CHL1    C4 2521   3.072   1.100   7.263  0.4198  0.0202  0.2676
   35CHL1   H4A 2522   3.162   1.043   7.232 -0.6987 -1.2539 -0.7690
   35CHL1   H4B 2523   3.102   1.205   7.245  1.5784 -0.4265 -0.5301
   35CHL1    C5 2524   3.043   1.067   7.407 -0.5434 -0.4370 -0.2170
   35CHL1    C6 2525   3.073   1.156   7.498 -0.3099 -0.4579  0.1138
   35CHL1    H6 2526   3.127   1.248   7.473 -0.4308 -0.7480 -1.3088
   35CHL1    C7 2527   3.063   1.134   7.641  0.1336  0.5126 -0.6466
   35CHL1   H7A 2528   3.163   1.135   7.688 -0.1984 -1.6303  0.2521
   35CHL1   H7B 2529   2.992   1.211   7.679 -1.3729 -1.4014  0.6321
   35CHL1    C8 2530   3.013   0.989   7.680  0.5898  0.7857 -0.1761
   35CHL1    H8 2531   3.092   0.914   7.697 -0.7813 -0.8315 -0.6637
   35CHL1   C14 2532   2.917   1.002   7.795 -0.3806 -0.3171  0.5394
   35CHL1   H14 2533   2.824   1.055   7.764 -0.2946 -0.6582 -0.3244
   35CHL1   C15 2534   2.969   1.089   7.911 -0.6165 -0.2666 -0.2562
   35CHL1  H15A 2535   3.071   1.051   7.935 -2.2489 -4.5284  0.8495
   35CHL1  H15B 2536   2.978   1.195   7.880  1.3718 -0.2932  0.0964
   35CHL1   C16 2537   2.879   1.054   8.036  0.1806 -0.2837 -0.3958
   35CHL1  H16A 2538   2.941   1.046   8.128  1.2280  2.1385 -0.8217
   35CHL1  H16B 2539   2.807   1.136   8.053 -0.8161 -1.1759 -0.2748
   35CHL1   C17 2540   2.793   0.937   7.984  0.1367 -0.5528 -0.8101
   35CHL1   H17 2541   2.698   0.983   7.949  0.3724  0.3421 -0.2990
   35CHL1   C13 2542   2.869   0.883   7.861 -0.5111  0.7798  0.5581
   35CHL1   C18 2543   2.994   0.794   7.904  0.1256 -0.2814  0.0670
   35CHL1  H18A 2544   3.050   0.758   7.815  0.6066  0.1144  0.2058
   35CHL1  H18B 2545   3.049   0.851   7.982  1.0977 -1.7003  0.4453
   35CHL1  H18C 2546   2.954   0.705   7.957  1.3905 -1.1821 -0.4350
   35CHL1   C12 2547   2.789   0.802   7.757 -0.1955  0.4296  0.5351
   35CHL1  H12A 2548   2.757   0.700   7.785 -0.8942  0.0204 -1.6041
   35CHL1  H12B 2549   2.700   0.868   7.741  0.6783  1.3374 -0.8258
   35CHL1   C11 2550   2.866   0.790   7.621 -0.9662  0.2262 -0.6351
   35CHL1  H11A 2551   2.945   0.712   7.627 -0.0757  1.2099  1.4608
   35CHL1  H11B 2552   2.797   0.761   7.539  0.2855 -1.5066 -1.1286
   35CHL1    C9 2553   2.924   0.924   7.574  0.7199 -0.3129  0.2882
   35CHL1    H9 2554   2.832   0.986   7.566 -0.1186 -1.6090 -0.3263
   35CHL1   C10 2555   2.982   0.927   7.434 -0.6748 -0.0884 -0.0804
   35CHL1   C19 2556   3.104   0.831   7.428  0.0600 -0.6701 -0.4918
   35CHL1  H19A 2557   3.134   0.809   7.323 -2.2993 -3.0911 -0.8027
   35CHL1  H19B 2558   3.183   0.878   7.490 -0.0943 -1.2831  0.1836
   35CHL1  H19C 2559   3.070   0.730   7.460  1.3330 -1.2350 -0.8705
   35CHL1    C1 2560   2.872   0.900   7.330  0.6782  0.3649 -0.2200
   35CHL1   H1A 2561   2.860   0.790   7.324  0.0369  0.2409  2.3417
   35CHL1   H1B 2562   2.772   0.942   7.355 -0.3948 -0.6044 -2.5204
   35CHL1    C2 2563   2.910   0.932   7.184 -0.5273  0.0148  0.2204
   35CHL1   H2A 2564   2.817   0.916   7.125 -1.7892  0.0579  2.1109
   35CHL1   H2B 2565   2.994   0.864   7.158  0.3001  0.5627  1.3584
   35CHL1   C20 2566   2.766   0.835   8.096  0.2326  0.0946  0.6241
   35CHL1   H20 2567   2.851   0.771   8.128 -0.4709 -0.7448  0.8700
   35CHL1   C21 2568   2.664   0.729   8.039  1.3925 -0.6504 -0.2778
   35CHL1  H21A 2569   2.584   0.776   7.979  0.5607 -3.0432 -1.1666
   35CHL1  H21B 2570   2.619   0.681   8.128  0.9448  1.0363  0.4446
   35CHL1  H21C 2571   2.727   0.657   7.980  2.3744  0.7190 -0.9652
   35CHL1   C22 2572   2.709   0.888   8.235  0.1641  0.7423 -0.5603
   35CHL1  H22A 2573   2.705   0.794   8.294 -1.5401  1.0718 -0.0988
   35CHL1  H22B 2574   2.779   0.962   8.280  1.7660 -0.2412 -1.3451
   35CHL1   C23 2575   2.564   0.933   8.239  0.4478 -0.1200 -0.5982
   35CHL1  H23A 2576   2.565   1.040   8.207  3.1983  0.2801  0.6025
   35CHL1  H23B 2577   2.495   0.886   8.165 -0.1719  1.2055 -0.8972
   35CHL1   C24 2578   2.498   0.919   8.379  0.2034 -0.2844  0.5098
   35CHL1  H24A 2579   2.492   0.811   8.405 -0.4508 -0.0757  1.2700
   35CHL1  H24B 2580   2.564   0.979   8.445  2.6711 -1.4915 -0.7383
   35CHL1   C25 2581   2.361   0.979   8.391 -0.1236  0.6696 -0.0051
   35CHL1   H25 2582   2.358   1.077   8.339  1.0359  0.4813 -0.4636
   35CHL1   C26 2583   2.259   0.887   8.321  0.1497 -0.9679 -0.1472
   35CHL1  H26A 2584   2.289   0.882   8.215 -0.6692  0.5380 -0.4705
   35CHL1  H26B 2585   2.254   0.787   8.370 -0.0483 -0.9341 -0.0941
   35CHL1  H26C 2586   2.155   0.928   8.324  0.3963 -0.1252 -2.1282
   35CHL1   C27 2587   2.327   0.998   8.544  0.4882 -0.4283  0.0871
   35CHL1  H27A 2588   2.240   1.067   8.559  1.7507  1.6484 -1.5011
   35CHL1  H27B 2589   2.419   1.014   8.603  0.6546 -3.4287  0.7683
   35CHL1  H27C 2590   2.294   0.900   8.585  1.1221 -0.3296  0.8313
   36CHL1    C3 2591   4.997   2.479   7.181 -0.7128 -0.0765 -0.1450
   36CHL1    H3 2592   4.910   2.547   7.196 -0.7236  0.0714 -0.8244
   36CHL1    O3 2593   5.008   2.451   7.039 -0.1823  0.1352 -0.1071
   36CHL1   H3' 2594   5.037   2.533   7.000  1.7951  0.6658  2.2496
   36CHL1    C4 2595   5.119   2.544   7.239 -0.1271 -0.7224  0.5747
   36CHL1   H4A 2596   5.204   2.483   7.202 -0.6324  0.3804 -2.7451
   36CHL1   H4B 2597   5.131   2.644   7.192 -2.9709 -0.2433  0.6953
   36CHL1    C5 2598   5.119   2.569   7.390  0.3350  0.1694 -0.7481
   36CHL1    C6 2599   5.146   2.687   7.446  0.4473 -0.4865  0.7523
   36CHL1    H6 2600   5.169   2.769   7.376  0.4254 -1.7037 -0.7564
   36CHL1    C7 2601   5.147   2.708   7.594 -0.2031  0.4019 -0.4402
   36CHL1   H7A 2602   5.237   2.765   7.628 -1.1719  1.2139  0.8418
   36CHL1   H7B 2603   5.052   2.760   7.616  0.2054  0.3443  1.6429
   36CHL1    C8 2604   5.162   2.573   7.677 -0.3014 -0.3746 -0.0719
   36CHL1    H8 2605   5.270   2.547   7.675 -0.0874  0.3078  1.3023
   36CHL1   C14 2606   5.132   2.598   7.817  0.7006 -0.3024 -0.5820
   36CHL1   H14 2607   5.029   2.639   7.824 -0.2755 -2.7159  0.3753
   36CHL1   C15 2608   5.207   2.704   7.892 -0.4297  0.6031  0.2544
   36CHL1  H15A 2609   5.315   2.685   7.875 -0.3237 -1.9468  2.9049
   36CHL1  H15B 2610   5.170   2.805   7.863 -0.4876  0.0807 -1.6241
   36CHL1   C16 2611   5.165   2.679   8.039  0.5572 -0.4854 -0.0169
   36CHL1  H16A 2612   5.261   2.693   8.093  2.5291  1.9402 -3.6721
   36CHL1  H16B 2613   5.081   2.739   8.081 -1.6768 -1.3452 -2.8867
   36CHL1   C17 2614   5.111   2.532   8.047  0.0062  0.8650 -0.1458
   36CHL1   H17 2615   5.001   2.540   8.036 -0.2959 -2.3354 -0.5488
   36CHL1   C13 2616   5.148   2.473   7.915  0.0279  0.1946 -0.1522
   36CHL1   C18 2617   5.298   2.431   7.921  0.2247 -0.0222  0.5035
   36CHL1  H18A 2618   5.370   2.508   7.957 -0.4786  1.1530 -0.5197
   36CHL1  H18B 2619   5.300   2.334   7.975 -3.2286 -1.2018 -1.2214
   36CHL1  H18C 2620   5.323   2.395   7.819 -1.0184 -1.6634  0.7423
   36CHL1   C12 2621   5.055   2.369   7.860 -0.1041  0.3694  0.4637
   36CHL1  H12A 2622   5.072   2.277   7.920 -0.5281  0.5687  0.8967
   36CHL1  H12B 2623   4.949   2.400   7.870 -0.2473  1.6383 -3.2892
   36CHL1   C11 2624   5.078   2.337   7.708  0.2322  0.4696  0.1078
   36CHL1  H11A 2625   5.170   2.276   7.700  1.1358  1.4876  1.9863
   36CHL1  H11B 2626   4.997   2.270   7.672  0.9022 -1.4602  1.9784
   36CHL1    C9 2627   5.072   2.461   7.621 -0.5975 -0.0870  0.1588
   36CHL1    H9 2628   4.967   2.495   7.622 -0.8920 -0.7202 -2.4005
   36CHL1   C10 2629   5.100   2.437   7.470 -0.6305  0.0495 -0.4277
   36CHL1   C19 2630   5.217   2.334   7.458  1.2128 -0.1087  0.6942
   36CHL1  H19A 2631   5.189   2.232   7.494  1.3623 -0.5851 -0.4841
   36CHL1  H19B 2632   5.255   2.315   7.355 -0.7348 -0.1351 -0.0646
   36CHL1  H19C 2633   5.308   2.365   7.514  0.6345  1.0764  0.9989
   36CHL1    C1 2634   4.970   2.374   7.410 -0.8058  0.5826  0.2859
   36CHL1   H1A 2635   4.950   2.274   7.455 -1.5191 -0.0957 -1.4283
   36CHL1   H1B 2636   4.880   2.436   7.432 -2.0286 -0.9222 -0.2462
   36CHL1    C2 2637   4.966   2.351   7.254 -0.1275 -0.5778 -0.3525
   36CHL1   H2A 2638   4.861   2.323   7.230 -0.1515 -1.4468  0.7171
   36CHL1   H2B 2639   5.029   2.264   7.223 -0.0851 -0.4482 -0.6330
   36CHL1   C20 2640   5.135   2.443   8.171  0.8211 -0.3141 -0.6234
   36CHL1   H20 2641   5.136   2.336   8.143 -1.1774 -0.4262 -0.3928
   36CHL1   C21 2642   5.007   2.447   8.256  0.9835  0.5259 -0.0733
   36CHL1  H21A 2643   5.003   2.543   8.311  1.4738  1.5883 -1.8208
   36CHL1  H21B 2644   4.997   2.373   8.339 -0.6270 -2.0246 -2.3719
   36CHL1  H21C 2645   4.916   2.429   8.195  1.8731  0.7320 -1.5098
   36CHL1   C22 2646   5.259   2.481   8.256  0.6699 -0.3975 -0.3228
   36CHL1  H22A 2647   5.346   2.497   8.188 -0.8154 -0.3151 -2.2803
   36CHL1  H22B 2648   5.230   2.579   8.300 -3.9379 -1.0671 -1.4321
   36CHL1   C23 2649   5.286   2.374   8.367 -0.3383 -0.0732 -1.1046
   36CHL1  H23A 2650   5.202   2.378   8.439  0.2767 -4.1514  0.0778
   36CHL1  H23B 2651   5.275   2.270   8.328 -2.4912 -0.7236  0.9819
   36CHL1   C24 2652   5.419   2.398   8.442 -0.2981  0.6314 -0.3416
   36CHL1  H24A 2653   5.448   2.302   8.490 -0.5152  0.0096 -1.4315
   36CHL1  H24B 2654   5.494   2.420   8.364  0.0289  0.5533 -0.0500
   36CHL1   C25 2655   5.419   2.524   8.533 -0.4194  0.0149 -0.3335
   36CHL1   H25 2656   5.399   2.618   8.477  0.9066 -0.6077 -1.9416
   36CHL1   C26 2657   5.316   2.526   8.649  0.1993  0.1949 -0.0751
   36CHL1  H26A 2658   5.214   2.500   8.614 -0.0508 -1.2984  1.6133
   36CHL1  H26B 2659   5.339   2.450   8.727 -3.4265 -0.2232  0.7587
   36CHL1  H26C 2660   5.312   2.623   8.704  0.9446 -0.5700  1.4034
   36CHL1   C27 2661   5.569   2.537   8.585  0.4698 -0.5308  0.0468
   36CHL1  H27A 2662   5.640   2.563   8.504 -0.5180  1.0004 -0.3665
   36CHL1  H27B 2663   5.559   2.632   8.641  1.1708  0.0375 -0.7637
   36CHL1  H27C 2664   5.602   2.463   8.661 -2.0056  0.0041  1.7583
   37CHL1    C3 2665   1.139   3.914   7.000 -0.1307  0.0114  0.6742
   37CHL1    H3 2666   1.153   4.015   7.043  1.6113  0.8777 -1.6756
   37CHL1    O3 2667   1.154   3.924   6.855 -0.1055 -0.1870  0.2657
   37CHL1   H3' 2668   1.123   3.844   6.812  0.5277  0.3052 -1.1439
   37CHL1    C4 2669   1.239   3.806   7.057  0.2197  0.1168  0.3436
   37CHL1   H4A 2670   1.215   3.705   7.018  1.2826  0.1230 -0.3796
   37CHL1   H4B 2671   1.340   3.842   7.025 -0.6879  1.3517 -1.3317
   37CHL1    C5 2672   1.217   3.800   7.205  0.2331 -0.3687  0.4265
   37CHL1    C6 2673   1.322   3.834   7.284  0.1416 -0.3230 -0.7102
   37CHL1    H6 2674   1.419   3.863   7.241 -0.3236 -0.3825 -1.8379
   37CHL1    C7 2675   1.310   3.829   7.435 -0.4468  0.0418  0.5324
   37CHL1   H7A 2676   1.412   3.794   7.464 -0.0197  0.1157 -0.8222
   37CHL1   H7B 2677   1.302   3.936   7.465 -1.0960  0.1339  0.0556
   37CHL1    C8 2678   1.198   3.750   7.481  0.2104  0.4906 -0.0644
   37CHL1    H8 2679   1.215   3.643   7.457 -2.2560 -0.0193  0.2112
   37CHL1   C14 2680   1.196   3.759   7.633 -0.9487  0.5080 -0.1320
   37CHL1   H14 2681   1.163   3.865   7.637 -1.8947  0.2638 -1.0544
   37CHL1   C15 2682   1.322   3.759   7.722  0.3235 -0.3531 -0.1544
   37CHL1  H15A 2683   1.391   3.674   7.705  2.0493  0.9452  0.0317
   37CHL1  H15B 2684   1.371   3.858   7.705 -0.6785  0.4960  1.6563
   37CHL1   C16 2685   1.260   3.747   7.857 -0.1007 -0.9264  0.8681
   37CHL1  H16A 2686   1.317   3.669   7.911  0.8255 -1.1105 -0.3123
   37CHL1  H16B 2687   1.286   3.841   7.911  0.6931 -0.3545 -0.4464
   37CHL1   C17 2688   1.107   3.734   7.846 -0.6348 -0.1569 -0.3718
   37CHL1   H17 2689   1.069   3.838   7.855  0.6160  0.3970 -1.2308
   37CHL1   C13 2690   1.084   3.682   7.706  0.5824 -0.1493  0.3217
   37CHL1   C18 2691   1.093   3.525   7.687 -0.2916  0.7562 -0.3505
   37CHL1  H18A 2692   1.006   3.482   7.742 -0.8163 -0.4048 -2.0080
   37CHL1  H18B 2693   1.096   3.498   7.579  2.1454  0.2491 -0.2151
   37CHL1  H18C 2694   1.192   3.494   7.726  0.2722  1.7226 -0.9573
   37CHL1   C12 2695   0.948   3.734   7.635 -0.5445  0.5059  0.4628
   37CHL1  H12A 2696   0.863   3.676   7.677 -0.9573 -1.5993 -2.8930
   37CHL1  H12B 2697   0.933   3.842   7.655 -1.6494  0.8293 -1.7822
   37CHL1   C11 2698   0.951   3.719   7.478 -0.1374 -0.2553 -0.3513
   37CHL1  H11A 2699   0.958   3.609   7.466 -1.0656 -0.3764  0.1432
   37CHL1  H11B 2700   0.859   3.759   7.431  0.6422  0.7414 -1.0732
   37CHL1    C9 2701   1.063   3.792   7.410  0.2800  0.4307  0.3835
   37CHL1    H9 2702   1.043   3.900   7.427 -1.4758  0.3228 -0.7159
   37CHL1   C10 2703   1.072   3.769   7.248 -0.0144  0.2255  0.0164
   37CHL1   C19 2704   1.034   3.617   7.216 -0.1028  0.1769 -0.2019
   37CHL1  H19A 2705   0.925   3.596   7.227  0.3692 -2.6242 -0.0577
   37CHL1  H19B 2706   1.059   3.597   7.110  0.0452  1.8276 -0.5034
   37CHL1  H19C 2707   1.090   3.548   7.283 -0.2582  1.3104  1.1409
   37CHL1    C1 2708   0.970   3.854   7.178  0.0147  0.2102  0.5959
   37CHL1   H1A 2709   0.868   3.810   7.186 -0.5707  1.0569 -1.3968
   37CHL1   H1B 2710   0.978   3.945   7.241  0.5382 -0.4695  1.5245
   37CHL1    C2 2711   0.994   3.884   7.027  0.0948 -0.4883 -0.1353
   37CHL1   H2A 2712   0.927   3.959   6.981 -0.1960  0.4973  1.7786
   37CHL1   H2B 2713   0.968   3.792   6.969  1.4326  0.3382 -2.1534
   37CHL1   C20 2714   1.065   3.653   7.969  0.0740 -0.6368 -0.6830
   37CHL1   H20 2715   1.093   3.546   7.960  2.6193 -0.2893  1.6682
   37CHL1   C21 2716   0.908   3.664   7.969  0.4758 -0.0702 -0.0385
   37CHL1  H21A 2717   0.880   3.628   8.070  0.0624  0.3461 -0.0019
   37CHL1  H21B 2718   0.860   3.596   7.895 -2.1199  1.0808  0.4809
   37CHL1  H21C 2719   0.877   3.765   7.934 -1.0535 -0.8532 -1.0569
   37CHL1   C22 2720   1.119   3.705   8.107  0.1923 -0.3219  0.2849
   37CHL1  H22A 2721   1.228   3.689   8.124  0.5989 -0.2457 -1.8809
   37CHL1  H22B 2722   1.095   3.813   8.100 -0.3933 -0.5614 -2.6602
   37CHL1   C23 2723   1.056   3.644   8.227  0.2726  0.5025 -0.5043
   37CHL1  H23A 2724   0.962   3.698   8.254  1.1180  0.9366  1.8482
   37CHL1  H23B 2725   1.033   3.537   8.210  2.1673  0.1146 -0.7743
   37CHL1   C24 2726   1.150   3.644   8.348 -0.2910 -0.3967  0.5674
   37CHL1  H24A 2727   1.240   3.585   8.321  0.5040  0.8488  0.3990
   37CHL1  H24B 2728   1.191   3.746   8.364 -1.8534  0.6458 -1.5673
   37CHL1   C25 2729   1.076   3.588   8.473 -0.4093 -0.1944 -0.2275
   37CHL1   H25 2730   0.990   3.655   8.492  0.5494  1.1421 -0.4944
   37CHL1   C26 2731   1.032   3.444   8.461  0.7987  0.4961  0.6779
   37CHL1  H26A 2732   0.962   3.424   8.378  0.0046  0.5822  1.3146
   37CHL1  H26B 2733   1.120   3.376   8.451 -0.2293 -0.9035  0.8148
   37CHL1  H26C 2734   0.971   3.408   8.547 -0.1187  0.1113 -0.1160
   37CHL1   C27 2735   1.177   3.598   8.590 -0.6669 -0.7116 -0.3414
   37CHL1  H27A 2736   1.185   3.704   8.621 -0.7724 -0.5482 -0.8534
   37CHL1  H27B 2737   1.148   3.537   8.678 -2.8756 -0.4875 -0.8717
   37CHL1  H27C 2738   1.280   3.563   8.565  0.0023  0.0194  1.2968
   38CHL1    C3 2739   4.256   5.103   6.605  0.1870 -0.2354 -0.2577
   38CHL1    H3 2740   4.341   5.058   6.659  0.8981  1.0679 -0.2496
   38CHL1    O3 2741   4.247   5.060   6.471 -0.3420  0.3035 -0.1953
   38CHL1   H3' 2742   4.162   5.017   6.462  0.4207 -1.1903 -0.6103
   38CHL1    C4 2743   4.123   5.062   6.671  0.2832 -0.6066  0.2814
   38CHL1   H4A 2744   4.035   5.115   6.627 -0.4759 -1.3916  0.8177
   38CHL1   H4B 2745   4.108   4.953   6.657  0.4447 -0.6731  0.6276
   38CHL1    C5 2746   4.117   5.106   6.817  0.3067 -0.2123  0.1688
   38CHL1    C6 2747   4.108   5.018   6.919 -0.7582 -0.2374 -0.5470
   38CHL1    H6 2748   4.089   4.911   6.904  1.3413 -0.6558 -0.5268
   38CHL1    C7 2749   4.131   5.059   7.059 -0.3148  0.5567  0.0119
   38CHL1   H7A 2750   4.064   4.997   7.122  0.2978 -0.1400 -0.0162
   38CHL1   H7B 2751   4.237   5.038   7.086 -0.2728 -0.0873 -0.6535
   38CHL1    C8 2752   4.089   5.204   7.078 -0.1706 -0.0334 -0.3741
   38CHL1    H8 2753   3.979   5.209   7.064 -0.0629 -0.5178 -1.5375
   38CHL1   C14 2754   4.124   5.242   7.222  0.4559 -0.4899  0.2494
   38CHL1   H14 2755   4.233   5.222   7.225  0.3580 -1.1001 -0.0607
   38CHL1   C15 2756   4.073   5.151   7.335 -0.2970 -0.2070 -0.1864
   38CHL1  H15A 2757   3.969   5.129   7.303 -0.4184 -0.0221  0.0793
   38CHL1  H15B 2758   4.131   5.056   7.330 -1.4282 -1.1560  2.5455
   38CHL1   C16 2759   4.076   5.242   7.458  0.4823 -0.1871  0.2995
   38CHL1  H16A 2760   3.972   5.256   7.495  0.2759 -0.2473 -0.2563
   38CHL1  H16B 2761   4.140   5.199   7.538  1.4270  1.2725  0.3698
   38CHL1   C17 2762   4.137   5.377   7.413 -0.4323  0.2178  0.2872
   38CHL1   H17 2763   4.247   5.368   7.428 -0.6342  0.1254  1.9916
   38CHL1   C13 2764   4.096   5.389   7.265  0.0811  0.1319 -0.4438
   38CHL1   C18 2765   3.949   5.427   7.254 -0.0573  0.1539  0.4124
   38CHL1  H18A 2766   3.929   5.533   7.280  1.1438  0.0717  1.7938
   38CHL1  H18B 2767   3.917   5.407   7.150  1.4927 -0.8705  0.0939
   38CHL1  H18C 2768   3.889   5.359   7.319 -0.1416 -0.3954 -0.2321
   38CHL1   C12 2769   4.174   5.477   7.160  0.4499 -0.3530 -0.0211
   38CHL1  H12A 2770   4.148   5.585   7.165  0.7323 -0.3078  0.6700
   38CHL1  H12B 2771   4.280   5.464   7.190  0.8357  2.7204  0.2571
   38CHL1   C11 2772   4.143   5.444   7.015  0.1965 -0.2289 -0.8219
   38CHL1  H11A 2773   4.039   5.466   6.985 -0.9015 -0.2333  2.5214
   38CHL1  H11B 2774   4.214   5.508   6.958  0.6747 -0.0680 -0.0582
   38CHL1    C9 2775   4.161   5.294   6.982 -0.2901  0.4256  1.7773
   38CHL1    H9 2776   4.269   5.279   7.007 -0.9629 -4.7505  2.7047
   38CHL1   C10 2777   4.138   5.256   6.834  0.1073  0.0665  0.3338
   38CHL1   C19 2778   4.011   5.326   6.777  0.1801 -0.1654  0.0965
   38CHL1  H19A 2779   3.918   5.296   6.831 -0.5946  1.2658 -0.3964
   38CHL1  H19B 2780   4.026   5.436   6.780  2.6137 -0.4724  0.7663
   38CHL1  H19C 2781   3.991   5.311   6.669 -0.4488  1.0558  0.0326
   38CHL1    C1 2782   4.260   5.294   6.757 -0.3786 -0.0730 -0.2071
   38CHL1   H1A 2783   4.261   5.405   6.753 -1.1326 -0.0913 -1.3279
   38CHL1   H1B 2784   4.354   5.265   6.809  0.8699  1.8094 -1.3047
   38CHL1    C2 2785   4.265   5.257   6.618  0.1280 -0.1705  0.0404
   38CHL1   H2A 2786   4.363   5.289   6.576  0.8260 -0.8232  1.1371
   38CHL1   H2B 2787   4.183   5.302   6.557  1.3341  0.6911 -1.0182
   38CHL1   C20 2788   4.100   5.487   7.507 -0.1193 -0.1910 -0.7124
   38CHL1   H20 2789   4.000   5.529   7.485  0.3982  1.5799  0.1675
   38CHL1   C21 2790   4.199   5.599   7.476 -0.1526  0.3631 -0.2406
   38CHL1  H21A 2791   4.305   5.584   7.505 -0.1442 -0.2384 -0.5760
   38CHL1  H21B 2792   4.166   5.686   7.537  2.2722 -0.4583  2.5082
   38CHL1  H21C 2793   4.192   5.635   7.371 -2.6425  1.5571  0.2483
   38CHL1   C22 2794   4.119   5.441   7.653  0.2962  0.0150 -0.9389
   38CHL1  H22A 2795   4.042   5.371   7.692  1.1222  0.1961  1.1214
   38CHL1  H22B 2796   4.211   5.379   7.663  1.0216  1.1448 -0.5290
   38CHL1   C23 2797   4.133   5.554   7.764  0.0680  0.8338  0.3598
   38CHL1  H23A 2798   4.227   5.607   7.738  1.7589 -1.4347  1.5056
   38CHL1  H23B 2799   4.040   5.613   7.767  1.2872  2.8136  1.0237
   38CHL1   C24 2800   4.145   5.489   7.895  0.4877  0.3147 -0.2252
   38CHL1  H24A 2801   4.051   5.436   7.920  0.0195  1.5516  0.7992
   38CHL1  H24B 2802   4.232   5.421   7.886 -0.1860 -0.5004 -0.6480
   38CHL1   C25 2803   4.176   5.584   8.003 -0.3473 -0.1024 -0.2491
   38CHL1   H25 2804   4.084   5.644   8.020 -0.0409  0.2397  0.2218
   38CHL1   C26 2805   4.210   5.499   8.124  0.0278 -0.0152  0.7817
   38CHL1  H26A 2806   4.132   5.429   8.160  0.7198 -1.4198 -0.3608
   38CHL1  H26B 2807   4.300   5.436   8.111 -0.2547 -0.6065  1.6052
   38CHL1  H26C 2808   4.222   5.568   8.210  3.9266  1.4454 -0.7014
   38CHL1   C27 2809   4.290   5.687   7.976  0.4202  0.0832  0.3489
   38CHL1  H27A 2810   4.379   5.633   7.937  1.3610  0.3357  2.0332
   38CHL1  H27B 2811   4.259   5.769   7.908  0.8855 -1.1730 -1.4438
   38CHL1  H27C 2812   4.318   5.740   8.069 -1.3419 -1.1946  1.6826
   39CHL1    C3 2813   4.190   3.182   7.018 -0.6224  0.4461  0.5347
   39CHL1    H3 2814   4.222   3.283   6.984 -0.2201  0.6546  1.4977
   39CHL1    O3 2815   4.136   3.114   6.907 -0.4253 -0.0992  0.2379
   39CHL1   H3' 2816   4.133   3.023   6.939 -0.1204 -0.4046 -0.5585
   39CHL1    C4 2817   4.305   3.094   7.074  0.1996 -0.6301 -0.5674
   39CHL1   H4A 2818   4.267   2.993   7.101 -0.4110 -0.0810  0.6943
   39CHL1   H4B 2819   4.377   3.077   6.991 -0.0587  1.1851 -1.2210
   39CHL1    C5 2820   4.364   3.147   7.200  0.1449  0.2180  0.5825
   39CHL1    C6 2821   4.490   3.177   7.216 -0.2934  0.0422  0.5833
   39CHL1    H6 2822   4.554   3.164   7.127 -1.5152  1.2184 -0.5165
   39CHL1    C7 2823   4.561   3.223   7.345 -0.4086 -0.2617 -0.5059
   39CHL1   H7A 2824   4.657   3.172   7.366 -2.1151 -2.2368  3.5589
   39CHL1   H7B 2825   4.583   3.331   7.341 -1.0492 -0.1552 -1.7377
   39CHL1    C8 2826   4.468   3.208   7.472 -0.6580  1.0947 -0.1175
   39CHL1    H8 2827   4.469   3.101   7.501  0.6496  1.2211  0.3677
   39CHL1   C14 2828   4.526   3.288   7.592  0.1462 -0.1847  0.8371
   39CHL1   H14 2829   4.514   3.393   7.558  0.5216 -0.7630 -1.2559
   39CHL1   C15 2830   4.668   3.272   7.634 -0.5870  0.0027 -0.7344
   39CHL1  H15A 2831   4.695   3.164   7.629 -1.6561 -0.2556 -1.1578
   39CHL1  H15B 2832   4.737   3.327   7.566  1.6888 -1.3796  0.3124
   39CHL1   C16 2833   4.660   3.308   7.780 -0.1978 -0.4895 -0.2931
   39CHL1  H16A 2834   4.685   3.220   7.843 -2.5527 -0.4498  0.8017
   39CHL1  H16B 2835   4.729   3.391   7.805  1.1545 -2.0119  1.2225
   39CHL1   C17 2836   4.518   3.356   7.820 -0.0428  0.7557  0.2796
   39CHL1   H17 2837   4.502   3.461   7.786 -0.5783  0.4795 -0.3300
   39CHL1   C13 2838   4.437   3.274   7.720  0.1574 -0.1781 -0.2202
   39CHL1   C18 2839   4.421   3.134   7.770  0.5855  0.8023 -0.6561
   39CHL1  H18A 2840   4.385   3.069   7.688  0.9759  0.0287 -0.2266
   39CHL1  H18B 2841   4.516   3.083   7.797 -0.7458 -0.1811  2.6893
   39CHL1  H18C 2842   4.348   3.117   7.852  1.7523  0.8559  0.4214
   39CHL1   C12 2843   4.303   3.336   7.678  0.3681  0.2369  0.3206
   39CHL1  H12A 2844   4.227   3.323   7.759 -0.4827 -1.7341 -0.7280
   39CHL1  H12B 2845   4.302   3.446   7.658  1.2054  0.0907 -0.5510
   39CHL1   C11 2846   4.227   3.266   7.558 -0.4380 -0.2322 -0.0504
   39CHL1  H11A 2847   4.190   3.167   7.591 -2.6696  0.5762  0.0161
   39CHL1  H11B 2848   4.139   3.326   7.527  0.1390  1.3142  1.1915
   39CHL1    C9 2849   4.325   3.249   7.434  0.0084 -0.7350 -0.0436
   39CHL1    H9 2850   4.338   3.355   7.402  1.0033 -0.7544  0.2640
   39CHL1   C10 2851   4.261   3.168   7.319  0.6293  0.0933 -0.7163
   39CHL1   C19 2852   4.232   3.025   7.372  0.4612 -0.1483 -0.1176
   39CHL1  H19A 2853   4.187   2.959   7.295  2.5378  0.3894 -1.8814
   39CHL1  H19B 2854   4.326   2.980   7.410  0.2465 -1.0978 -0.6739
   39CHL1  H19C 2855   4.163   3.026   7.460 -0.4382 -0.8462 -0.8007
   39CHL1    C1 2856   4.125   3.233   7.263 -0.3992  0.4544  0.4537
   39CHL1   H1A 2857   4.045   3.220   7.339 -1.9022  0.7691 -1.0366
   39CHL1   H1B 2858   4.146   3.342   7.248  0.9074  0.4885  2.1989
   39CHL1    C2 2859   4.079   3.195   7.120 -0.7832  0.4174  0.1292
   39CHL1   H2A 2860   4.009   3.273   7.083 -0.5364  1.1132  1.0994
   39CHL1   H2B 2861   4.033   3.095   7.134  0.6495 -0.1925  0.5433
   39CHL1   C20 2862   4.489   3.339   7.969  0.3419 -0.1770 -0.2857
   39CHL1   H20 2863   4.505   3.234   8.003 -0.7489 -0.8739 -1.8273
   39CHL1   C21 2864   4.344   3.371   8.012 -0.2048  0.7640 -0.0151
   39CHL1  H21A 2865   4.322   3.333   8.114  0.4866 -0.7826 -0.4183
   39CHL1  H21B 2866   4.274   3.318   7.944  0.2943 -0.6989  0.5826
   39CHL1  H21C 2867   4.303   3.472   7.988 -3.5124 -0.5544 -0.4691
   39CHL1   C22 2868   4.578   3.442   8.046  0.1506  0.8914  0.1345
   39CHL1  H22A 2869   4.682   3.410   8.028  0.0228 -1.6335  3.0833
   39CHL1  H22B 2870   4.558   3.545   8.009  0.0283  0.6433 -0.4942
   39CHL1   C23 2871   4.561   3.437   8.201  0.8262 -0.5104 -0.4904
   39CHL1  H23A 2872   4.631   3.509   8.248 -1.3431  1.8665 -0.6788
   39CHL1  H23B 2873   4.464   3.474   8.241  1.1479 -0.7235  0.5269
   39CHL1   C24 2874   4.589   3.298   8.266 -0.6625  0.1948  1.0233
   39CHL1  H24A 2875   4.549   3.210   8.211  0.2749 -0.1837  0.9229
   39CHL1  H24B 2876   4.698   3.282   8.255 -0.9475 -0.9356 -0.5829
   39CHL1   C25 2877   4.551   3.269   8.419 -0.0927 -0.0395  0.5129
   39CHL1   H25 2878   4.612   3.181   8.449  0.1298 -1.0729 -2.6657
   39CHL1   C26 2879   4.592   3.389   8.504 -0.0731  0.1165  0.6107
   39CHL1  H26A 2880   4.703   3.403   8.509  0.3023 -2.0806 -0.3052
   39CHL1  H26B 2881   4.546   3.479   8.459  0.8795  0.3501  0.0790
   39CHL1  H26C 2882   4.555   3.393   8.609 -1.8941  1.0579 -0.0255
   39CHL1   C27 2883   4.408   3.224   8.448  0.3324 -0.1525 -0.8707
   39CHL1  H27A 2884   4.338   3.310   8.449  0.7252  0.2051 -2.4201
   39CHL1  H27B 2885   4.377   3.143   8.379 -0.2789 -0.0318 -0.7469
   39CHL1  H27C 2886   4.391   3.185   8.551  1.2786  1.1192 -0.2113
   40CHL1    C3 2887   6.558   2.426   7.068  0.1805 -0.6257 -0.9574
   40CHL1    H3 2888   6.525   2.502   7.143  2.3806 -0.4960 -0.0548
   40CHL1    O3 2889   6.549   2.494   6.941 -0.2829 -0.3266 -0.1633
   40CHL1   H3' 2890   6.576   2.423   6.882 -0.4952  0.4561 -1.2250
   40CHL1    C4 2891   6.702   2.383   7.109 -0.1773 -0.1417  0.8751
   40CHL1   H4A 2892   6.726   2.308   7.030 -1.3218  0.0373  0.3316
   40CHL1   H4B 2893   6.772   2.466   7.089 -0.9681  0.3430  0.0198
   40CHL1    C5 2894   6.696   2.340   7.254 -0.4683 -0.4114 -0.2613
   40CHL1    C6 2895   6.766   2.407   7.350  0.2061  0.2147 -0.4427
   40CHL1    H6 2896   6.831   2.493   7.324 -0.4712  1.0218  0.4748
   40CHL1    C7 2897   6.766   2.356   7.492  0.7231  0.6979 -0.3055
   40CHL1   H7A 2898   6.868   2.343   7.534  0.5917  0.4872 -0.0512
   40CHL1   H7B 2899   6.713   2.428   7.558 -1.4396 -1.0482 -0.0221
   40CHL1    C8 2900   6.705   2.213   7.508 -0.4890 -0.1294 -0.1295
   40CHL1    H8 2901   6.778   2.139   7.469  1.0652  0.1868  2.0042
   40CHL1   C14 2902   6.680   2.194   7.656  0.3477 -0.1268  0.8367
   40CHL1   H14 2903   6.613   2.273   7.696  1.2079 -0.0837  2.2804
   40CHL1   C15 2904   6.799   2.217   7.747 -0.7018 -1.0594 -0.6009
   40CHL1  H15A 2905   6.889   2.174   7.698 -0.1221 -0.2585 -0.2771
   40CHL1  H15B 2906   6.815   2.326   7.763 -2.1465 -0.4407 -2.9786
   40CHL1   C16 2907   6.763   2.140   7.876  0.6904 -0.0952 -0.4588
   40CHL1  H16A 2908   6.844   2.065   7.890 -0.8260 -2.1386 -2.1894
   40CHL1  H16B 2909   6.758   2.208   7.964 -2.4635 -0.9656  0.1678
   40CHL1   C17 2910   6.619   2.072   7.853  1.0976 -0.5369 -0.4175
   40CHL1   H17 2911   6.541   2.146   7.882  0.8555 -0.5689 -0.9697
   40CHL1   C13 2912   6.614   2.065   7.692  1.1295  0.0211  0.5576
   40CHL1   C18 2913   6.694   1.942   7.644  0.3157  0.6582  0.1759
   40CHL1  H18A 2914   6.782   1.933   7.711  0.9919 -0.1725 -0.7916
   40CHL1  H18B 2915   6.630   1.852   7.658  0.0377  0.8378  0.0750
   40CHL1  H18C 2916   6.719   1.946   7.536 -3.2840 -0.7410 -0.8698
   40CHL1   C12 2917   6.471   2.070   7.632  0.7644  0.4342  0.2269
   40CHL1  H12A 2918   6.409   1.979   7.649 -2.2695  2.5095  0.9649
   40CHL1  H12B 2919   6.421   2.157   7.679  2.7897  2.3300 -0.9502
   40CHL1   C11 2920   6.479   2.089   7.474  0.1760  0.6545 -0.2575
   40CHL1  H11A 2921   6.536   1.998   7.446  0.5783 -0.7095  4.0929
   40CHL1  H11B 2922   6.378   2.100   7.429 -0.8505 -1.5120  1.2812
   40CHL1    C9 2923   6.569   2.207   7.435 -0.4431  0.7153  0.3607
   40CHL1    H9 2924   6.512   2.296   7.471 -1.0623  1.2300 -1.7579
   40CHL1   C10 2925   6.595   2.229   7.284  0.1287  0.2238 -0.2058
   40CHL1   C19 2926   6.653   2.102   7.224  0.0572 -0.3641 -0.2437
   40CHL1  H19A 2927   6.751   2.072   7.267 -0.9496 -0.1700  2.4063
   40CHL1  H19B 2928   6.579   2.020   7.240 -0.6107  0.2139 -0.2839
   40CHL1  H19C 2929   6.649   2.124   7.115  0.0464 -0.3672 -0.2433
   40CHL1    C1 2930   6.454   2.255   7.215  0.2088 -0.4678  0.1099
   40CHL1   H1A 2931   6.392   2.164   7.199  1.3379 -1.5565  1.5728
   40CHL1   H1B 2932   6.401   2.329   7.279 -1.0768 -0.2063 -1.2115
   40CHL1    C2 2933   6.455   2.320   7.078  0.2677  0.3162  0.2652
   40CHL1   H2A 2934   6.358   2.369   7.054 -0.2612 -0.2603  1.1368
   40CHL1   H2B 2935   6.469   2.259   6.986 -1.7494  2.5612 -1.6676
   40CHL1   C20 2936   6.611   1.949   7.942 -0.4643 -0.0369  0.5919
   40CHL1   H20 2937   6.673   1.867   7.899 -0.5839  0.5169 -0.6813
   40CHL1   C21 2938   6.467   1.899   7.938 -0.3015 -0.2858 -0.0133
   40CHL1  H21A 2939   6.461   1.804   7.996  0.7954  0.7805  1.9835
   40CHL1  H21B 2940   6.447   1.883   7.830  0.7661  1.0866 -0.4454
   40CHL1  H21C 2941   6.387   1.963   7.980  0.2689  0.6922 -0.3936
   40CHL1   C22 2942   6.654   1.974   8.083  0.4447 -0.6510  0.3733
   40CHL1  H22A 2943   6.633   1.878   8.136  3.3190 -0.8469  1.3699
   40CHL1  H22B 2944   6.765   1.963   8.082  0.6046  0.9098  0.0315
   40CHL1   C23 2945   6.594   2.091   8.161 -0.0067  0.3832 -0.0482
   40CHL1  H23A 2946   6.574   2.186   8.108 -1.7356 -0.3925 -0.8516
   40CHL1  H23B 2947   6.495   2.061   8.200  0.2152 -1.0945 -0.5135
   40CHL1   C24 2948   6.679   2.124   8.289 -0.2780  0.3646 -0.0073
   40CHL1  H24A 2949   6.663   2.038   8.357 -1.5704 -0.2411 -1.0305
   40CHL1  H24B 2950   6.780   2.134   8.245 -0.3528 -0.2535 -0.3214
   40CHL1   C25 2951   6.646   2.256   8.350  0.4376  0.4918  0.0819
   40CHL1   H25 2952   6.537   2.276   8.336  0.3747  0.9894  1.1689
   40CHL1   C26 2953   6.691   2.274   8.498 -0.4782  0.3016 -1.1403
   40CHL1  H26A 2954   6.799   2.250   8.510 -0.7583  0.2572  2.0761
   40CHL1  H26B 2955   6.684   2.380   8.531  0.0810  0.0494 -0.1699
   40CHL1  H26C 2956   6.634   2.207   8.566 -1.4558  0.6222 -1.6325
   40CHL1   C27 2957   6.707   2.373   8.275  0.2278 -0.3775  0.7219
   40CHL1  H27A 2958   6.678   2.368   8.168  2.8499 -0.1590 -0.0705
   40CHL1  H27B 2959   6.689   2.480   8.298  0.0320 -0.1363 -0.5043
   40CHL1  H27C 2960   6.818   2.364   8.274  0.3826  1.3004 -0.6596
   41CHL1    C3 2961   0.304   3.243   6.973  0.3325 -0.5054  0.4498
   41CHL1    H3 2962   0.414   3.255   6.989  0.3309 -0.0677  0.1440
   41CHL1    O3 2963   0.277   3.246   6.835  0.6573  0.3530 -0.5250
   41CHL1   H3' 2964   0.181   3.255   6.836  0.4874 -1.1907 -0.0365
   41CHL1    C4 2965   0.253   3.116   7.039  0.3023 -0.5236 -0.2517
   41CHL1   H4A 2966   0.155   3.099   6.989 -0.6304  4.3357 -0.5689
   41CHL1   H4B 2967   0.317   3.033   7.004  0.3883 -0.2336 -0.7845
   41CHL1    C5 2968   0.242   3.117   7.193 -0.8058 -0.6880  0.3397
   41CHL1    C6 2969   0.299   3.015   7.261 -0.2079  0.0085 -0.9120
   41CHL1    H6 2970   0.346   2.935   7.202 -1.2232 -0.4108 -1.1608
   41CHL1    C7 2971   0.310   3.004   7.412  0.0152 -0.5263  0.0991
   41CHL1   H7A 2972   0.265   2.909   7.446  0.8410 -1.4649 -1.3242
   41CHL1   H7B 2973   0.418   3.012   7.437  0.1451  1.7488 -0.8663
   41CHL1    C8 2974   0.218   3.115   7.476  0.8289  0.1469  0.3068
   41CHL1    H8 2975   0.115   3.077   7.462  1.4805 -0.8518 -2.3657
   41CHL1   C14 2976   0.248   3.135   7.624 -0.0883 -0.0996  0.2786
   41CHL1   H14 2977   0.355   3.164   7.619 -0.3901  1.0449  0.0026
   41CHL1   C15 2978   0.251   3.003   7.712 -0.1296  0.0050 -0.6071
   41CHL1  H15A 2979   0.155   2.951   7.692 -1.0623  1.8468 -1.1211
   41CHL1  H15B 2980   0.332   2.936   7.676 -1.2905 -0.2153 -3.0692
   41CHL1   C16 2981   0.250   3.059   7.855 -0.2923  0.0086  0.3513
   41CHL1  H16A 2982   0.158   3.017   7.901 -0.1016 -0.6562  0.1467
   41CHL1  H16B 2983   0.343   3.033   7.911  0.6593 -0.3738 -1.3088
   41CHL1   C17 2984   0.240   3.215   7.842 -0.3284  0.4924 -0.5449
   41CHL1   H17 2985   0.340   3.263   7.839 -0.0269 -0.1452 -0.8664
   41CHL1   C13 2986   0.176   3.237   7.703 -0.4735 -0.0804 -0.0099
   41CHL1   C18 2987   0.030   3.199   7.706  0.3647  0.6835 -0.2450
   41CHL1  H18A 2988   0.012   3.105   7.762  2.1526  1.5421  1.9589
   41CHL1  H18B 2989  -0.028   3.281   7.752 -0.0933 -0.1018  0.6057
   41CHL1  H18C 2990  -0.007   3.177   7.604 -2.9036 -0.6040  1.1102
   41CHL1   C12 2991   0.218   3.372   7.628  0.5771  0.3100 -0.4203
   41CHL1  H12A 2992   0.158   3.456   7.669  0.4284  1.0835 -2.1590
   41CHL1  H12B 2993   0.328   3.387   7.640  0.2762  0.5060  3.3786
   41CHL1   C11 2994   0.171   3.366   7.482 -0.2280 -0.0401  0.0024
   41CHL1  H11A 2995   0.060   3.365   7.484 -0.2818  1.8026 -0.4715
   41CHL1  H11B 2996   0.198   3.459   7.427 -0.0352  0.1820  0.4659
   41CHL1    C9 2997   0.233   3.248   7.408 -0.0137  0.5845  0.4677
   41CHL1    H9 2998   0.342   3.270   7.414  0.2187 -0.1321 -0.9100
   41CHL1   C10 2999   0.197   3.248   7.256  0.7553  0.3523 -0.3070
   41CHL1   C19 3000   0.040   3.220   7.242 -0.0259  0.2036 -0.6597
   41CHL1  H19A 3001  -0.023   3.300   7.287 -0.8706  0.2054 -1.8142
   41CHL1  H19B 3002  -0.002   3.216   7.140 -3.0561  1.0722  0.4465
   41CHL1  H19C 3003   0.008   3.121   7.282  2.3190  0.1105  1.1701
   41CHL1    C1 3004   0.249   3.370   7.178 -0.2491 -0.2293  0.1974
   41CHL1   H1A 3005   0.183   3.452   7.215 -0.6332  0.0300 -1.0181
   41CHL1   H1B 3006   0.352   3.380   7.218  0.5390 -1.1082 -1.4976
   41CHL1    C2 3007   0.238   3.372   7.028  0.4001  0.0495  0.7942
   41CHL1   H2A 3008   0.283   3.466   6.989  0.6007  0.2536  1.4915
   41CHL1   H2B 3009   0.129   3.371   7.006  0.3528  1.0760  0.9106
   41CHL1   C20 3010   0.162   3.271   7.967  0.0179  0.2642 -0.8006
   41CHL1   H20 3011   0.054   3.247   7.960 -0.7430  2.7882  0.7955
   41CHL1   C21 3012   0.158   3.432   7.966 -0.9541 -0.1879  0.9124
   41CHL1  H21A 3013   0.099   3.478   7.884  0.8970  2.8401  1.1251
   41CHL1  H21B 3014   0.259   3.478   7.961 -0.7010 -0.7262  1.0990
   41CHL1  H21C 3015   0.104   3.473   8.055 -2.3321 -1.9535  0.9236
   41CHL1   C22 3016   0.202   3.219   8.111  0.0400  0.2502  0.8639
   41CHL1  H22A 3017   0.144   3.288   8.176 -2.4552  1.0313 -1.9731
   41CHL1  H22B 3018   0.159   3.117   8.110 -0.6870  0.4974 -2.4648
   41CHL1   C23 3019   0.351   3.215   8.153  0.8562 -0.3043  1.1260
   41CHL1  H23A 3020   0.403   3.150   8.080 -1.2329  0.2216 -0.9709
   41CHL1  H23B 3021   0.396   3.316   8.146 -2.3901  1.1745 -0.7329
   41CHL1   C24 3022   0.376   3.152   8.290 -0.2684  0.7353 -0.5740
   41CHL1  H24A 3023   0.356   3.044   8.272 -0.7246  0.9376 -1.3546
   41CHL1  H24B 3024   0.484   3.156   8.313 -0.4440  1.6500  0.1400
   41CHL1   C25 3025   0.292   3.212   8.405  0.2098 -0.0847 -0.4565
   41CHL1   H25 3026   0.182   3.219   8.393  0.1324  0.5649  0.5414
   41CHL1   C26 3027   0.318   3.122   8.523 -0.0545  0.3784  0.1853
   41CHL1  H26A 3028   0.279   3.160   8.620  0.5232  1.0662  0.1594
   41CHL1  H26B 3029   0.297   3.013   8.520 -0.6319  0.3124  3.3118
   41CHL1  H26C 3030   0.429   3.121   8.522 -0.0521 -0.6271 -1.5743
   41CHL1   C27 3031   0.342   3.346   8.433 -0.2414  0.1944 -0.6106
   41CHL1  H27A 3032   0.302   3.386   8.529  0.4004  0.3188 -0.3873
   41CHL1  H27B 3033   0.452   3.342   8.449 -0.4587 -0.2546  0.9521
   41CHL1  H27C 3034   0.313   3.418   8.354 -0.9814  0.6346  0.0490
   42CHL1    C3 3035   1.629   0.369   7.151  0.1389  0.1786  0.2801
   42CHL1    H3 3036   1.637   0.479   7.136  2.7411  0.1592  0.9807
   42CHL1    O3 3037   1.673   0.294   7.035  0.7865 -0.6253  0.7489
   42CHL1   H3' 3038   1.768   0.305   7.030  0.9250 -0.2989  3.0754
   42CHL1    C4 3039   1.706   0.311   7.274 -0.2445  0.1229  0.2414
   42CHL1   H4A 3040   1.685   0.203   7.283  1.6717 -0.2506  0.7046
   42CHL1   H4B 3041   1.815   0.331   7.264 -0.5243  3.4746  2.2238
   42CHL1    C5 3042   1.658   0.370   7.397 -0.2362  0.2595  0.1761
   42CHL1    C6 3043   1.744   0.424   7.487  0.1614  0.8146 -0.2739
   42CHL1    H6 3044   1.851   0.433   7.465  0.3340 -0.3243  0.0452
   42CHL1    C7 3045   1.692   0.477   7.616  0.7868  0.2258  0.1666
   42CHL1   H7A 3046   1.763   0.446   7.697 -2.0162 -0.5621  2.5022
   42CHL1   H7B 3047   1.694   0.588   7.616  1.1341  0.2566 -2.1177
   42CHL1    C8 3048   1.551   0.434   7.664 -0.2646  0.1342 -0.1523
   42CHL1    H8 3049   1.556   0.329   7.697 -2.7701 -0.1191 -0.4073
   42CHL1   C14 3050   1.503   0.520   7.780  0.4713 -0.5424 -0.6166
   42CHL1   H14 3051   1.493   0.625   7.745 -0.7360 -0.5247 -0.2591
   42CHL1   C15 3052   1.592   0.518   7.902 -0.6464  0.4723 -0.8115
   42CHL1  H15A 3053   1.634   0.421   7.937 -0.2273  1.2789  1.0226
   42CHL1  H15B 3054   1.682   0.579   7.877  1.5058 -1.9509  0.4464
   42CHL1   C16 3055   1.504   0.587   8.011  0.4646  0.2816 -0.0448
   42CHL1  H16A 3056   1.498   0.526   8.103  0.4407  1.4564  0.7595
   42CHL1  H16B 3057   1.542   0.686   8.045 -0.9923  0.0669  2.4124
   42CHL1   C17 3058   1.356   0.592   7.948  0.3010  0.1894  0.1876
   42CHL1   H17 3059   1.350   0.689   7.894 -1.7340  1.0985  1.8977
   42CHL1   C13 3060   1.364   0.495   7.827  0.1248  0.6718  0.0108
   42CHL1   C18 3061   1.350   0.344   7.874  0.2598 -0.0965 -0.2841
   42CHL1  H18A 3062   1.248   0.324   7.912  0.2808 -0.3869 -0.3778
   42CHL1  H18B 3063   1.371   0.272   7.792 -1.3239 -1.1920  0.2355
   42CHL1  H18C 3064   1.406   0.324   7.968 -0.0454 -1.0763 -0.3102
   42CHL1   C12 3065   1.272   0.524   7.713  0.1442  0.0390  0.0811
   42CHL1  H12A 3066   1.162   0.509   7.724 -0.2636  1.2570 -1.7867
   42CHL1  H12B 3067   1.279   0.633   7.695  0.6844 -0.0039  0.0079
   42CHL1   C11 3068   1.307   0.441   7.588  0.2191  0.3096  0.1155
   42CHL1  H11A 3069   1.273   0.338   7.614  0.0344  0.3544  0.0555
   42CHL1  H11B 3070   1.242   0.474   7.504 -1.2039  0.2546  1.1648
   42CHL1    C9 3071   1.457   0.442   7.545  0.2241 -0.0795  0.0367
   42CHL1    H9 3072   1.457   0.547   7.510  1.3592 -0.8699 -2.5264
   42CHL1   C10 3073   1.503   0.356   7.429 -0.0873  0.7726  0.7835
   42CHL1   C19 3074   1.479   0.204   7.452  0.3578  0.1419  0.3118
   42CHL1  H19A 3075   1.368   0.192   7.454  0.5935 -3.7111 -1.3895
   42CHL1  H19B 3076   1.508   0.137   7.368  1.0866 -1.1002  1.5057
   42CHL1  H19C 3077   1.509   0.171   7.553  0.2153  1.5808  0.8497
   42CHL1    C1 3078   1.432   0.391   7.297  0.1865 -0.1682  0.2630
   42CHL1   H1A 3079   1.325   0.362   7.305  0.3411 -0.9629 -0.3162
   42CHL1   H1B 3080   1.433   0.502   7.294  0.7682 -0.0282  2.9343
   42CHL1    C2 3081   1.474   0.330   7.161 -0.2171  0.0128 -0.3865
   42CHL1   H2A 3082   1.423   0.376   7.073 -1.2317  1.5317  0.9305
   42CHL1   H2B 3083   1.459   0.220   7.163 -0.2735  0.0309  0.3569
   42CHL1   C20 3084   1.244   0.592   8.051 -0.2911 -0.5945 -0.4030
   42CHL1   H20 3085   1.253   0.498   8.109  1.9042  1.9481  3.7891
   42CHL1   C21 3086   1.110   0.610   7.979  0.0547  0.2080  0.6667
   42CHL1  H21A 3087   1.080   0.702   7.923 -0.7013 -0.2599  0.2896
   42CHL1  H21B 3088   1.035   0.600   8.059  1.3459 -4.3654  1.5966
   42CHL1  H21C 3089   1.085   0.518   7.923  0.2658  0.5476 -0.0095
   42CHL1   C22 3090   1.265   0.706   8.157 -0.1545  0.2196 -0.8343
   42CHL1  H22A 3091   1.182   0.692   8.230 -0.2551  1.6477 -0.6484
   42CHL1  H22B 3092   1.365   0.692   8.204 -0.6830  0.0185  0.2636
   42CHL1   C23 3093   1.265   0.844   8.102  0.3744 -0.8153  0.8092
   42CHL1  H23A 3094   1.316   0.844   8.003  3.4707  1.3665  2.2416
   42CHL1  H23B 3095   1.163   0.881   8.076  0.3216 -0.9079  0.8847
   42CHL1   C24 3096   1.330   0.955   8.190 -0.4536  0.7656  1.2731
   42CHL1  H24A 3097   1.416   0.907   8.241 -0.5088 -0.8578 -0.0542
   42CHL1  H24B 3098   1.364   1.033   8.118 -0.0614 -1.0436 -0.5752
   42CHL1   C25 3099   1.233   1.011   8.296 -0.2643 -0.5304  0.3351
   42CHL1   H25 3100   1.186   0.931   8.357  0.4757  0.2435  2.0026
   42CHL1   C26 3101   1.308   1.090   8.398 -0.7219 -0.9484 -0.0865
   42CHL1  H26A 3102   1.244   1.134   8.477 -0.5640  0.6786 -0.8227
   42CHL1  H26B 3103   1.394   1.032   8.438  1.9595  1.1134 -2.4055
   42CHL1  H26C 3104   1.356   1.177   8.350 -1.7044 -0.3625 -0.0207
   42CHL1   C27 3105   1.123   1.102   8.240  0.5155 -0.1235 -0.3506
   42CHL1  H27A 3106   1.067   1.045   8.163 -0.9524  0.2171  0.4321
   42CHL1  H27B 3107   1.167   1.193   8.193  0.0384 -0.2111 -0.9894
   42CHL1  H27C 3108   1.047   1.128   8.316  1.5998  0.4091  0.5873
   43CHL1    C3 3109   1.772   3.928   6.869  0.3327 -0.9712  0.7307
   43CHL1    H3 3110   1.742   4.034   6.878 -0.6129 -0.8613 -2.4507
   43CHL1    O3 3111   1.769   3.907   6.732  0.6976  0.4783  0.1132
   43CHL1   H3' 3112   1.773   3.812   6.720  1.7464  0.5988 -0.6971
   43CHL1    C4 3113   1.913   3.915   6.924 -0.0994 -0.6164  0.1000
   43CHL1   H4A 3114   1.958   3.829   6.870 -0.9774 -2.0140  1.5000
   43CHL1   H4B 3115   1.966   4.001   6.878 -1.7255 -0.2695 -1.1961
   43CHL1    C5 3116   1.928   3.903   7.070  0.2854 -0.0923  0.1726
   43CHL1    C6 3117   2.024   3.979   7.136  0.1792 -0.3289  0.0976
   43CHL1    H6 3118   2.090   4.043   7.077  0.7011 -0.3148  0.6888
   43CHL1    C7 3119   2.040   3.969   7.280 -0.4473  1.0157  0.3385
   43CHL1   H7A 3120   2.148   3.962   7.304 -0.5529 -0.5454  0.4760
   43CHL1   H7B 3121   1.993   4.062   7.319 -1.5009  0.7496 -0.2502
   43CHL1    C8 3122   1.968   3.847   7.354  0.1995 -0.1724 -0.3083
   43CHL1    H8 3123   2.027   3.756   7.328 -1.5186 -1.8279  1.2296
   43CHL1   C14 3124   1.949   3.875   7.503  0.0572 -0.4107 -0.4543
   43CHL1   H14 3125   1.895   3.971   7.511  1.4627  0.4092 -0.3700
   43CHL1   C15 3126   2.083   3.903   7.580  0.2428 -0.0442  0.2277
   43CHL1  H15A 3127   2.159   3.829   7.547  0.2258  0.0720 -0.0681
   43CHL1  H15B 3128   2.127   4.000   7.550 -0.6566  0.4048  0.3495
   43CHL1   C16 3129   2.041   3.898   7.720 -0.3321  0.3130 -0.0870
   43CHL1  H16A 3130   2.121   3.844   7.775  0.4055  1.3599 -0.0960
   43CHL1  H16B 3131   2.026   3.997   7.768 -0.4571 -1.0626  2.8782
   43CHL1   C17 3132   1.904   3.824   7.728 -0.4686 -0.0503  0.2033
   43CHL1   H17 3133   1.822   3.898   7.731 -0.4063 -0.0070  2.2442
   43CHL1   C13 3134   1.883   3.765   7.586 -0.7476 -0.5867 -0.9290
   43CHL1   C18 3135   1.958   3.632   7.582  0.1123 -0.6374  0.2668
   43CHL1  H18A 3136   1.889   3.553   7.617 -0.5517  0.5091  1.6257
   43CHL1  H18B 3137   1.987   3.614   7.476 -0.0978  1.5316 -0.2142
   43CHL1  H18C 3138   2.043   3.628   7.653  1.6970  1.4601 -1.3992
   43CHL1   C12 3139   1.739   3.739   7.529 -0.3645  0.2848  0.3755
   43CHL1  H12A 3140   1.685   3.658   7.583 -0.6351  2.1050  2.9866
   43CHL1  H12B 3141   1.679   3.832   7.540 -0.1988  0.6556 -1.4746
   43CHL1   C11 3142   1.747   3.722   7.378  0.1408  0.4175  0.5947
   43CHL1  H11A 3143   1.804   3.630   7.353 -1.8699 -1.1450  1.4800
   43CHL1  H11B 3144   1.645   3.696   7.342  0.6542 -4.4660  2.0067
   43CHL1    C9 3145   1.826   3.829   7.293  0.1767 -0.6318 -0.2168
   43CHL1    H9 3146   1.781   3.930   7.308 -1.4915 -1.0839 -1.7346
   43CHL1   C10 3147   1.825   3.811   7.143 -0.7018 -0.6303 -0.7580
   43CHL1   C19 3148   1.869   3.668   7.105  0.3623  0.0203  0.1612
   43CHL1  H19A 3149   1.882   3.645   6.997 -1.6780  1.0598 -0.3404
   43CHL1  H19B 3150   1.960   3.627   7.155 -1.1744 -1.6482  1.7554
   43CHL1  H19C 3151   1.782   3.603   7.129  1.2308 -0.9267  0.8844
   43CHL1    C1 3152   1.685   3.833   7.087  0.0745 -0.1767 -0.8670
   43CHL1   H1A 3153   1.609   3.761   7.124 -1.5861  1.6265 -0.5525
   43CHL1   H1B 3154   1.644   3.926   7.131 -1.2143 -0.8952 -0.5072
   43CHL1    C2 3155   1.667   3.832   6.931 -0.2657  0.0284 -0.2700
   43CHL1   H2A 3156   1.563   3.854   6.898 -1.0067 -1.8915  0.6224
   43CHL1   H2B 3157   1.672   3.729   6.889  0.3065  0.6613 -1.8333
   43CHL1   C20 3158   1.894   3.732   7.850  0.9730  0.4012  0.6704
   43CHL1   H20 3159   1.974   3.656   7.839  2.0572  1.5420  0.3409
   43CHL1   C21 3160   1.759   3.657   7.865  0.0317  0.4005  0.0644
   43CHL1  H21A 3161   1.757   3.562   7.807 -0.3852  0.7410 -0.4859
   43CHL1  H21B 3162   1.670   3.711   7.824  0.0563 -0.7576 -1.6315
   43CHL1  H21C 3163   1.742   3.645   7.974 -1.1405  1.7867  0.0680
   43CHL1   C22 3164   1.919   3.811   7.981 -1.1770 -0.3114  0.6803
   43CHL1  H22A 3165   1.998   3.888   7.973 -1.8628  0.5862  2.0462
   43CHL1  H22B 3166   1.822   3.862   8.003 -2.9197 -2.4615 -1.3739
   43CHL1   C23 3167   1.963   3.727   8.097  0.3636 -0.4496 -0.4863
   43CHL1  H23A 3168   1.887   3.657   8.138 -0.5981  1.2828  0.8752
   43CHL1  H23B 3169   2.054   3.671   8.069  0.5628 -0.5195  0.2837
   43CHL1   C24 3170   1.986   3.818   8.223 -0.4046 -0.1841  0.1015
   43CHL1  H24A 3171   2.066   3.891   8.198  1.2228 -1.8719  0.2248
   43CHL1  H24B 3172   1.889   3.867   8.247 -1.0477 -0.5108 -1.7036
   43CHL1   C25 3173   2.042   3.738   8.347 -0.8058 -0.5036 -0.4717
   43CHL1   H25 3174   2.136   3.697   8.304 -0.4709  0.6527 -0.8639
   43CHL1   C26 3175   2.086   3.846   8.456  0.5405  0.2734 -0.3434
   43CHL1  H26A 3176   2.129   3.938   8.411 -1.0549  1.0328 -0.3937
   43CHL1  H26B 3177   1.990   3.862   8.510  0.0448 -1.3862 -0.6504
   43CHL1  H26C 3178   2.150   3.790   8.528  0.1620  1.8019  1.2567
   43CHL1   C27 3179   1.954   3.622   8.419 -0.2869 -0.7795  0.7533
   43CHL1  H27A 3180   1.879   3.588   8.345 -1.5940  3.3756 -0.1293
   43CHL1  H27B 3181   2.012   3.532   8.447 -1.7238 -1.2611  2.3200
   43CHL1  H27C 3182   1.895   3.658   8.506 -1.3382 -0.6131 -0.0119
   44CHL1    C3 3183   1.959   2.294   6.742  0.3112 -0.2367 -0.7003
   44CHL1    H3 3184   2.026   2.208   6.758 -2.0741 -2.0546  0.1665
   44CHL1    O3 3185   1.957   2.321   6.608  0.0046  0.0673 -0.5742
   44CHL1   H3' 3186   1.883   2.379   6.589  0.1436 -0.6236 -3.9456
   44CHL1    C4 3187   1.816   2.260   6.790  0.1191  0.1499 -0.0189
   44CHL1   H4A 3188   1.757   2.344   6.749  1.3377  0.8417 -0.4031
   44CHL1   H4B 3189   1.777   2.171   6.736 -1.2538  0.4452  0.4577
   44CHL1    C5 3190   1.804   2.247   6.945  0.2725  0.4201 -0.4429
   44CHL1    C6 3191   1.751   2.135   7.004  0.2529  1.2329 -0.3499
   44CHL1    H6 3192   1.714   2.052   6.941  0.0347 -0.2463  1.6249
   44CHL1    C7 3193   1.746   2.117   7.154 -0.5939 -0.1703 -0.0919
   44CHL1   H7A 3194   1.644   2.080   7.179  0.2595 -1.7572  1.2179
   44CHL1   H7B 3195   1.814   2.035   7.186 -0.4821  0.2618  0.7890
   44CHL1    C8 3196   1.782   2.243   7.244  0.2362  0.2812 -0.3712
   44CHL1    H8 3197   1.691   2.305   7.258  0.1605 -0.0994  0.9818
   44CHL1   C14 3198   1.833   2.198   7.380 -0.2168 -0.2655  0.1205
   44CHL1   H14 3199   1.934   2.154   7.365 -1.1816 -1.7741 -2.5238
   44CHL1   C15 3200   1.752   2.095   7.459 -0.5580  0.3431 -0.5909
   44CHL1  H15A 3201   1.642   2.105   7.456 -0.6230 -0.4161 -1.0856
   44CHL1  H15B 3202   1.780   1.994   7.422 -0.6737 -0.0796  0.4322
   44CHL1   C16 3203   1.794   2.130   7.610  0.0095 -0.1244 -0.0801
   44CHL1  H16A 3204   1.700   2.173   7.651 -0.4111 -0.8882 -0.2172
   44CHL1  H16B 3205   1.815   2.041   7.672 -2.7897 -0.7726  0.0641
   44CHL1   C17 3206   1.900   2.236   7.604 -0.1180 -0.5130  0.2422
   44CHL1   H17 3207   2.000   2.189   7.591  0.2649  0.3207  0.1122
   44CHL1   C13 3208   1.864   2.316   7.478  0.8260  0.3948  0.4526
   44CHL1   C18 3209   1.741   2.401   7.514 -0.4618  0.6237  0.1692
   44CHL1  H18A 3210   1.702   2.460   7.428 -1.8691 -0.0168  0.3474
   44CHL1  H18B 3211   1.650   2.349   7.552 -0.4126  0.6377  0.3064
   44CHL1  H18C 3212   1.765   2.478   7.589  2.3395 -0.2725  0.3213
   44CHL1   C12 3213   1.973   2.403   7.410 -1.1503 -0.2949 -0.4289
   44CHL1  H12A 3214   1.984   2.495   7.471 -0.8875 -0.0030 -0.9119
   44CHL1  H12B 3215   2.069   2.349   7.396 -0.6066  0.3024  0.8361
   44CHL1   C11 3216   1.938   2.450   7.263 -0.1190  0.0546  0.5329
   44CHL1  H11A 3217   1.851   2.519   7.271  0.4733  1.0383 -1.0510
   44CHL1  H11B 3218   2.032   2.491   7.220 -0.6035  0.0359 -0.5646
   44CHL1    C9 3219   1.898   2.324   7.174 -0.0144  0.7068  0.0792
   44CHL1    H9 3220   1.987   2.259   7.184 -0.1805  0.5668  0.6635
   44CHL1   C10 3221   1.870   2.361   7.025  0.1223  0.3409  0.4215
   44CHL1   C19 3222   1.774   2.474   7.010  0.2373  0.1613 -0.3660
   44CHL1  H19A 3223   1.686   2.462   7.076  0.0480  1.7244 -0.2847
   44CHL1  H19B 3224   1.814   2.572   7.045  1.5223 -0.6835  0.6114
   44CHL1  H19C 3225   1.743   2.495   6.905 -0.1702  0.4788 -0.1871
   44CHL1    C1 3226   2.007   2.402   6.969 -0.4417  0.5979 -0.3593
   44CHL1   H1A 3227   2.043   2.498   7.010  2.3682 -0.6487  0.3001
   44CHL1   H1B 3228   2.087   2.328   6.989  0.9778  1.2139 -3.1822
   44CHL1    C2 3229   2.005   2.420   6.816 -0.0905 -0.4547 -0.0791
   44CHL1   H2A 3230   2.106   2.450   6.781  1.1348 -1.9380  2.0331
   44CHL1   H2B 3231   1.938   2.506   6.792  0.8470  0.1959 -0.4317
   44CHL1   C20 3232   1.914   2.306   7.739  0.6433 -0.4544 -0.4679
   44CHL1   H20 3233   1.817   2.356   7.759 -0.4390 -2.4822 -0.3095
   44CHL1   C21 3234   2.034   2.408   7.731 -1.0271  0.1106 -0.1304
   44CHL1  H21A 3235   2.034   2.446   7.836  2.2263 -1.2647  0.5036
   44CHL1  H21B 3236   2.008   2.491   7.662 -2.6243 -1.8237 -2.0072
   44CHL1  H21C 3237   2.133   2.360   7.716 -0.4446  1.3817 -0.5392
   44CHL1   C22 3238   1.926   2.210   7.867  0.3129 -0.1605  0.1451
   44CHL1  H22A 3239   1.849   2.133   7.846 -0.7741  1.2838 -1.5251
   44CHL1  H22B 3240   2.029   2.168   7.861  0.7960  1.1807 -2.1288
   44CHL1   C23 3241   1.904   2.280   8.002  0.4789 -0.4295 -0.4967
   44CHL1  H23A 3242   1.893   2.199   8.077  0.0520  0.6328  0.6025
   44CHL1  H23B 3243   1.991   2.342   8.032 -1.1061  1.4146  0.4567
   44CHL1   C24 3244   1.775   2.361   8.020 -0.3792 -0.5707 -0.2115
   44CHL1  H24A 3245   1.795   2.452   7.960  0.3313 -1.6820 -1.7186
   44CHL1  H24B 3246   1.689   2.303   7.980  1.8393 -3.9863 -0.4296
   44CHL1   C25 3247   1.752   2.403   8.162 -0.2273  0.4791  0.3056
   44CHL1   H25 3248   1.843   2.397   8.224  0.4244  0.4503 -0.6323
   44CHL1   C26 3249   1.679   2.535   8.169  0.0230  0.2421 -0.5542
   44CHL1  H26A 3250   1.740   2.624   8.141  1.3528 -0.9576 -1.6621
   44CHL1  H26B 3251   1.595   2.527   8.097 -0.4877 -1.0899  0.1707
   44CHL1  H26C 3252   1.638   2.562   8.268  0.1363 -1.7056  0.0633
   44CHL1   C27 3253   1.664   2.292   8.225 -0.6407  0.0016 -0.4730
   44CHL1  H27A 3254   1.562   2.285   8.181 -1.4626  2.0350  0.9751
   44CHL1  H27B 3255   1.713   2.192   8.222  0.5216  0.4269  1.8373
   44CHL1  H27C 3256   1.644   2.304   8.334 -0.1161 -1.1432 -0.2288
   45CHL1    C3 3257   2.610   0.389   6.830  0.1847 -0.3022 -0.3103
   45CHL1    H3 3258   2.690   0.314   6.816 -1.1510 -1.4370 -2.4426
   45CHL1    O3 3259   2.544   0.417   6.706 -0.3612 -0.0366  0.2015
   45CHL1   H3' 3260   2.461   0.461   6.727 -0.4820 -1.3412  2.7494
   45CHL1    C4 3261   2.501   0.340   6.930  0.3828  0.8547 -0.5151
   45CHL1   H4A 3262   2.413   0.408   6.930  1.5588  2.4467  0.1134
   45CHL1   H4B 3263   2.453   0.246   6.896  0.2497  0.1098  1.5518
   45CHL1    C5 3264   2.556   0.314   7.071 -0.6018 -0.2232 -0.6726
   45CHL1    C6 3265   2.550   0.188   7.129 -0.2659 -0.8608  0.4165
   45CHL1    H6 3266   2.494   0.104   7.085 -2.5194 -1.5359  4.1085
   45CHL1    C7 3267   2.603   0.152   7.259 -0.0249 -0.3738 -0.6218
   45CHL1   H7A 3268   2.514   0.100   7.301  0.5515 -1.6269 -0.8904
   45CHL1   H7B 3269   2.690   0.083   7.254  0.4542  0.2645 -1.2679
   45CHL1    C8 3270   2.640   0.280   7.350  0.4539  0.1006  0.3655
   45CHL1    H8 3271   2.549   0.331   7.388  0.6615 -0.2129  1.3122
   45CHL1   C14 3272   2.718   0.232   7.483 -1.1219  0.2182  0.2338
   45CHL1   H14 3273   2.803   0.171   7.446 -1.0579  0.9866 -0.9267
   45CHL1   C15 3274   2.642   0.145   7.580 -0.3302  0.7804 -0.3429
   45CHL1  H15A 3275   2.536   0.178   7.580 -0.3045  0.8650 -0.2267
   45CHL1  H15B 3276   2.651   0.038   7.553  3.3838  0.6781  0.6845
   45CHL1   C16 3277   2.709   0.170   7.714 -0.0733  0.0758 -0.4272
   45CHL1  H16A 3278   2.633   0.186   7.794 -0.7218 -1.1022 -0.7886
   45CHL1  H16B 3279   2.763   0.081   7.753  0.4787 -0.2690 -1.9315
   45CHL1   C17 3280   2.820   0.287   7.689 -0.8205  1.1923  0.6649
   45CHL1   H17 3281   2.915   0.239   7.656 -0.7512  0.7263  1.5195
   45CHL1   C13 3282   2.766   0.357   7.560 -0.1332 -0.4215  0.3702
   45CHL1   C18 3283   2.643   0.448   7.600 -0.1698  0.0366 -0.2420
   45CHL1  H18A 3284   2.567   0.382   7.648 -0.4146  0.5414  0.0686
   45CHL1  H18B 3285   2.679   0.530   7.665  0.0950  1.0923 -1.6803
   45CHL1  H18C 3286   2.598   0.497   7.511 -0.9732 -0.5166 -0.1565
   45CHL1   C12 3287   2.863   0.434   7.466 -1.0614  0.4706 -0.4180
   45CHL1  H12A 3288   2.893   0.527   7.519  0.4238 -0.1528 -0.1147
   45CHL1  H12B 3289   2.958   0.381   7.446 -1.6821 -0.2329 -1.6275
   45CHL1   C11 3290   2.804   0.482   7.330  0.3455 -0.6452  0.7156
   45CHL1  H11A 3291   2.731   0.558   7.364  0.3337 -0.2024 -0.2640
   45CHL1  H11B 3292   2.876   0.522   7.255 -1.3995 -2.3787 -2.0922
   45CHL1    C9 3293   2.719   0.375   7.250  0.7917 -0.5346 -0.3376
   45CHL1    H9 3294   2.795   0.309   7.202  2.3561  1.1078 -0.2283
   45CHL1   C10 3295   2.631   0.433   7.130  0.5954  0.6588  0.4330
   45CHL1   C19 3296   2.535   0.543   7.182 -0.2286  0.1523 -0.0037
   45CHL1  H19A 3297   2.600   0.632   7.194 -0.1582  0.0437  0.4243
   45CHL1  H19B 3298   2.458   0.571   7.108  0.3483 -0.7755 -0.9812
   45CHL1  H19C 3299   2.478   0.518   7.274 -0.1650 -0.8074 -0.2189
   45CHL1    C1 3300   2.738   0.482   7.025 -0.4116 -0.4639 -0.4526
   45CHL1   H1A 3301   2.793   0.570   7.065  1.0403 -0.7344 -1.7599
   45CHL1   H1B 3302   2.808   0.396   7.014  0.9868  0.5665  0.0797
   45CHL1    C2 3303   2.678   0.518   6.895  0.0462  0.1456 -0.1950
   45CHL1   H2A 3304   2.742   0.555   6.812  0.0754 -1.0025 -0.7160
   45CHL1   H2B 3305   2.602   0.597   6.910  0.5982  0.9206 -1.3355
   45CHL1   C20 3306   2.850   0.368   7.814  0.0196  0.4748  0.1069
   45CHL1   H20 3307   2.785   0.457   7.831  0.5591  1.1619 -1.2641
   45CHL1   C21 3308   2.993   0.436   7.799 -0.0928 -0.3288  0.0242
   45CHL1  H21A 3309   3.080   0.370   7.779  2.2906  2.4264  0.7635
   45CHL1  H21B 3310   3.014   0.494   7.891 -0.2196  2.7309 -1.7508
   45CHL1  H21C 3311   2.982   0.506   7.713 -0.5873  1.4547  1.4830
   45CHL1   C22 3312   2.825   0.295   7.942 -0.0646  0.7183  0.1856
   45CHL1  H22A 3313   2.716   0.277   7.959  0.0178 -0.2356 -0.1920
   45CHL1  H22B 3314   2.871   0.194   7.934  1.3011  1.4353 -1.6907
   45CHL1   C23 3315   2.886   0.361   8.069 -0.4208 -0.0180 -0.4752
   45CHL1  H23A 3316   2.994   0.338   8.061 -0.4110 -0.3092  0.3312
   45CHL1  H23B 3317   2.865   0.470   8.068  0.0771  0.1314  1.4420
   45CHL1   C24 3318   2.813   0.314   8.201  0.0053  0.0680  0.4243
   45CHL1  H24A 3319   2.707   0.344   8.214 -0.3219 -1.9120  3.2892
   45CHL1  H24B 3320   2.815   0.203   8.190  0.3596  0.2448 -1.6305
   45CHL1   C25 3321   2.879   0.353   8.337  0.4992  0.4813  0.7971
   45CHL1   H25 3322   2.981   0.394   8.328  0.6265  0.6276  2.5482
   45CHL1   C26 3323   2.803   0.476   8.405  0.0287  0.9994 -0.0691
   45CHL1  H26A 3324   2.866   0.516   8.487  0.3663  1.4360 -0.5299
   45CHL1  H26B 3325   2.786   0.555   8.329  0.0993  0.4188 -0.7032
   45CHL1  H26C 3326   2.707   0.444   8.450 -0.0949  0.8288 -0.4413
   45CHL1   C27 3327   2.878   0.231   8.430 -0.1012 -0.4115  0.3080
   45CHL1  H27A 3328   2.794   0.174   8.385 -0.7657  2.3711 -2.3176
   45CHL1  H27B 3329   2.971   0.171   8.430 -0.8045 -1.6655 -2.5521
   45CHL1  H27C 3330   2.867   0.263   8.536 -0.8448  0.8886 -0.1426
   46CHL1    C3 3331   2.901   2.652   7.159  0.1415 -0.2452 -0.4323
   46CHL1    H3 3332   2.803   2.693   7.193  0.7001  0.8848 -0.1420
   46CHL1    O3 3333   2.914   2.690   7.021 -0.1591  0.0403  0.7387
   46CHL1   H3' 3334   2.966   2.619   6.982  0.8789  1.1519  0.0113
   46CHL1    C4 3335   3.012   2.715   7.231 -0.5719 -0.4225 -0.0775
   46CHL1   H4A 3336   3.110   2.687   7.188 -0.6938  1.1265 -1.4760
   46CHL1   H4B 3337   3.006   2.825   7.217  1.3461 -0.3882 -0.9604
   46CHL1    C5 3338   2.995   2.678   7.377 -0.4109 -0.0284  0.3391
   46CHL1    C6 3339   2.963   2.771   7.466 -0.4324  0.0169  0.3672
   46CHL1    H6 3340   2.942   2.872   7.428 -0.1091 -0.7806 -2.1183
   46CHL1    C7 3341   2.956   2.748   7.612  0.2636 -0.1416 -0.1317
   46CHL1   H7A 3342   3.027   2.822   7.655  0.7690 -1.3685  1.2363
   46CHL1   H7B 3343   2.852   2.758   7.649  0.3249 -0.2896  0.0776
   46CHL1    C8 3344   3.003   2.603   7.647 -0.4812  0.3571  0.0795
   46CHL1    H8 3345   3.112   2.587   7.628 -1.0359 -0.9922 -2.3974
   46CHL1   C14 3346   2.964   2.570   7.790  0.1996 -0.3812  0.2925
   46CHL1   H14 3347   2.854   2.586   7.790 -0.1095 -2.2414 -0.7139
   46CHL1   C15 3348   3.014   2.668   7.900 -0.1692 -0.5611  0.9803
   46CHL1  H15A 3349   3.114   2.708   7.875 -1.2319  0.8120 -1.3788
   46CHL1  H15B 3350   2.949   2.758   7.901  0.3560 -0.1767  1.9582
   46CHL1   C16 3351   2.998   2.588   8.033 -0.7477 -0.1476  0.3632
   46CHL1  H16A 3352   3.098   2.597   8.082 -2.0023  2.2875  2.7280
   46CHL1  H16B 3353   2.918   2.641   8.088 -2.6603 -2.1907 -0.3132
   46CHL1   C17 3354   2.955   2.442   7.991 -0.0590  0.5383 -0.2496
   46CHL1   H17 3355   2.844   2.437   7.995 -0.0206  0.2278  0.8177
   46CHL1   C13 3356   3.000   2.430   7.844  0.1279 -0.3337  0.9112
   46CHL1   C18 3357   3.153   2.424   7.837  0.7385 -0.0702  0.7726
   46CHL1  H18A 3358   3.187   2.431   7.732 -0.1761  2.4671  0.5758
   46CHL1  H18B 3359   3.215   2.486   7.906  0.1575  0.7221  0.5932
   46CHL1  H18C 3360   3.183   2.320   7.863 -3.0020 -1.5581 -0.2458
   46CHL1   C12 3361   2.925   2.328   7.747 -0.0723 -0.5373 -0.4328
   46CHL1  H12A 3362   2.959   2.223   7.757  0.0303 -0.5146 -0.5429
   46CHL1  H12B 3363   2.816   2.340   7.763  0.1764  0.6846  0.5192
   46CHL1   C11 3364   2.969   2.349   7.602 -0.3637  0.0374 -0.1280
   46CHL1  H11A 3365   3.075   2.314   7.595 -0.5373 -0.4034 -0.6053
   46CHL1  H11B 3366   2.909   2.279   7.540  0.9158 -2.3496  1.1605
   46CHL1    C9 3367   2.952   2.495   7.551  0.5278 -0.7015  0.0430
   46CHL1    H9 3368   2.843   2.508   7.540  0.8896  3.0618 -0.3251
   46CHL1   C10 3369   3.006   2.523   7.404  0.4494  0.4621  0.5228
   46CHL1   C19 3370   3.137   2.447   7.374 -0.7991 -0.9320  0.3490
   46CHL1  H19A 3371   3.178   2.486   7.279 -0.4623 -2.3172 -0.1034
   46CHL1  H19B 3372   3.213   2.475   7.450 -0.2698 -2.6130  0.4839
   46CHL1  H19C 3373   3.129   2.337   7.359  2.7592 -1.0400 -2.1692
   46CHL1    C1 3374   2.898   2.461   7.318 -0.1953  0.0237  0.0477
   46CHL1   H1A 3375   2.891   2.351   7.329 -0.5041  0.0847  0.4875
   46CHL1   H1B 3376   2.797   2.502   7.339  0.2127  1.5080 -0.6818
   46CHL1    C2 3377   2.904   2.502   7.169 -0.2267  0.2203  0.0928
   46CHL1   H2A 3378   2.823   2.449   7.114  0.5798 -0.3293 -0.5871
   46CHL1   H2B 3379   2.995   2.451   7.133 -0.3068  0.1738 -0.0422
   46CHL1   C20 3380   3.013   2.333   8.080 -1.1023 -0.1683  0.2198
   46CHL1   H20 3381   3.124   2.330   8.085 -1.1165 -0.2575  0.5279
   46CHL1   C21 3382   2.959   2.202   8.036  0.4180  0.8099 -0.5173
   46CHL1  H21A 3383   2.848   2.200   8.022  0.3971  0.2416 -0.3308
   46CHL1  H21B 3384   2.975   2.115   8.103 -0.9389  1.2759  0.4686
   46CHL1  H21C 3385   3.002   2.177   7.937 -0.0811 -0.1905 -0.4943
   46CHL1   C22 3386   2.976   2.365   8.231 -0.6589  0.3344 -0.7697
   46CHL1  H22A 3387   3.035   2.290   8.287 -0.1817 -0.5078 -2.3620
   46CHL1  H22B 3388   3.029   2.460   8.256  0.5436 -0.5414  0.1476
   46CHL1   C23 3389   2.827   2.353   8.262 -0.0891 -0.3777  0.3499
   46CHL1  H23A 3390   2.783   2.445   8.216  0.8332  0.0399  0.2785
   46CHL1  H23B 3391   2.800   2.256   8.217  3.3450 -1.1958 -0.2158
   46CHL1   C24 3392   2.809   2.346   8.412  0.7848 -0.4966  0.3622
   46CHL1  H24A 3393   2.849   2.250   8.452 -0.4102 -0.3241  2.1242
   46CHL1  H24B 3394   2.858   2.437   8.453  0.3800  0.1173 -0.5037
   46CHL1   C25 3395   2.662   2.353   8.459  0.0358 -0.6302 -0.0377
   46CHL1   H25 3396   2.635   2.461   8.455  1.7258 -0.0163  2.5927
   46CHL1   C26 3397   2.565   2.265   8.380 -0.5170 -0.4408 -0.6568
   46CHL1  H26A 3398   2.589   2.158   8.397  0.2214 -0.0284  1.0665
   46CHL1  H26B 3399   2.463   2.282   8.420  0.0046  1.1838  0.0618
   46CHL1  H26C 3400   2.570   2.291   8.272  1.9751 -1.8691 -0.9583
   46CHL1   C27 3401   2.651   2.319   8.607  0.4322 -0.5230 -0.6124
   46CHL1  H27A 3402   2.543   2.325   8.632  0.5619 -0.7628  0.0278
   46CHL1  H27B 3403   2.691   2.217   8.622 -0.5638 -0.8961 -0.4165
   46CHL1  H27C 3404   2.707   2.391   8.671 -0.5910  1.0952 -1.4402
   47CHL1    C3 3405   2.379   2.011   6.736  0.0127  0.2914  0.0247
   47CHL1    H3 3406   2.486   2.019   6.765 -0.4431  1.9667  1.4043
   47CHL1    O3 3407   2.357   2.030   6.598  0.1677 -0.1114  0.0842
   47CHL1   H3' 3408   2.262   2.019   6.590  0.1040  0.9494 -0.8282
   47CHL1    C4 3409   2.333   1.869   6.773 -0.9261 -0.1829 -0.3079
   47CHL1   H4A 3410   2.227   1.848   6.748 -0.8164 -0.0467 -0.8975
   47CHL1   H4B 3411   2.392   1.795   6.715 -0.4929  1.0969 -1.5679
   47CHL1    C5 3412   2.339   1.837   6.930 -0.0794 -0.0179 -0.4868
   47CHL1    C6 3413   2.420   1.746   6.983 -0.0995 -0.2769  0.8539
   47CHL1    H6 3414   2.476   1.686   6.910  0.4603  1.6929 -0.4145
   47CHL1    C7 3415   2.439   1.719   7.133  0.3793 -0.1011  0.3116
   47CHL1   H7A 3416   2.443   1.610   7.158  0.6602  0.3024  2.1612
   47CHL1   H7B 3417   2.537   1.748   7.177  0.6220  0.7264 -0.7225
   47CHL1    C8 3418   2.321   1.785   7.220 -0.5798  0.1383  0.7942
   47CHL1    H8 3419   2.230   1.726   7.197  0.1288  0.1694 -2.6677
   47CHL1   C14 3420   2.359   1.773   7.363 -0.0381  0.0221 -0.3514
   47CHL1   H14 3421   2.449   1.835   7.386  0.3715 -0.8374  0.4178
   47CHL1   C15 3422   2.397   1.633   7.421 -0.2166 -0.0936 -0.2974
   47CHL1  H15A 3423   2.324   1.554   7.392 -2.1491  0.9716  1.4251
   47CHL1  H15B 3424   2.496   1.602   7.382 -0.2154  0.8169 -1.0542
   47CHL1   C16 3425   2.398   1.652   7.573  0.6260 -0.2382 -0.3953
   47CHL1  H16A 3426   2.315   1.597   7.621  1.0478  0.3474  1.0369
   47CHL1  H16B 3427   2.491   1.641   7.633 -2.0461 -1.7173  3.9187
   47CHL1   C17 3428   2.328   1.792   7.594 -0.1882 -0.6546 -0.3247
   47CHL1   H17 3429   2.415   1.860   7.607 -0.2182 -0.3671 -1.4999
   47CHL1   C13 3430   2.252   1.830   7.465 -0.1714 -0.3405  0.9024
   47CHL1   C18 3431   2.115   1.757   7.459 -0.5413  0.3777 -0.0073
   47CHL1  H18A 3432   2.045   1.818   7.522 -0.9655  1.2807 -1.3141
   47CHL1  H18B 3433   2.074   1.758   7.356 -3.6538 -2.0025  1.0331
   47CHL1  H18C 3434   2.115   1.650   7.489  1.8829 -0.4103 -2.4909
   47CHL1   C12 3435   2.228   1.981   7.426 -0.9849 -0.9684  0.6631
   47CHL1  H12A 3436   2.152   2.043   7.477  0.0650  2.1121 -1.1999
   47CHL1  H12B 3437   2.320   2.032   7.462 -0.4137 -1.3272 -0.2513
   47CHL1   C11 3438   2.191   2.002   7.273 -0.0952 -0.0261  0.1266
   47CHL1  H11A 3439   2.091   1.957   7.252  0.0411 -0.1361 -0.2950
   47CHL1  H11B 3440   2.187   2.110   7.246  1.9491 -0.0624 -0.4158
   47CHL1    C9 3441   2.296   1.929   7.176  0.2459  0.5058  0.2075
   47CHL1    H9 3442   2.393   1.982   7.185  0.8248  0.1935 -3.0070
   47CHL1   C10 3443   2.261   1.933   7.025 -0.7912 -0.0649 -0.2030
   47CHL1   C19 3444   2.115   1.917   6.996  0.0772 -0.4828  0.0862
   47CHL1  H19A 3445   2.055   1.988   7.057 -0.4492  0.6642 -1.6739
   47CHL1  H19B 3446   2.087   1.928   6.889 -0.0347 -0.1648  0.1484
   47CHL1  H19C 3447   2.078   1.819   7.031  1.9209 -1.0915  0.4614
   47CHL1    C1 3448   2.308   2.081   6.977 -0.4765 -0.1237  0.0443
   47CHL1   H1A 3449   2.258   2.162   7.034 -1.8085 -2.1117  1.8401
   47CHL1   H1B 3450   2.417   2.087   6.997 -0.3095  0.0303 -0.8616
   47CHL1    C2 3451   2.295   2.110   6.826 -0.2950  0.8954  0.0187
   47CHL1   H2A 3452   2.331   2.210   6.795 -0.1737  0.7642 -0.2685
   47CHL1   H2B 3453   2.188   2.098   6.801 -0.4516 -0.9675  1.3687
   47CHL1   C20 3454   2.253   1.799   7.729 -0.7955  0.2986  0.3611
   47CHL1   H20 3455   2.164   1.732   7.729 -1.3086  0.9668  1.1793
   47CHL1   C21 3456   2.201   1.943   7.749 -0.2419  0.2758  0.0367
   47CHL1  H21A 3457   2.155   1.946   7.851 -0.8669 -0.6813 -0.2065
   47CHL1  H21B 3458   2.126   1.974   7.673 -0.0695  2.0139  0.5200
   47CHL1  H21C 3459   2.281   2.020   7.748 -2.1185  2.3832  0.9261
   47CHL1   C22 3460   2.339   1.767   7.851  0.6172 -0.2564  0.2092
   47CHL1  H22A 3461   2.381   1.664   7.840  3.1932  0.6424  1.0100
   47CHL1  H22B 3462   2.427   1.834   7.848  1.2872 -1.1214  0.1353
   47CHL1   C23 3463   2.270   1.790   7.986  0.4269  0.7725  0.2184
   47CHL1  H23A 3464   2.264   1.897   8.014  0.2707  0.8363 -0.0539
   47CHL1  H23B 3465   2.164   1.757   7.992  0.5406  0.5199  0.9574
   47CHL1   C24 3466   2.356   1.719   8.090 -0.1118  0.4508 -0.1725
   47CHL1  H24A 3467   2.318   1.615   8.091 -2.6712  1.2661 -2.0936
   47CHL1  H24B 3468   2.463   1.728   8.060 -0.1595  1.4407 -0.0724
   47CHL1   C25 3469   2.328   1.767   8.231  0.3021  0.1147  0.3088
   47CHL1   H25 3470   2.220   1.789   8.247 -0.1651 -0.9402 -1.1524
   47CHL1   C26 3471   2.370   1.658   8.336 -0.7039 -0.3064 -0.1727
   47CHL1  H26A 3472   2.348   1.691   8.440  0.2699  0.6408 -0.2455
   47CHL1  H26B 3473   2.315   1.562   8.327 -0.2940 -0.3299 -4.3787
   47CHL1  H26C 3474   2.478   1.639   8.322 -1.0365 -0.6913 -2.7305
   47CHL1   C27 3475   2.403   1.892   8.263 -0.5823 -0.0551  0.9794
   47CHL1  H27A 3476   2.382   1.975   8.191  0.7110 -1.0094 -0.5537
   47CHL1  H27B 3477   2.370   1.927   8.363 -0.8421  0.0876  0.8465
   47CHL1  H27C 3478   2.514   1.890   8.265 -0.5412 -0.1006 -0.3098
   48CHL1    C3 3479   4.415   5.704   6.384  0.0692 -0.7447 -0.3316
   48CHL1    H3 3480   4.526   5.702   6.373 -0.0728  0.0836 -2.1933
   48CHL1    O3 3481   4.360   5.658   6.266  0.3300 -0.7951 -0.0919
   48CHL1   H3' 3482   4.268   5.678   6.281  0.5798  1.2700 -1.0141
   48CHL1    C4 3483   4.367   5.610   6.498 -0.3021  0.4492  0.4732
   48CHL1   H4A 3484   4.257   5.599   6.483  0.0302 -1.4345 -0.8791
   48CHL1   H4B 3485   4.417   5.511   6.493  1.3248  1.0734  2.6885
   48CHL1    C5 3486   4.400   5.670   6.633  0.1091 -0.5645 -0.0580
   48CHL1    C6 3487   4.479   5.598   6.718  0.0479 -0.0669  0.1102
   48CHL1    H6 3488   4.533   5.507   6.689  0.2300 -0.8572  2.6240
   48CHL1    C7 3489   4.513   5.642   6.860  0.2769  0.3215  0.0291
   48CHL1   H7A 3490   4.504   5.549   6.921 -0.9106 -0.0807 -0.7203
   48CHL1   H7B 3491   4.621   5.665   6.871  0.4244 -0.6698  0.8357
   48CHL1    C8 3492   4.412   5.755   6.905 -0.3965  0.6879  0.1635
   48CHL1    H8 3493   4.316   5.705   6.930  0.8574 -1.4351  0.9973
   48CHL1   C14 3494   4.477   5.816   7.033  0.2711 -0.3319 -0.6990
   48CHL1   H14 3495   4.569   5.868   6.998 -0.0875  0.3899 -0.5856
   48CHL1   C15 3496   4.535   5.730   7.143 -0.6068  0.1258 -0.0485
   48CHL1  H15A 3497   4.455   5.658   7.169 -0.3895 -0.8525 -1.9742
   48CHL1  H15B 3498   4.624   5.666   7.128 -1.8735 -1.6581 -0.2989
   48CHL1   C16 3499   4.545   5.823   7.263 -0.4841 -0.3854 -0.3288
   48CHL1  H16A 3500   4.492   5.786   7.354  0.7515  1.6237  1.2971
   48CHL1  H16B 3501   4.651   5.846   7.287 -0.7496  1.8013 -1.0523
   48CHL1   C17 3502   4.474   5.953   7.218  0.0326  0.0068  0.1876
   48CHL1   H17 3503   4.558   6.008   7.170 -1.4571  2.1151 -0.1846
   48CHL1   C13 3504   4.393   5.923   7.096  0.2215 -0.2363 -0.7545
   48CHL1   C18 3505   4.250   5.870   7.139  0.3985  0.6194  0.3085
   48CHL1  H18A 3506   4.181   5.954   7.162  0.4775  0.2937  1.7663
   48CHL1  H18B 3507   4.207   5.816   7.052  0.8926  1.1994 -0.3086
   48CHL1  H18C 3508   4.257   5.794   7.219 -0.6977  1.8965  1.6578
   48CHL1   C12 3509   4.375   6.038   6.992 -0.1787 -0.5151 -0.3911
   48CHL1  H12A 3510   4.315   6.123   7.033  0.0039 -2.0830  3.6099
   48CHL1  H12B 3511   4.473   6.087   6.972  0.0355 -0.9770 -0.4946
   48CHL1   C11 3512   4.321   5.989   6.854  0.6492  0.7454 -0.7388
   48CHL1  H11A 3513   4.217   5.955   6.874  0.4186  1.7080 -0.2548
   48CHL1  H11B 3514   4.328   6.072   6.781 -0.1486  0.5239 -1.0784
   48CHL1    C9 3515   4.392   5.859   6.797  0.0380 -0.2305  0.1323
   48CHL1    H9 3516   4.494   5.890   6.768  0.9621 -2.6296  0.5446
   48CHL1   C10 3517   4.337   5.801   6.663 -0.3038  0.0559  0.3995
   48CHL1   C19 3518   4.179   5.791   6.664  0.3795 -0.3844  0.1605
   48CHL1  H19A 3519   4.130   5.890   6.661  1.9181  0.4570  1.2272
   48CHL1  H19B 3520   4.139   5.747   6.570  1.5731  0.7414 -0.9060
   48CHL1  H19C 3521   4.153   5.731   6.754 -0.5305  1.7043  1.3594
   48CHL1    C1 3522   4.373   5.903   6.550  0.0372 -0.0885 -0.0703
   48CHL1   H1A 3523   4.316   5.997   6.565  1.3093  0.8166 -0.6763
   48CHL1   H1B 3524   4.481   5.930   6.553 -0.1104  0.4485  1.2392
   48CHL1    C2 3525   4.351   5.841   6.410  0.2455 -0.1762  0.5028
   48CHL1   H2A 3526   4.369   5.920   6.333 -2.2306 -0.0239  0.0137
   48CHL1   H2B 3527   4.243   5.818   6.405 -0.1404  1.5343  0.5941
   48CHL1   C20 3528   4.415   6.036   7.334  0.4447  0.4131 -0.1185
   48CHL1   H20 3529   4.333   5.979   7.382  0.7589  0.0735  0.0254
   48CHL1   C21 3530   4.361   6.173   7.286  0.0169  0.2108  0.0631
   48CHL1  H21A 3531   4.429   6.218   7.211  2.1999 -2.2534  0.4172
   48CHL1  H21B 3532   4.365   6.251   7.366  1.8720  1.1698 -0.9035
   48CHL1  H21C 3533   4.254   6.175   7.254  0.2181 -0.6388 -0.6944
   48CHL1   C22 3534   4.514   6.062   7.445  0.0398 -0.6380 -0.4115
   48CHL1  H22A 3535   4.582   5.978   7.467  1.0787  0.5979  1.3865
   48CHL1  H22B 3536   4.573   6.146   7.404 -2.6919  1.6571 -0.0079
   48CHL1   C23 3537   4.452   6.089   7.584  0.8698 -0.5581 -0.8262
   48CHL1  H23A 3538   4.391   6.181   7.586 -1.5112 -2.0526  1.1694
   48CHL1  H23B 3539   4.392   6.005   7.623 -0.3073  1.1485  1.2617
   48CHL1   C24 3540   4.570   6.107   7.685  0.4747 -0.4633  0.4495
   48CHL1  H24A 3541   4.636   6.020   7.703 -0.6217 -1.3670  0.1975
   48CHL1  H24B 3542   4.628   6.197   7.655 -2.8942  1.1214 -2.0344
   48CHL1   C25 3543   4.517   6.128   7.826 -0.3114 -0.6465 -0.2248
   48CHL1   H25 3544   4.441   6.208   7.819  0.6297  0.4935  1.6734
   48CHL1   C26 3545   4.451   6.001   7.890 -0.4834  0.2817  1.0902
   48CHL1  H26A 3546   4.439   6.020   7.999 -0.5649 -1.8671  1.5056
   48CHL1  H26B 3547   4.356   5.965   7.847  0.5002 -2.0182  0.7281
   48CHL1  H26C 3548   4.513   5.909   7.884 -1.6031 -0.4033 -2.3707
   48CHL1   C27 3549   4.633   6.189   7.916 -0.1126 -0.1066  0.5512
   48CHL1  H27A 3550   4.596   6.229   8.013  1.4837 -1.4754  1.7676
   48CHL1  H27B 3551   4.703   6.104   7.925 -0.9960 -0.8278  0.8027
   48CHL1  H27C 3552   4.696   6.269   7.873  1.5284 -0.2758  2.4886
   49CHL1    C3 3553   2.851   6.048   6.974 -0.0686 -0.4925  0.9582
   49CHL1    H3 3554   2.822   6.155   6.965  0.5498 -0.4239 -0.6636
   49CHL1    O3 3555   2.920   6.024   6.849  0.0397  0.3796  0.1535
   49CHL1   H3' 3556   2.842   5.997   6.800 -1.8272 -0.1924  3.1871
   49CHL1    C4 3557   2.947   6.030   7.094  0.3285  0.0919  0.0652
   49CHL1   H4A 3558   2.972   5.923   7.077  1.2002  0.2453  0.3044
   49CHL1   H4B 3559   3.038   6.089   7.070 -0.2363  1.3719  0.9780
   49CHL1    C5 3560   2.889   6.038   7.233  0.1717 -0.3533 -0.5077
   49CHL1    C6 3561   2.945   6.119   7.324  0.0654  0.2067  0.0420
   49CHL1    H6 3562   3.036   6.173   7.292  1.7320 -2.5623 -0.1532
   49CHL1    C7 3563   2.893   6.146   7.465 -0.4259 -0.2875 -0.4121
   49CHL1   H7A 3564   2.964   6.119   7.547  0.0199 -0.3063 -0.7991
   49CHL1   H7B 3565   2.880   6.256   7.481 -1.9315 -0.5751  0.5797
   49CHL1    C8 3566   2.767   6.064   7.502 -0.7623  0.2709  0.3680
   49CHL1    H8 3567   2.807   5.964   7.527  2.0444  1.2728  0.2634
   49CHL1   C14 3568   2.695   6.132   7.610 -0.1220  0.1090 -0.2591
   49CHL1   H14 3569   2.665   6.228   7.563  1.5201  1.0990  0.6194
   49CHL1   C15 3570   2.766   6.168   7.743  0.4141 -0.9572  0.1393
   49CHL1  H15A 3571   2.810   6.070   7.771  1.3771 -0.1459  1.5960
   49CHL1  H15B 3572   2.841   6.248   7.721 -0.9700 -0.0979 -1.6671
   49CHL1   C16 3573   2.654   6.209   7.840 -0.3593 -0.1636  0.7634
   49CHL1  H16A 3574   2.675   6.148   7.930 -0.4049 -1.1993  0.0877
   49CHL1  H16B 3575   2.650   6.318   7.859  0.2397 -0.3873  2.3223
   49CHL1   C17 3576   2.519   6.170   7.772  0.2413  0.1915  0.0864
   49CHL1   H17 3577   2.489   6.261   7.715  1.0209  1.3160  1.4135
   49CHL1   C13 3578   2.568   6.068   7.658  0.0894  0.6035 -0.1313
   49CHL1   C18 3579   2.588   5.937   7.738 -0.0731  0.3158  0.2924
   49CHL1  H18A 3580   2.631   5.957   7.838  1.2917 -0.6048 -0.0932
   49CHL1  H18B 3581   2.496   5.875   7.748  0.7995 -1.4219 -1.6667
   49CHL1  H18C 3582   2.656   5.870   7.681 -2.0938 -1.2969 -0.3745
   49CHL1   C12 3583   2.474   6.055   7.537  0.1955  0.3606  0.3831
   49CHL1  H12A 3584   2.374   6.009   7.553 -0.7072  0.9816 -2.7798
   49CHL1  H12B 3585   2.452   6.155   7.493 -0.6206 -0.1564 -0.4343
   49CHL1   C11 3586   2.542   5.975   7.428  0.3742  0.1092  1.1824
   49CHL1  H11A 3587   2.560   5.874   7.470  1.6002  0.2145  0.9619
   49CHL1  H11B 3588   2.474   5.952   7.343  0.0515 -0.2969  1.5476
   49CHL1    C9 3589   2.677   6.044   7.380  0.9087 -0.5369 -0.5368
   49CHL1    H9 3590   2.644   6.147   7.357  1.9018 -0.1520 -0.2965
   49CHL1   C10 3591   2.746   5.983   7.252  0.3946  0.2883 -0.1267
   49CHL1   C19 3592   2.759   5.831   7.268  0.1937 -0.7812  0.1164
   49CHL1  H19A 3593   2.798   5.813   7.370  0.3194  2.3843  0.7360
   49CHL1  H19B 3594   2.659   5.784   7.274 -1.0682  1.3659 -2.1062
   49CHL1  H19C 3595   2.818   5.797   7.181 -1.2825  0.0615 -1.2798
   49CHL1    C1 3596   2.655   5.997   7.130  0.1805 -0.2748 -0.6176
   49CHL1   H1A 3597   2.559   5.943   7.144  0.8691 -1.5996 -0.8213
   49CHL1   H1B 3598   2.628   6.104   7.115  2.4420  0.4266 -0.1193
   49CHL1    C2 3599   2.718   5.964   6.992  0.2235 -0.2150  0.0468
   49CHL1   H2A 3600   2.641   5.983   6.914 -0.7334  0.3562  1.1208
   49CHL1   H2B 3601   2.745   5.856   6.994 -0.1405 -0.3667 -1.5048
   49CHL1   C20 3602   2.405   6.128   7.866 -0.0658 -0.0115  0.6278
   49CHL1   H20 3603   2.430   6.034   7.920  3.2332  2.2454  3.5008
   49CHL1   C21 3604   2.272   6.110   7.796 -0.2209  0.2508 -0.1159
   49CHL1  H21A 3605   2.275   6.027   7.722  1.3711 -0.7705  1.0367
   49CHL1  H21B 3606   2.250   6.205   7.744 -1.5914 -0.4376 -0.8642
   49CHL1  H21C 3607   2.184   6.086   7.860 -1.1992  2.7272 -0.4435
   49CHL1   C22 3608   2.395   6.232   7.981  0.3236  0.3581 -0.2540
   49CHL1  H22A 3609   2.468   6.211   8.062 -0.0257 -1.6121 -0.3899
   49CHL1  H22B 3610   2.407   6.335   7.942  0.8180  0.7757  0.9723
   49CHL1   C23 3611   2.260   6.243   8.048 -0.1264 -0.2130  0.0823
   49CHL1  H23A 3612   2.181   6.271   7.974  0.3842  0.1141 -0.3491
   49CHL1  H23B 3613   2.236   6.141   8.086  2.0655 -1.4855 -1.6772
   49CHL1   C24 3614   2.243   6.358   8.148 -0.5402  0.4913  0.4905
   49CHL1  H24A 3615   2.324   6.351   8.224  0.1817 -3.8073 -0.4124
   49CHL1  H24B 3616   2.252   6.451   8.089  0.0171 -0.0028 -0.2172
   49CHL1   C25 3617   2.101   6.370   8.203 -0.1647  0.4959 -0.3273
   49CHL1   H25 3618   2.027   6.408   8.130 -3.9509 -0.2106  2.8135
   49CHL1   C26 3619   2.057   6.224   8.242  0.0747 -0.0171 -0.1728
   49CHL1  H26A 3620   1.970   6.233   8.311  0.7487 -4.0242  1.4770
   49CHL1  H26B 3621   2.027   6.155   8.160 -2.0605  0.4045  0.1826
   49CHL1  H26C 3622   2.139   6.175   8.299  0.0046 -0.3005 -0.3140
   49CHL1   C27 3623   2.112   6.466   8.324 -0.6997  0.3017 -0.4568
   49CHL1  H27A 3624   2.018   6.468   8.383 -0.5864  0.5072 -0.2788
   49CHL1  H27B 3625   2.196   6.427   8.387 -0.5832 -4.1800 -2.9932
   49CHL1  H27C 3626   2.141   6.567   8.287 -0.3606  0.0547 -0.8712
   50CHL1    C3 3627   4.508   0.315   6.839 -0.0297 -0.9917 -0.7549
   50CHL1    H3 3628   4.617   0.331   6.859 -0.2113 -0.3716 -0.2048
   50CHL1    O3 3629   4.492   0.321   6.700  0.2728 -0.5760  0.4670
   50CHL1   H3' 3630   4.546   0.251   6.661 -0.3946 -0.8609  0.0395
   50CHL1    C4 3631   4.453   0.188   6.891  0.6182 -0.2992  0.6821
   50CHL1   H4A 3632   4.346   0.176   6.862  0.8274 -0.7035  0.0642
   50CHL1   H4B 3633   4.501   0.103   6.838 -1.2241 -0.5008 -0.7655
   50CHL1    C5 3634   4.465   0.195   7.043 -0.9594 -0.2326 -0.3241
   50CHL1    C6 3635   4.527   0.098   7.108 -0.2770  0.4455  0.4348
   50CHL1    H6 3636   4.565   0.009   7.056 -1.6037 -0.0478  0.2852
   50CHL1    C7 3637   4.544   0.080   7.259 -0.9287 -0.5813 -0.1296
   50CHL1   H7A 3638   4.514  -0.021   7.293 -1.9446 -0.4660 -0.6450
   50CHL1   H7B 3639   4.650   0.100   7.284 -0.8427  0.4453 -1.2104
   50CHL1    C8 3640   4.464   0.190   7.338 -0.4107  0.1877  0.4783
   50CHL1    H8 3641   4.362   0.147   7.336 -0.4221  0.0930 -2.7573
   50CHL1   C14 3642   4.525   0.208   7.478 -0.0985  0.4305  0.5501
   50CHL1   H14 3643   4.628   0.249   7.469  0.8653 -1.0018  3.7334
   50CHL1   C15 3644   4.557   0.090   7.564  0.0790  0.0717  0.3518
   50CHL1  H15A 3645   4.466   0.028   7.547  1.4956 -2.7335  2.1181
   50CHL1  H15B 3646   4.641   0.024   7.534 -0.1498 -0.4445  0.8231
   50CHL1   C16 3647   4.564   0.142   7.709  0.0702  0.1765  0.2288
   50CHL1  H16A 3648   4.494   0.085   7.774 -1.8401  1.3667 -0.6760
   50CHL1  H16B 3649   4.666   0.130   7.750 -0.3135 -2.4622  0.5629
   50CHL1   C17 3650   4.518   0.296   7.699 -0.4918 -0.0753  0.1936
   50CHL1   H17 3651   4.610   0.357   7.682 -1.7620  1.6578 -0.7443
   50CHL1   C13 3652   4.440   0.301   7.568  0.0589 -0.0484 -0.1859
   50CHL1   C18 3653   4.294   0.241   7.591 -0.7905 -0.1020  0.2660
   50CHL1  H18A 3654   4.234   0.216   7.501  0.6198 -1.8806 -0.2328
   50CHL1  H18B 3655   4.305   0.152   7.657 -0.5289 -0.2346  0.0435
   50CHL1  H18C 3656   4.222   0.306   7.646  0.5936  1.6266  0.0977
   50CHL1   C12 3657   4.431   0.438   7.504 -0.1169 -0.2989  0.1464
   50CHL1  H12A 3658   4.373   0.515   7.558  2.8949  0.8904  1.9472
   50CHL1  H12B 3659   4.529   0.490   7.508  1.1948 -2.2872 -2.5124
   50CHL1   C11 3660   4.389   0.429   7.355  0.8102  0.6923  0.9005
   50CHL1  H11A 3661   4.279   0.414   7.362  0.9637 -2.8012 -1.5442
   50CHL1  H11B 3662   4.409   0.527   7.308  2.6484 -0.5155 -0.9736
   50CHL1    C9 3663   4.459   0.327   7.263  0.0327  0.1744 -0.5793
   50CHL1    H9 3664   4.564   0.362   7.251 -0.1328  1.5445  1.4366
   50CHL1   C10 3665   4.405   0.316   7.120 -0.0433 -0.0015  0.3182
   50CHL1   C19 3666   4.249   0.301   7.113 -0.4845  0.8807 -0.6359
   50CHL1  H19A 3667   4.195   0.390   7.151  1.8594  1.3981  1.7131
   50CHL1  H19B 3668   4.221   0.281   7.007  2.0741 -0.1352 -1.1865
   50CHL1  H19C 3669   4.213   0.222   7.183  0.0760  0.3485 -0.9326
   50CHL1    C1 3670   4.450   0.449   7.045 -0.1218  0.0707  0.0665
   50CHL1   H1A 3671   4.408   0.542   7.089  0.1595  0.7711 -1.1220
   50CHL1   H1B 3672   4.559   0.456   7.064  0.0529 -1.5629 -0.1605
   50CHL1    C2 3673   4.435   0.434   6.892 -0.7244  0.4367 -0.7513
   50CHL1   H2A 3674   4.482   0.527   6.853  2.6168 -1.1426 -0.8886
   50CHL1   H2B 3675   4.329   0.433   6.860 -0.1936  0.0690 -2.5952
   50CHL1   C20 3676   4.455   0.349   7.826  1.0524  0.2927  0.1335
   50CHL1   H20 3677   4.363   0.290   7.846  0.9132  0.5362  0.2174
   50CHL1   C21 3678   4.417   0.500   7.813  0.0885  0.2152 -0.1308
   50CHL1  H21A 3679   4.497   0.552   7.755 -0.5982  0.8300 -0.5407
   50CHL1  H21B 3680   4.404   0.546   7.913  1.3833  0.0048  0.1607
   50CHL1  H21C 3681   4.320   0.513   7.761  1.0401 -0.3775 -2.1688
   50CHL1   C22 3682   4.555   0.338   7.942  0.3660 -0.1515  0.1683
   50CHL1  H22A 3683   4.607   0.240   7.937 -0.3296 -0.6128  1.4973
   50CHL1  H22B 3684   4.631   0.419   7.931 -1.7004  1.5412 -3.6824
   50CHL1   C23 3685   4.494   0.338   8.079 -0.3588 -0.5567 -0.3935
   50CHL1  H23A 3686   4.441   0.433   8.103  1.5967 -0.0718  2.5935
   50CHL1  H23B 3687   4.420   0.256   8.086 -0.9180 -0.0578 -0.3657
   50CHL1   C24 3688   4.603   0.331   8.184 -0.4783 -0.0821 -0.7031
   50CHL1  H24A 3689   4.645   0.229   8.168 -1.1220 -0.9630  2.4696
   50CHL1  H24B 3690   4.689   0.398   8.160 -2.5265  1.7948 -3.3913
   50CHL1   C25 3691   4.567   0.327   8.331 -0.4131 -0.3229  0.0785
   50CHL1   H25 3692   4.656   0.306   8.394 -0.6083 -0.4025  0.3292
   50CHL1   C26 3693   4.514   0.464   8.371 -0.2021  0.0520 -0.0144
   50CHL1  H26A 3694   4.462   0.450   8.468 -0.3417 -0.3651 -0.1469
   50CHL1  H26B 3695   4.583   0.550   8.361 -0.6158  0.2644 -1.2904
   50CHL1  H26C 3696   4.435   0.500   8.301 -1.3908  0.0006  1.2481
   50CHL1   C27 3697   4.453   0.226   8.364  0.0494 -0.9194  0.2995
   50CHL1  H27A 3698   4.424   0.227   8.471 -1.5864  0.4139 -0.1151
   50CHL1  H27B 3699   4.360   0.256   8.312  0.4940  3.1234  1.5425
   50CHL1  H27C 3700   4.473   0.119   8.340  0.3748 -0.6458 -0.6705
   51CHL1    C3 3701   3.373   6.101   7.167  0.3267  0.8284 -0.8678
   51CHL1    H3 3702   3.266   6.086   7.142  0.2713 -2.9739  0.9597
   51CHL1    O3 3703   3.456   6.127   7.046  0.7832  0.6770 -0.1397
   51CHL1   H3' 3704   3.435   6.054   6.988  2.2294  0.7576 -0.8025
   51CHL1    C4 3705   3.394   6.221   7.254 -0.9112 -0.2070 -0.0517
   51CHL1   H4A 3706   3.503   6.235   7.266 -0.8472  0.1996 -1.0243
   51CHL1   H4B 3707   3.352   6.303   7.191 -1.3373  0.7677  1.4552
   51CHL1    C5 3708   3.340   6.209   7.390  0.0257 -0.1635 -0.7342
   51CHL1    C6 3709   3.261   6.303   7.451 -0.1836 -0.1122 -0.2953
   51CHL1    H6 3710   3.223   6.383   7.385 -1.5284 -1.3818 -1.1301
   51CHL1    C7 3711   3.216   6.303   7.592  0.2738  0.2707  0.5446
   51CHL1   H7A 3712   3.221   6.403   7.640 -0.5860  1.4660 -1.6842
   51CHL1   H7B 3713   3.109   6.274   7.588  0.2886  0.2578 -2.6232
   51CHL1    C8 3714   3.282   6.190   7.676  0.9482 -0.2734 -0.8011
   51CHL1    H8 3715   3.383   6.229   7.699  0.7464  0.6522 -1.4259
   51CHL1   C14 3716   3.210   6.170   7.805 -0.0208  0.4821  0.2947
   51CHL1   H14 3717   3.116   6.117   7.780 -0.0905 -0.7388  2.8487
   51CHL1   C15 3718   3.170   6.290   7.897  0.6413 -0.2500  0.5240
   51CHL1  H15A 3719   3.247   6.370   7.905  1.4893 -0.4418 -3.6586
   51CHL1  H15B 3720   3.083   6.331   7.843  1.1028 -0.8323 -0.6949
   51CHL1   C16 3721   3.151   6.235   8.034  0.3895  0.8144 -0.3541
   51CHL1  H16A 3722   3.214   6.293   8.105  0.9313  1.2468 -1.1685
   51CHL1  H16B 3723   3.044   6.246   8.062  0.6788  0.1149  1.1418
   51CHL1   C17 3724   3.192   6.082   8.026  0.1790  0.0087 -0.2534
   51CHL1   H17 3725   3.100   6.030   7.993 -0.1019  0.4583 -0.1925
   51CHL1   C13 3726   3.289   6.076   7.901  0.0995  0.1880  0.3521
   51CHL1   C18 3727   3.425   6.124   7.944 -0.5799 -0.3285 -0.8674
   51CHL1  H18A 3728   3.485   6.042   7.990 -0.6073  0.2030  0.1574
   51CHL1  H18B 3729   3.478   6.182   7.865 -0.0439  0.3481 -0.0272
   51CHL1  H18C 3730   3.413   6.198   8.026 -1.3544 -1.7423  0.3481
   51CHL1   C12 3731   3.299   5.941   7.829  0.3137  0.8571  0.1386
   51CHL1  H12A 3732   3.356   5.868   7.890 -0.1688  1.6817  1.6442
   51CHL1  H12B 3733   3.199   5.893   7.818  1.1871 -0.7341 -1.3047
   51CHL1   C11 3734   3.371   5.954   7.694 -0.1310 -0.4801 -0.2433
   51CHL1  H11A 3735   3.478   5.972   7.716 -0.4642  1.1786  0.1416
   51CHL1  H11B 3736   3.366   5.861   7.633 -1.1607 -0.4884 -0.1602
   51CHL1    C9 3737   3.304   6.058   7.602  0.3526 -0.4281 -0.1833
   51CHL1    H9 3738   3.210   6.012   7.565  1.3814 -2.0604 -0.9058
   51CHL1   C10 3739   3.382   6.084   7.466 -0.2091  0.0526  0.8768
   51CHL1   C19 3740   3.536   6.100   7.495  0.2352 -0.4677 -0.7293
   51CHL1  H19A 3741   3.560   6.188   7.558  2.7280 -1.7502  0.2491
   51CHL1  H19B 3742   3.567   6.007   7.547  1.4073  0.9436  1.2266
   51CHL1  H19C 3743   3.607   6.110   7.411  1.4162  2.9228  0.5197
   51CHL1    C1 3744   3.340   5.962   7.371 -0.2155 -0.2349 -0.0268
   51CHL1   H1A 3745   3.369   5.864   7.417 -0.6850 -0.8215 -0.9503
   51CHL1   H1B 3746   3.232   5.978   7.355  0.2070 -0.0673 -3.4984
   51CHL1    C2 3747   3.418   5.975   7.238 -0.1442  0.2206  0.9391
   51CHL1   H2A 3748   3.401   5.896   7.162  2.1648  3.0918 -2.9322
   51CHL1   H2B 3749   3.524   5.986   7.266 -0.5288  1.9916  1.8862
   51CHL1   C20 3750   3.232   6.025   8.163 -0.1542  0.7301 -0.0034
   51CHL1   H20 3751   3.321   6.085   8.192 -0.4904  0.2111  2.2963
   51CHL1   C21 3752   3.275   5.878   8.153 -0.0549  0.5590  0.2754
   51CHL1  H21A 3753   3.183   5.835   8.108 -1.0795  1.9204  1.0130
   51CHL1  H21B 3754   3.295   5.828   8.251  0.7005 -0.4498 -0.3737
   51CHL1  H21C 3755   3.366   5.863   8.091 -0.0985  2.8559 -0.4379
   51CHL1   C22 3756   3.122   6.055   8.274  0.0864 -0.2082  0.5969
   51CHL1  H22A 3757   3.168   6.022   8.370  2.4265  3.2786  0.8854
   51CHL1  H22B 3758   3.104   6.164   8.288 -0.1001  0.1735 -2.0633
   51CHL1   C23 3759   2.981   5.986   8.250 -0.0239 -0.1615 -0.0892
   51CHL1  H23A 3760   2.949   6.022   8.150 -2.8883 -0.1796  0.7292
   51CHL1  H23B 3761   3.005   5.877   8.246  1.9472  0.2770 -2.8140
   51CHL1   C24 3762   2.864   6.014   8.348 -0.4724 -0.3015 -0.6184
   51CHL1  H24A 3763   2.836   6.120   8.362 -3.0985 -0.7774 -1.6544
   51CHL1  H24B 3764   2.773   5.968   8.304 -0.5789 -1.1007  0.4027
   51CHL1   C25 3765   2.880   5.966   8.489  0.1341 -0.1179  0.4202
   51CHL1   H25 3766   2.972   6.017   8.526  1.3147 -0.2600 -2.1016
   51CHL1   C26 3767   2.760   5.996   8.574 -0.1710  0.6367  0.2370
   51CHL1  H26A 3768   2.737   6.104   8.585 -3.9792 -0.0581  0.2981
   51CHL1  H26B 3769   2.669   5.951   8.529  0.1936  1.9702 -1.9868
   51CHL1  H26C 3770   2.764   5.958   8.679  2.9655 -1.8084 -0.6021
   51CHL1   C27 3771   2.918   5.817   8.501  0.1452  0.0202  0.6196
   51CHL1  H27A 3772   2.916   5.796   8.610  0.1984  0.8980  0.7973
   51CHL1  H27B 3773   2.857   5.751   8.437  0.2690 -0.5633  1.0932
   51CHL1  H27C 3774   3.024   5.808   8.468 -0.2332 -2.1925 -0.1195
   52CHL1    C3 3775   0.190   6.034   7.044 -0.6360 -0.5439  0.3058
   52CHL1    H3 3776   0.126   6.110   7.093 -0.8377  0.1966 -1.0511
   52CHL1    O3 3777   0.244   6.083   6.925  0.0029 -0.2827  0.6710
   52CHL1   H3' 3778   0.336   6.058   6.917  0.8412  2.8483 -1.4852
   52CHL1    C4 3779   0.314   5.989   7.128 -0.5256 -0.2551 -0.5223
   52CHL1   H4A 3780   0.381   5.916   7.076  0.7190 -0.9525  1.9143
   52CHL1   H4B 3781   0.386   6.074   7.135  2.4080 -2.7172  2.8646
   52CHL1    C5 3782   0.279   5.934   7.266 -0.6658 -0.4465 -0.3799
   52CHL1    C6 3783   0.324   5.988   7.383  0.3328 -0.5724  0.0191
   52CHL1    H6 3784   0.379   6.083   7.372 -0.8003  0.0026 -0.8385
   52CHL1    C7 3785   0.277   5.929   7.515  1.1939  0.3855 -0.6525
   52CHL1   H7A 3786   0.359   5.923   7.590  1.4700 -0.2438 -0.9899
   52CHL1   H7B 3787   0.204   5.995   7.566  2.2781 -0.5169  2.2915
   52CHL1    C8 3788   0.210   5.786   7.514  0.6733  0.0141  0.0017
   52CHL1    H8 3789   0.288   5.708   7.504 -1.7705 -2.7874  1.2439
   52CHL1   C14 3790   0.126   5.763   7.641 -0.1383  0.1086  1.1116
   52CHL1   H14 3791   0.051   5.844   7.630  1.6670  1.5096 -2.3345
   52CHL1   C15 3792   0.188   5.791   7.778 -0.0419 -0.4105  0.0819
   52CHL1  H15A 3793   0.292   5.754   7.773  0.0737 -0.0308 -0.2775
   52CHL1  H15B 3794   0.184   5.899   7.802  1.3353 -0.2197 -0.4948
   52CHL1   C16 3795   0.097   5.707   7.871 -0.4009 -0.0271  0.1682
   52CHL1  H16A 3796   0.152   5.621   7.914  0.6913  0.0268 -1.0587
   52CHL1  H16B 3797   0.073   5.771   7.958  4.0313  2.2574 -0.0484
   52CHL1   C17 3798  -0.012   5.643   7.789  0.0000 -0.2162 -0.2354
   52CHL1   H17 3799  -0.093   5.718   7.777 -0.1715 -0.3332  0.1585
   52CHL1   C13 3800   0.047   5.632   7.647 -0.1726 -0.2650  0.3811
   52CHL1   C18 3801   0.142   5.513   7.629  0.4180  0.1254  0.3780
   52CHL1  H18A 3802   0.079   5.424   7.607  1.3158 -0.8600  1.6272
   52CHL1  H18B 3803   0.224   5.522   7.553 -0.4103 -3.3136 -1.1189
   52CHL1  H18C 3804   0.184   5.505   7.731 -3.4799  1.4807  2.2897
   52CHL1   C12 3805  -0.046   5.625   7.524  0.3295 -0.2391  0.2267
   52CHL1  H12A 3806  -0.094   5.525   7.514 -0.2855 -0.1214  1.7825
   52CHL1  H12B 3807  -0.130   5.695   7.547 -1.7295 -1.8257 -1.9519
   52CHL1   C11 3808   0.029   5.650   7.388  0.0596  0.9280  0.0703
   52CHL1  H11A 3809   0.086   5.560   7.357 -4.4310 -1.4367 -2.4520
   52CHL1  H11B 3810  -0.049   5.670   7.311  0.6298  1.3722 -0.3936
   52CHL1    C9 3811   0.110   5.782   7.399  0.5372  0.1903  0.1099
   52CHL1    H9 3812   0.033   5.861   7.413 -0.6117 -1.0221  0.9559
   52CHL1   C10 3813   0.176   5.813   7.259 -0.4301 -0.7356 -0.2671
   52CHL1   C19 3814   0.267   5.696   7.217  0.8216 -0.8910 -0.0552
   52CHL1  H19A 3815   0.295   5.711   7.111 -0.5650 -2.7219 -0.7454
   52CHL1  H19B 3816   0.353   5.689   7.286  0.7148  2.2235  0.5461
   52CHL1  H19C 3817   0.213   5.599   7.216 -0.7645 -0.0550 -1.3608
   52CHL1    C1 3818   0.063   5.855   7.159 -0.3156 -0.3279 -0.5043
   52CHL1   H1A 3819   0.005   5.762   7.138 -0.9754  0.1854 -1.0025
   52CHL1   H1B 3820  -0.002   5.931   7.207 -1.2011 -1.8762  0.8661
   52CHL1    C2 3821   0.108   5.902   7.024 -0.3957  0.7118 -0.0524
   52CHL1   H2A 3822   0.012   5.916   6.969 -0.8137 -0.7324  0.2575
   52CHL1   H2B 3823   0.172   5.827   6.972 -1.1498  0.0912 -0.1056
   52CHL1   C20 3824  -0.064   5.511   7.861  0.0616  0.3253 -0.0809
   52CHL1   H20 3825   0.011   5.428   7.855 -0.8649 -0.5859  0.6351
   52CHL1   C21 3826  -0.195   5.480   7.792  0.2713  0.5659  0.0766
   52CHL1  H21A 3827  -0.246   5.386   7.824  1.5191 -0.7331 -1.6064
   52CHL1  H21B 3828  -0.178   5.461   7.684  0.5849 -0.1354  0.2418
   52CHL1  H21C 3829  -0.263   5.567   7.785 -1.5923 -0.7582  0.8652
   52CHL1   C22 3830  -0.080   5.516   8.015  0.2931  0.5130  0.4064
   52CHL1  H22A 3831   0.020   5.530   8.062  1.0081 -2.1967 -0.1187
   52CHL1  H22B 3832  -0.158   5.591   8.039 -3.1187 -1.7261 -2.5751
   52CHL1   C23 3833  -0.131   5.379   8.078  0.2566 -0.8364 -0.2628
   52CHL1  H23A 3834  -0.234   5.359   8.043 -0.3158 -0.0492  0.8923
   52CHL1  H23B 3835  -0.070   5.289   8.055 -0.1567 -1.4434  0.9275
   52CHL1   C24 3836  -0.132   5.392   8.227 -0.4837 -0.2701  0.0307
   52CHL1  H24A 3837  -0.026   5.423   8.242 -0.1837 -2.0233  1.8692
   52CHL1  H24B 3838  -0.203   5.470   8.262 -0.4976  0.3195 -1.2370
   52CHL1   C25 3839  -0.153   5.261   8.305  0.3932  0.3140 -0.1722
   52CHL1   H25 3840  -0.072   5.189   8.282 -0.5684 -0.2421 -2.0143
   52CHL1   C26 3841  -0.128   5.286   8.458 -0.5371 -0.2503  0.0969
   52CHL1  H26A 3842  -0.203   5.358   8.497 -0.0716  0.6889 -0.6902
   52CHL1  H26B 3843  -0.118   5.190   8.514  1.1851 -0.4944 -0.5541
   52CHL1  H26C 3844  -0.033   5.343   8.464 -0.0561 -0.5636 -2.8456
   52CHL1   C27 3845  -0.296   5.198   8.277  0.2367 -0.0925  0.0420
   52CHL1  H27A 3846  -0.369   5.268   8.322 -1.1392 -0.1025 -2.0945
   52CHL1  H27B 3847  -0.312   5.198   8.168  0.5643  0.3697 -0.0086
   52CHL1  H27C 3848  -0.298   5.094   8.318 -0.7773 -0.1499 -0.1429
   53CHL1    C3 3849   2.306   3.417   7.313  0.0584  0.3927 -0.6932
   53CHL1    H3 3850   2.197   3.414   7.331  0.3214  0.0330  1.0762
   53CHL1    O3 3851   2.316   3.452   7.180 -0.6968  0.0279  0.1549
   53CHL1   H3' 3852   2.406   3.486   7.168 -0.7693 -0.3565 -1.8094
   53CHL1    C4 3853   2.372   3.516   7.409  0.7654 -0.1755 -0.4087
   53CHL1   H4A 3854   2.474   3.538   7.371  0.3334  2.4773 -0.2363
   53CHL1   H4B 3855   2.324   3.616   7.398  1.4810 -0.0040 -2.4361
   53CHL1    C5 3856   2.368   3.482   7.559 -0.6022  0.2373  0.4543
   53CHL1    C6 3857   2.327   3.568   7.654  0.4707  0.1159  0.2643
   53CHL1    H6 3858   2.284   3.664   7.622  0.3359  0.5299  1.6440
   53CHL1    C7 3859   2.321   3.545   7.799 -0.0889 -0.4836  0.1639
   53CHL1   H7A 3860   2.346   3.638   7.855  0.5108  0.2247 -1.2423
   53CHL1   H7B 3861   2.217   3.511   7.819  0.2230 -1.6069 -0.0664
   53CHL1    C8 3862   2.415   3.424   7.836 -0.5342 -0.0211 -0.5395
   53CHL1    H8 3863   2.521   3.449   7.815 -0.5440 -0.5814 -1.3193
   53CHL1   C14 3864   2.386   3.385   7.983  0.7912 -0.4873  0.5578
   53CHL1   H14 3865   2.278   3.359   7.987  0.1897  1.8686  1.1021
   53CHL1   C15 3866   2.399   3.493   8.095  0.2968 -0.1797  0.0638
   53CHL1  H15A 3867   2.488   3.558   8.085  0.6950 -0.6562  0.5100
   53CHL1  H15B 3868   2.303   3.548   8.109  0.6026 -0.2453  3.1863
   53CHL1   C16 3869   2.421   3.409   8.227 -0.7143 -0.2215  0.5025
   53CHL1  H16A 3870   2.527   3.434   8.251 -0.3852 -0.3934 -0.6939
   53CHL1  H16B 3871   2.347   3.429   8.307  0.5629 -0.3511  1.7700
   53CHL1   C17 3872   2.414   3.262   8.182  0.2216  0.1406  0.0341
   53CHL1   H17 3873   2.306   3.235   8.176  0.7195 -3.2086  3.3418
   53CHL1   C13 3874   2.462   3.261   8.030 -0.3243  0.1422  0.0428
   53CHL1   C18 3875   2.619   3.280   8.021  0.4568  0.0401 -0.4249
   53CHL1  H18A 3876   2.668   3.194   8.071  0.8098 -0.4179 -1.5183
   53CHL1  H18B 3877   2.653   3.288   7.915 -0.3744 -2.8879 -1.0173
   53CHL1  H18C 3878   2.643   3.367   8.085 -1.8772 -0.3752  1.1840
   53CHL1   C12 3879   2.423   3.138   7.950  0.7405 -0.1533  0.2834
   53CHL1  H12A 3880   2.475   3.048   7.988  1.7055  0.6339  0.8719
   53CHL1  H12B 3881   2.315   3.120   7.965  0.2764  1.2389 -1.1405
   53CHL1   C11 3882   2.436   3.166   7.799 -0.2135 -0.2243 -0.4998
   53CHL1  H11A 3883   2.544   3.158   7.776 -0.2078 -0.5470 -0.3710
   53CHL1  H11B 3884   2.395   3.083   7.737  0.8979 -1.0085 -0.2189
   53CHL1    C9 3885   2.377   3.305   7.748 -0.1120  0.1836 -0.2335
   53CHL1    H9 3886   2.266   3.296   7.752 -0.0128 -1.0518  2.6302
   53CHL1   C10 3887   2.414   3.343   7.595  0.2168  1.3367  0.3503
   53CHL1   C19 3888   2.570   3.336   7.581 -0.1395  0.7423  0.5552
   53CHL1  H19A 3889   2.622   3.389   7.663  2.4688 -1.1753  0.2497
   53CHL1  H19B 3890   2.620   3.237   7.575  3.7054  2.5581 -0.7963
   53CHL1  H19C 3891   2.599   3.377   7.482 -1.0541 -3.6064 -1.7890
   53CHL1    C1 3892   2.347   3.241   7.495  0.7897 -0.2148  0.0475
   53CHL1   H1A 3893   2.397   3.145   7.519  0.7506 -0.1855  0.2538
   53CHL1   H1B 3894   2.242   3.240   7.531  1.4570  1.2864  2.2907
   53CHL1    C2 3895   2.359   3.275   7.341  0.2312  0.7710 -0.1465
   53CHL1   H2A 3896   2.300   3.201   7.283 -0.0037  0.6261  0.2707
   53CHL1   H2B 3897   2.466   3.269   7.312 -0.5462 -2.6287 -3.0010
   53CHL1   C20 3898   2.483   3.167   8.285  0.5204 -0.0474 -0.0315
   53CHL1   H20 3899   2.501   3.071   8.232  1.3246  0.1431 -0.1178
   53CHL1   C21 3900   2.384   3.142   8.400 -0.0395  0.1795  0.1111
   53CHL1  H21A 3901   2.396   3.046   8.455 -1.5535 -0.3836 -0.4639
   53CHL1  H21B 3902   2.277   3.152   8.372 -0.5002  0.2203  1.7787
   53CHL1  H21C 3903   2.400   3.211   8.486 -1.4236  0.8078 -0.1081
   53CHL1   C22 3904   2.619   3.218   8.345  0.4551 -0.1075 -0.7067
   53CHL1  H22A 3905   2.708   3.231   8.280  1.7359 -1.0015  0.7962
   53CHL1  H22B 3906   2.604   3.305   8.413  2.4687  1.0929 -1.7151
   53CHL1   C23 3907   2.676   3.118   8.444 -0.0356  0.1855  0.3521
   53CHL1  H23A 3908   2.608   3.083   8.525 -0.9252 -0.7439 -0.7627
   53CHL1  H23B 3909   2.713   3.032   8.385 -0.7840 -0.1393  0.3350
   53CHL1   C24 3910   2.802   3.177   8.512 -0.0102 -0.3840  0.1989
   53CHL1  H24A 3911   2.876   3.194   8.430  1.5006  0.0687  1.6110
   53CHL1  H24B 3912   2.769   3.265   8.572 -1.6931 -0.1672 -0.9819
   53CHL1   C25 3913   2.869   3.087   8.614 -0.5034 -0.0368 -0.0920
   53CHL1   H25 3914   2.893   2.992   8.561 -0.2220 -0.0482  0.0543
   53CHL1   C26 3915   3.003   3.155   8.656  0.4440  0.1404  0.3449
   53CHL1  H26A 3916   2.986   3.264   8.668  0.7524  0.2124  0.1554
   53CHL1  H26B 3917   3.048   3.111   8.747  1.8863  0.3677 -0.2324
   53CHL1  H26C 3918   3.076   3.157   8.572  2.4346 -0.1446  2.0104
   53CHL1   C27 3919   2.793   3.061   8.735  0.4050 -0.1771  0.2703
   53CHL1  H27A 3920   2.845   2.985   8.798  1.1539  0.0910 -0.0124
   53CHL1  H27B 3921   2.767   3.152   8.793 -2.6272 -0.9943  0.3493
   53CHL1  H27C 3922   2.702   3.008   8.701 -0.3306 -0.3578  2.3404
   54CHL1    C3 3923   1.730   5.554   7.116  0.3676  0.1380  0.2937
   54CHL1    H3 3924   1.773   5.634   7.180  2.2904  0.6375 -1.5112
   54CHL1    O3 3925   1.683   5.594   6.991 -0.7364  0.0261  0.0465
   54CHL1   H3' 3926   1.751   5.556   6.934  2.0043  1.6259  2.0481
   54CHL1    C4 3927   1.834   5.436   7.120  0.7546 -0.3025  0.6679
   54CHL1   H4A 3928   1.793   5.343   7.076 -1.2594 -0.4359  2.6384
   54CHL1   H4B 3929   1.927   5.469   7.068 -0.6464  3.4185  0.2242
   54CHL1    C5 3930   1.867   5.399   7.260 -0.2110  0.0757  0.0019
   54CHL1    C6 3931   1.990   5.401   7.315 -0.3354 -1.0226 -0.5146
   54CHL1    H6 3932   2.082   5.432   7.263  0.2804  2.4324  2.2901
   54CHL1    C7 3933   2.039   5.345   7.446 -0.4120  0.0299 -0.3187
   54CHL1   H7A 3934   2.137   5.292   7.451 -0.7493 -0.4465  2.2417
   54CHL1   H7B 3935   2.052   5.432   7.513  0.2827  0.3448 -0.8430
   54CHL1    C8 3936   1.928   5.258   7.517 -0.6808  0.2138  0.7442
   54CHL1    H8 3937   1.924   5.154   7.479  0.4287  0.6911 -0.7830
   54CHL1   C14 3938   1.961   5.264   7.671  0.3279  0.5920 -0.5908
   54CHL1   H14 3939   1.978   5.368   7.707  0.2862  0.5459 -0.4364
   54CHL1   C15 3940   2.106   5.208   7.719  0.0314 -0.5905 -0.1093
   54CHL1  H15A 3941   2.135   5.114   7.668 -0.7457 -0.4067 -0.9044
   54CHL1  H15B 3942   2.179   5.284   7.683 -2.0163  1.4231 -0.2358
   54CHL1   C16 3943   2.084   5.200   7.872  0.2742 -0.3631 -0.9228
   54CHL1  H16A 3944   2.126   5.107   7.914  0.0037 -0.1430 -0.1594
   54CHL1  H16B 3945   2.138   5.288   7.914 -0.2251 -0.4096 -0.1715
   54CHL1   C17 3946   1.933   5.209   7.905  0.2315 -0.0251  0.0776
   54CHL1   H17 3947   1.921   5.314   7.939  0.7844 -0.2057  0.8528
   54CHL1   C13 3948   1.857   5.207   7.765 -0.3934  0.1710 -0.3740
   54CHL1   C18 3949   1.833   5.062   7.732 -0.2850 -0.1612 -0.6299
   54CHL1  H18A 3950   1.920   5.001   7.763 -0.3973 -0.9330 -1.7895
   54CHL1  H18B 3951   1.750   5.017   7.790 -0.4099  0.2383 -0.4908
   54CHL1  H18C 3952   1.828   5.040   7.623 -0.1679 -0.5044 -0.5649
   54CHL1   C12 3953   1.722   5.278   7.735 -0.2965  0.3050 -0.3164
   54CHL1  H12A 3954   1.647   5.236   7.805 -1.3864  0.6671 -1.2235
   54CHL1  H12B 3955   1.746   5.384   7.758  2.5045  0.0285 -1.5803
   54CHL1   C11 3956   1.678   5.273   7.587  0.0213  0.0362  0.1663
   54CHL1  H11A 3957   1.655   5.170   7.551 -0.7258  0.6461 -1.2018
   54CHL1  H11B 3958   1.584   5.331   7.580  0.4704  0.6096 -1.6613
   54CHL1    C9 3959   1.793   5.332   7.496 -0.2818  0.1425 -0.0596
   54CHL1    H9 3960   1.808   5.435   7.536 -0.1916 -0.1581  0.7000
   54CHL1   C10 3961   1.751   5.345   7.352 -0.1816  0.1989  0.5082
   54CHL1   C19 3962   1.715   5.205   7.297 -0.1709 -0.3435  0.3529
   54CHL1  H19A 3963   1.803   5.138   7.308  2.2452  2.6625  0.6911
   54CHL1  H19B 3964   1.625   5.162   7.346 -0.5652 -0.7229 -0.6765
   54CHL1  H19C 3965   1.685   5.214   7.190  1.0418  1.1495  0.1023
   54CHL1    C1 3966   1.633   5.438   7.335  0.4736 -0.3595  0.7770
   54CHL1   H1A 3967   1.538   5.395   7.373  0.0798 -1.0997 -0.9354
   54CHL1   H1B 3968   1.646   5.520   7.408 -2.5638 -1.2740  2.5093
   54CHL1    C2 3969   1.600   5.501   7.200  0.0206 -0.2631 -0.5138
   54CHL1   H2A 3970   1.528   5.584   7.218  0.6979  0.3633 -0.6254
   54CHL1   H2B 3971   1.537   5.438   7.134 -0.8319  1.3388 -1.2985
   54CHL1   C20 3972   1.876   5.122   8.018  0.4205 -0.0606 -0.7452
   54CHL1   H20 3973   1.873   5.016   7.985  0.2984  0.5499 -2.8231
   54CHL1   C21 3974   1.731   5.171   8.046  0.3913  0.2411 -0.0988
   54CHL1  H21A 3975   1.726   5.281   8.027  1.8086  0.6959  1.9278
   54CHL1  H21B 3976   1.693   5.141   8.146  1.5309  0.4077  0.3940
   54CHL1  H21C 3977   1.661   5.122   7.975 -1.3343  0.3113  1.4724
   54CHL1   C22 3978   1.960   5.125   8.141 -0.0657  0.6387 -0.4870
   54CHL1  H22A 3979   1.909   5.050   8.205  1.5734 -0.1944 -0.1021
   54CHL1  H22B 3980   2.063   5.082   8.134 -0.5415 -0.2788 -2.7140
   54CHL1   C23 3981   1.965   5.247   8.223 -0.3237  0.2074  0.5718
   54CHL1  H23A 3982   2.051   5.309   8.191 -0.0394 -0.3308  0.2778
   54CHL1  H23B 3983   1.869   5.301   8.209 -0.0518  0.4643 -0.3440
   54CHL1   C24 3984   1.975   5.205   8.374 -0.4049 -0.5760  0.3129
   54CHL1  H24A 3985   1.872   5.168   8.390 -1.3569  1.5347 -0.5840
   54CHL1  H24B 3986   2.042   5.120   8.398  0.6598 -0.0999 -0.8336
   54CHL1   C25 3987   1.996   5.321   8.474  0.2623  0.6052  0.0642
   54CHL1   H25 3988   2.087   5.373   8.435  0.4445 -0.6192 -1.2182
   54CHL1   C26 3989   1.878   5.425   8.480 -0.6097 -0.2282 -0.5154
   54CHL1  H26A 3990   1.908   5.506   8.550  1.7312 -2.5577  1.3492
   54CHL1  H26B 3991   1.865   5.459   8.374 -0.5764 -0.2967 -0.5415
   54CHL1  H26C 3992   1.783   5.378   8.512  0.2557 -0.8974  1.1512
   54CHL1   C27 3993   2.011   5.268   8.615  0.4055  0.2487  0.2268
   54CHL1  H27A 3994   2.000   5.356   8.682 -0.4990  2.2988 -2.4578
   54CHL1  H27B 3995   1.927   5.198   8.634 -0.7714  1.1654 -1.3897
   54CHL1  H27C 3996   2.109   5.218   8.634 -0.4454 -1.9975 -0.9354
   55CHL1    C3 3997   2.426   0.998   7.090 -0.0103 -0.0627  0.0957
   55CHL1    H3 3998   2.521   1.054   7.096  0.6097 -1.1650  1.3352
   55CHL1    O3 3999   2.427   0.936   6.960 -0.4706  0.2900  0.6921
   55CHL1   H3' 4000   2.338   0.944   6.926 -0.3384 -0.6173  0.1179
   55CHL1    C4 4001   2.411   0.883   7.192 -0.3961  0.9337 -0.4505
   55CHL1   H4A 4002   2.317   0.826   7.177 -0.5691  1.1667 -0.2765
   55CHL1   H4B 4003   2.500   0.818   7.185 -1.9166 -1.6777  2.0750
   55CHL1    C5 4004   2.397   0.949   7.328 -0.6861 -0.6035  0.0465
   55CHL1    C6 4005   2.488   0.923   7.424  0.0540 -0.1558 -0.0679
   55CHL1    H6 4006   2.569   0.853   7.398 -0.5710 -0.9802  0.1891
   55CHL1    C7 4007   2.474   0.974   7.561  0.1067 -0.2822  0.0584
   55CHL1   H7A 4008   2.483   0.891   7.634  0.2191  0.0569  0.4289
   55CHL1   H7B 4009   2.560   1.043   7.576  0.1393  0.1105 -1.7122
   55CHL1    C8 4010   2.341   1.042   7.589  0.4109 -0.8872 -0.2833
   55CHL1    H8 4011   2.260   0.967   7.601 -0.3587 -0.1409 -0.6775
   55CHL1   C14 4012   2.347   1.120   7.722  0.5427  0.7381  0.9917
   55CHL1   H14 4013   2.412   1.207   7.697  1.2664 -0.4683 -1.6881
   55CHL1   C15 4014   2.400   1.050   7.841  0.8458 -0.0664  0.3073
   55CHL1  H15A 4015   2.351   0.951   7.856 -0.1221  0.7934  3.6938
   55CHL1  H15B 4016   2.507   1.021   7.838  0.6515 -0.6853 -1.1532
   55CHL1   C16 4017   2.364   1.143   7.963  0.0744  0.2061  0.1233
   55CHL1  H16A 4018   2.305   1.083   8.035  2.0870 -0.3641  1.3891
   55CHL1  H16B 4019   2.455   1.176   8.019 -0.3561  2.4798 -0.4032
   55CHL1   C17 4020   2.277   1.251   7.897  0.6665 -0.1253  0.0331
   55CHL1   H17 4021   2.335   1.343   7.875  1.2741 -0.3093  0.8350
   55CHL1   C13 4022   2.223   1.191   7.758  0.7511  0.1740 -0.2596
   55CHL1   C18 4023   2.104   1.091   7.776  0.4118 -0.1532 -0.0826
   55CHL1  H18A 4024   2.009   1.142   7.803 -0.2850 -1.7509  0.6106
   55CHL1  H18B 4025   2.082   1.027   7.688 -1.4625 -1.1922  1.0674
   55CHL1  H18C 4026   2.129   1.016   7.855 -0.4369 -1.0563 -0.6493
   55CHL1   C12 4027   2.196   1.295   7.642 -0.5202 -0.5045  0.6269
   55CHL1  H12A 4028   2.109   1.360   7.664  0.8810  1.2846  1.1914
   55CHL1  H12B 4029   2.281   1.362   7.617 -1.6141  0.0661 -1.8913
   55CHL1   C11 4030   2.172   1.226   7.505 -0.7823 -0.2648 -0.3263
   55CHL1  H11A 4031   2.082   1.163   7.519  0.0133 -1.4747 -0.4738
   55CHL1  H11B 4032   2.165   1.299   7.421  0.9208  0.3058 -0.0242
   55CHL1    C9 4033   2.300   1.134   7.468 -0.4974 -0.6432 -0.0091
   55CHL1    H9 4034   2.380   1.209   7.455  0.3435 -1.3983  0.6478
   55CHL1   C10 4035   2.285   1.056   7.339 -0.1374 -0.1992 -0.1522
   55CHL1   C19 4036   2.152   0.971   7.331 -0.0577 -0.0426 -0.0292
   55CHL1  H19A 4037   2.153   0.907   7.422 -2.1049  0.1381  0.1691
   55CHL1  H19B 4038   2.057   1.029   7.332  0.2421  0.4571  0.7083
   55CHL1  H19C 4039   2.143   0.899   7.247 -2.3555  0.6231 -0.4289
   55CHL1    C1 4040   2.280   1.165   7.225 -0.3252  0.2586  0.0501
   55CHL1   H1A 4041   2.192   1.233   7.226 -1.4788 -1.1339  2.3668
   55CHL1   H1B 4042   2.369   1.231   7.228 -0.9489  1.1977 -1.2894
   55CHL1    C2 4043   2.303   1.096   7.090  0.1012  0.6277  0.4818
   55CHL1   H2A 4044   2.308   1.180   7.017 -0.9074  0.6890  0.4762
   55CHL1   H2B 4045   2.210   1.042   7.062 -0.2779  0.6110  1.7227
   55CHL1   C20 4046   2.162   1.295   7.993 -0.2805  0.5668  0.1310
   55CHL1   H20 4047   2.081   1.220   7.981  1.6938 -2.0251  2.0088
   55CHL1   C21 4048   2.107   1.433   7.941 -0.3783 -0.2587 -0.2709
   55CHL1  H21A 4049   2.066   1.408   7.840  1.9864 -0.7773 -1.1811
   55CHL1  H21B 4050   2.195   1.500   7.943 -0.3012 -0.3712  1.2460
   55CHL1  H21C 4051   2.026   1.474   8.005 -0.1777  0.6535 -0.5989
   55CHL1   C22 4052   2.174   1.304   8.152  0.2274  0.1960 -0.0606
   55CHL1  H22A 4053   2.213   1.204   8.179  3.1087  1.4227  0.7429
   55CHL1  H22B 4054   2.254   1.377   8.175  0.6436  0.3002 -1.7123
   55CHL1   C23 4055   2.041   1.321   8.226 -0.6607 -0.2429  0.0515
   55CHL1  H23A 4056   2.071   1.338   8.332 -0.7801 -0.0935  0.0614
   55CHL1  H23B 4057   1.978   1.408   8.200 -0.5879 -0.2559 -0.1717
   55CHL1   C24 4058   1.954   1.197   8.231 -0.6678  0.0682  0.2039
   55CHL1  H24A 4059   1.900   1.187   8.135 -0.1520 -1.6461  0.0632
   55CHL1  H24B 4060   2.030   1.117   8.245 -1.0189 -0.4224 -0.6281
   55CHL1   C25 4061   1.845   1.201   8.336  0.0734  0.3251 -0.1484
   55CHL1   H25 4062   1.889   1.227   8.434  0.3980  2.2947 -0.7710
   55CHL1   C26 4063   1.738   1.288   8.284 -0.3102  0.0363 -0.1673
   55CHL1  H26A 4064   1.650   1.282   8.352  0.0104 -0.7460  0.1908
   55CHL1  H26B 4065   1.770   1.394   8.291  1.7737 -0.6217  1.1963
   55CHL1  H26C 4066   1.711   1.261   8.180  2.5762  1.5336 -1.4054
   55CHL1   C27 4067   1.784   1.059   8.346  0.5398  0.4325  0.5078
   55CHL1  H27A 4068   1.680   1.061   8.384 -0.5020 -0.2428 -2.1375
   55CHL1  H27B 4069   1.791   1.006   8.249 -1.4189  2.2246 -0.6926
   55CHL1  H27C 4070   1.845   1.014   8.427 -0.4050  0.1917  1.0997
   56CHL1    C3 4071   1.352   4.735   6.864 -0.2839  0.4625 -0.7615
   56CHL1    H3 4072   1.283   4.649   6.877 -0.2553  0.6165  0.6447
   56CHL1    O3 4073   1.359   4.792   6.733 -0.0385  1.0927  0.4391
   56CHL1   H3' 4074   1.410   4.873   6.734  1.7614  0.0874 -1.3825
   56CHL1    C4 4075   1.299   4.835   6.968  0.7420 -0.2794  0.3083
   56CHL1   H4A 4076   1.356   4.930   6.957  0.2885  0.1191  1.2462
   56CHL1   H4B 4077   1.194   4.867   6.949  0.7008 -0.4442  0.2568
   56CHL1    C5 4078   1.322   4.794   7.110 -0.3437  0.1001 -0.9174
   56CHL1    C6 4079   1.227   4.778   7.203  0.3561 -0.2164  0.2232
   56CHL1    H6 4080   1.124   4.800   7.170  1.1747  1.5080 -1.2792
   56CHL1    C7 4081   1.245   4.739   7.351 -0.3691  0.1531 -0.3460
   56CHL1   H7A 4082   1.191   4.809   7.418  1.0609  2.0283 -1.0608
   56CHL1   H7B 4083   1.210   4.635   7.367 -0.6554  0.4213  0.8711
   56CHL1    C8 4084   1.392   4.754   7.392  0.2544 -0.2427  0.8097
   56CHL1    H8 4085   1.416   4.862   7.405  1.2177 -0.6245  2.7260
   56CHL1   C14 4086   1.406   4.698   7.538  0.0563  0.3928  0.0985
   56CHL1   H14 4087   1.383   4.590   7.527  0.4719  0.3756 -0.6663
   56CHL1   C15 4088   1.325   4.749   7.653  0.3453  0.0884  0.3887
   56CHL1  H15A 4089   1.347   4.858   7.655  0.5192  0.1509 -1.9424
   56CHL1  H15B 4090   1.217   4.725   7.645 -0.0474  0.0847  4.0231
   56CHL1   C16 4091   1.389   4.681   7.775  0.2962 -0.0567  0.0050
   56CHL1  H16A 4092   1.392   4.761   7.852  0.0050 -1.0105  1.0281
   56CHL1  H16B 4093   1.325   4.594   7.802  1.0190 -0.6027 -0.0023
   56CHL1   C17 4094   1.534   4.640   7.728  0.4320  0.3792  0.3883
   56CHL1   H17 4095   1.531   4.530   7.711 -1.1216  0.9941 -5.3865
   56CHL1   C13 4096   1.550   4.694   7.585  0.0860 -0.1252 -0.5779
   56CHL1   C18 4097   1.605   4.841   7.600  0.1053  0.5954 -0.0722
   56CHL1  H18A 4098   1.713   4.850   7.624  0.0359  1.3515 -0.0243
   56CHL1  H18B 4099   1.588   4.889   7.502 -0.5091  0.1836 -0.1733
   56CHL1  H18C 4100   1.542   4.895   7.674 -1.1325 -1.0350  0.1196
   56CHL1   C12 4101   1.635   4.614   7.490  0.3362 -0.1038  0.2444
   56CHL1  H12A 4102   1.738   4.623   7.529  0.4522  0.5056 -0.1799
   56CHL1  H12B 4103   1.598   4.509   7.483  0.2119  0.0527 -2.6742
   56CHL1   C11 4104   1.631   4.665   7.349 -0.2306 -0.3719  0.3679
   56CHL1  H11A 4105   1.678   4.765   7.362  0.7886 -1.0249  2.0169
   56CHL1  H11B 4106   1.707   4.614   7.286 -0.0719 -2.4617  2.1366
   56CHL1    C9 4107   1.485   4.686   7.287 -0.0304  0.1534  0.4024
   56CHL1    H9 4108   1.440   4.586   7.270 -1.0046  0.3751  1.5314
   56CHL1   C10 4109   1.465   4.754   7.148  0.2859 -0.3227 -0.3274
   56CHL1   C19 4110   1.535   4.890   7.164 -0.6111  0.4409 -0.0525
   56CHL1  H19A 4111   1.637   4.878   7.204  0.0441  1.6732 -1.2496
   56CHL1  H19B 4112   1.548   4.925   7.059 -0.9794 -0.7529 -0.5181
   56CHL1  H19C 4113   1.475   4.953   7.233 -0.1293  1.0004 -0.1337
   56CHL1    C1 4114   1.524   4.654   7.039 -0.1267 -0.0989 -0.3944
   56CHL1   H1A 4115   1.633   4.634   7.050 -0.3973 -2.6093 -1.5048
   56CHL1   H1B 4116   1.480   4.554   7.062  1.0075 -0.1151  2.0676
   56CHL1    C2 4117   1.499   4.689   6.889 -0.9393  0.1163 -0.4416
   56CHL1   H2A 4118   1.530   4.598   6.833 -0.2568 -1.1312  1.8268
   56CHL1   H2B 4119   1.561   4.777   6.863 -0.2040 -0.3057 -0.1370
   56CHL1   C20 4120   1.639   4.673   7.843  0.7923  0.2180 -0.4305
   56CHL1   H20 4121   1.660   4.782   7.847  0.1119  0.3302  0.4870
   56CHL1   C21 4122   1.773   4.604   7.802  0.6443  0.3477  0.5011
   56CHL1  H21A 4123   1.811   4.666   7.718  0.7431 -0.7372 -0.2760
   56CHL1  H21B 4124   1.752   4.500   7.769  0.6868 -0.2390  2.2111
   56CHL1  H21C 4125   1.854   4.606   7.878  2.1722  1.4415 -1.0856
   56CHL1   C22 4126   1.584   4.615   7.982 -0.0912 -0.4367  0.2196
   56CHL1  H22A 4127   1.496   4.677   8.009 -0.2312 -0.7668  0.5414
   56CHL1  H22B 4128   1.549   4.510   7.971  0.6520 -0.5085 -1.6994
   56CHL1   C23 4129   1.685   4.613   8.095 -0.0407 -0.2327  0.5821
   56CHL1  H23A 4130   1.734   4.514   8.094  0.4830  0.0179  0.8449
   56CHL1  H23B 4131   1.766   4.684   8.065 -0.3063  0.1029  0.6572
   56CHL1   C24 4132   1.628   4.648   8.230 -0.1472  0.5139 -0.6360
   56CHL1  H24A 4133   1.560   4.736   8.230  0.0460  0.6653 -0.8876
   56CHL1  H24B 4134   1.561   4.560   8.246 -0.6590  1.2030  1.1969
   56CHL1   C25 4135   1.735   4.639   8.343  0.0448 -0.4437  0.5727
   56CHL1   H25 4136   1.796   4.548   8.327  0.0492 -0.1597 -1.1875
   56CHL1   C26 4137   1.843   4.751   8.328 -0.3678  1.4838  0.0706
   56CHL1  H26A 4138   1.916   4.749   8.411  3.0256 -1.6131 -2.6129
   56CHL1  H26B 4139   1.795   4.848   8.303 -1.7836  0.6995 -0.3795
   56CHL1  H26C 4140   1.900   4.722   8.237 -0.0621 -1.4707  1.1085
   56CHL1   C27 4141   1.666   4.628   8.479 -0.2452  0.2515  0.3753
   56CHL1  H27A 4142   1.620   4.726   8.502 -1.7668 -0.1155 -0.9198
   56CHL1  H27B 4143   1.579   4.559   8.472 -0.2559  0.3507 -0.5071
   56CHL1  H27C 4144   1.745   4.605   8.553  0.3023 -1.0934 -0.5792
   57SAPC     N 4145   1.921   1.628  11.035  0.2161  0.7714 -0.2917
   57SAPC   C12 4146   1.905   1.698  10.905 -0.8649  0.3137 -0.0835
   57SAPC  H12A 4147   1.894   1.619  10.832  1.8221  0.2584 -0.5208
   57SAPC  H12B 4148   2.004   1.740  10.893 -0.4597 -0.2271  1.2675
   57SAPC   C13 4149   2.001   1.712  11.132 -0.9801  0.5395  0.3355
   57SAPC  H13A 4150   1.943   1.802  11.150  0.8905  1.1186  4.6666
   57SAPC  H13B 4151   2.006   1.664  11.229  4.8048 -0.1133  0.0284
   57SAPC  H13C 4152   2.102   1.737  11.103 -1.3973  0.6773 -1.0699
   57SAPC   C14 4153   1.786   1.591  11.090 -0.7653  0.1230  0.3955
   57SAPC  H14A 4154   1.729   1.679  11.063 -1.8356 -0.1580  1.6589
   57SAPC  H14B 4155   1.761   1.502  11.035  1.6491 -0.0726 -0.5178
   57SAPC  H14C 4156   1.796   1.576  11.196  0.1981  0.7870  0.4131
   57SAPC   C15 4157   2.002   1.508  11.002  0.6087  0.0194 -0.0984
   57SAPC  H15A 4158   2.023   1.441  11.083 -0.3858  1.4604  1.4171
   57SAPC  H15B 4159   1.964   1.451  10.919  2.7524  0.3300 -1.3670
   57SAPC  H15C 4160   2.099   1.541  10.968  1.2764 -2.0767 -0.3369
   57SAPC   C11 4161   1.808   1.820  10.881  0.4609  0.3555  0.1432
   57SAPC  H11A 4162   1.829   1.853  10.776 -0.8829 -2.0831 -0.9790
   57SAPC  H11B 4163   1.830   1.904  10.950  0.1931 -0.7844  1.6624
   57SAPC     P 4164   1.589   1.738  10.761  0.0368  0.1384 -0.1482
   57SAPC   O13 4165   1.675   1.639  10.690 -0.3316  0.7534  0.0960
   57SAPC   O14 4166   1.451   1.696  10.801 -0.7589  0.4120  0.0797
   57SAPC   O12 4167   1.672   1.790  10.889  0.0057  1.2572  0.8678
   57SAPC   O11 4168   1.580   1.861  10.666  0.0421 -1.1636  0.1887
   57SAPC    C1 4169   1.550   1.993  10.711 -0.0702 -0.0334 -0.6199
   57SAPC    HA 4170   1.442   2.006  10.729 -0.1710  1.1933 -1.8459
   57SAPC    HB 4171   1.601   2.017  10.807 -0.7381  0.9706 -0.5001
   57SAPC    C2 4172   1.596   2.093  10.599 -0.3110  0.2819 -0.2258
   57SAPC    HS 4173   1.572   2.192  10.641 -0.4320 -0.4086  1.3941
   57SAPC   O21 4174   1.545   2.050  10.474  0.2824 -0.4818  0.3368
   57SAPC   C21 4175   1.416   2.089  10.455  0.5250 -0.6136 -0.3131
   57SAPC   O22 4176   1.356   2.163  10.531 -0.1274 -0.0524  0.0102
   57SAPC   C22 4177   1.353   2.034  10.323 -0.3966 -0.8302  0.2176
   57SAPC   H2R 4178   1.290   2.109  10.270 -1.8151 -1.3699  1.0780
   57SAPC   H2S 4179   1.436   2.013  10.252 -0.7083  1.1750 -0.8289
   57SAPC    C3 4180   1.758   2.094  10.588  0.0503  0.2935 -0.5492
   57SAPC    HX 4181   1.768   1.985  10.572 -0.5091  0.1988 -0.2926
   57SAPC    HY 4182   1.789   2.117  10.692  1.4322 -1.0579 -0.6283
   57SAPC   O31 4183   1.821   2.181  10.490 -0.2484  0.4276 -0.1913
   57SAPC   C31 4184   1.946   2.148  10.471 -0.2413  1.0862 -0.1779
   57SAPC   O32 4185   1.999   2.058  10.537 -0.0168 -0.9459 -0.1569
   57SAPC   C32 4186   2.007   2.227  10.352 -0.0189  0.3511  1.4277
   57SAPC   H2X 4187   1.997   2.338  10.355  1.4116  0.5657 -0.0624
   57SAPC   H2Y 4188   1.961   2.191  10.257  0.1093 -0.6171  1.7313
   57SAPC   C23 4189   1.275   1.905  10.336  0.0996 -0.2267  0.5074
   57SAPC   H3R 4190   1.184   1.924  10.398 -1.5329 -0.2821 -1.7522
   57SAPC   H3S 4191   1.336   1.827  10.385  0.5371  0.0523  0.4113
   57SAPC   C24 4192   1.233   1.850  10.201 -0.3161  0.2666  0.1689
   57SAPC   H4R 4193   1.173   1.758  10.217 -0.4369  0.1509 -0.9060
   57SAPC   H4S 4194   1.328   1.815  10.155 -1.5781 -0.6723 -1.8451
   57SAPC   C25 4195   1.166   1.959  10.110 -0.4809 -0.2380 -0.3023
   57SAPC   H5R 4196   1.067   1.991  10.146  0.1349 -0.4682  1.6639
   57SAPC   C26 4197   1.210   2.024   9.994 -0.0723  0.2541  0.2073
   57SAPC   H6R 4198   1.128   2.089   9.960 -1.0683 -0.8407  0.4528
   57SAPC   C27 4199   1.347   2.013   9.934 -0.3316  0.5713 -0.0788
   57SAPC   H7R 4200   1.428   2.020  10.009 -0.6371  0.5654  0.2519
   57SAPC   H7S 4201   1.369   2.096   9.863 -0.8271  2.7249  2.1416
   57SAPC   C28 4202   1.355   1.881   9.854  0.2105 -0.1571 -0.5828
   57SAPC   H8R 4203   1.383   1.794   9.915 -1.8120 -0.6561 -0.2933
   57SAPC   C29 4204   1.329   1.863   9.720  0.4786 -0.1326  0.8390
   57SAPC   H9R 4205   1.336   1.760   9.683  0.7802 -0.1691  1.0007
   57SAPC  C210 4206   1.282   1.964   9.612  0.1209 -0.6067  0.1413
   57SAPC  H10R 4207   1.241   2.058   9.654  0.0308 -0.9648  0.8633
   57SAPC  H10S 4208   1.195   1.913   9.565  0.9203 -2.8622  0.9926
   57SAPC  C211 4209   1.384   2.000   9.505 -0.5290  0.0981 -0.5596
   57SAPC  H11R 4210   1.462   2.071   9.535  0.8403 -1.3736 -0.5527
   57SAPC  C212 4211   1.396   1.941   9.387  0.5117 -0.1168  0.4032
   57SAPC  H12R 4212   1.464   1.983   9.311 -1.8290  1.5954 -0.8846
   57SAPC  C213 4213   1.314   1.826   9.337  0.5397  0.7201 -0.0347
   57SAPC  H13R 4214   1.293   1.749   9.413  0.2188  0.3749 -0.4669
   57SAPC  H13S 4215   1.370   1.761   9.266  1.1029 -0.1600  1.1803
   57SAPC  C214 4216   1.179   1.875   9.271 -0.4268  1.0427  0.0715
   57SAPC  H14R 4217   1.099   1.871   9.346  0.2037 -2.2794  0.7474
   57SAPC  C215 4218   1.161   1.905   9.143  0.0665 -0.4499 -0.1425
   57SAPC  H15R 4219   1.062   1.940   9.110 -1.1463 -2.4014  1.1920
   57SAPC  C216 4220   1.275   1.891   9.038  0.2945 -0.9260 -0.5451
   57SAPC  H16R 4221   1.304   1.783   9.043  2.1142 -0.4212  1.7076
   57SAPC  H16S 4222   1.363   1.958   9.052 -0.1929 -0.1174 -1.3117
   57SAPC  C217 4223   1.214   1.927   8.907 -0.9301  0.2754 -0.6712
   57SAPC  H17R 4224   1.124   1.864   8.889  0.5422 -2.3365  0.4328
   57SAPC  H17S 4225   1.275   1.897   8.819 -1.7540  0.9342 -1.4722
   57SAPC  C218 4226   1.180   2.077   8.899 -0.3214 -0.1131  0.2367
   57SAPC  H18R 4227   1.262   2.132   8.950 -0.6708  1.5924 -0.9535
   57SAPC  H18S 4228   1.082   2.097   8.948 -1.7178 -0.2614 -2.3008
   57SAPC  C219 4229   1.171   2.129   8.757 -0.1073 -0.0933  0.4117
   57SAPC  H19R 4230   1.119   2.058   8.689 -0.0881  0.9926 -0.7785
   57SAPC  H19S 4231   1.267   2.139   8.701 -0.5991  1.2193 -0.2317
   57SAPC  C220 4232   1.113   2.269   8.751  0.2694 -1.1898 -0.2071
   57SAPC  H20R 4233   1.012   2.256   8.795  0.1017 -2.5265 -0.9300
   57SAPC  H20S 4234   1.100   2.312   8.649 -0.4417  0.3088  0.4826
   57SAPC  H20T 4235   1.172   2.341   8.812 -1.7232  0.3655  0.0038
   57SAPC   C33 4236   2.154   2.191  10.348 -0.9388 -0.1043 -0.1560
   57SAPC   H3X 4237   2.177   2.082  10.344  2.1893  0.4458  0.3021
   57SAPC   H3Y 4238   2.206   2.227  10.440 -1.4321  1.9302 -0.6271
   57SAPC   C34 4239   2.236   2.243  10.220  0.3797  0.5669 -0.6234
   57SAPC   H4X 4240   2.346   2.241  10.235  0.6502 -2.0058 -2.4320
   57SAPC   H4Y 4241   2.195   2.346  10.206  0.8592  1.3651  2.8145
   57SAPC   C35 4242   2.214   2.166  10.088  0.6774  0.4703  0.4242
   57SAPC   H5X 4243   2.105   2.158  10.068  0.4674  0.1163  1.6302
   57SAPC   H5Y 4244   2.242   2.058  10.089  1.3780  0.6441  0.0924
   57SAPC   C36 4245   2.286   2.243   9.973  0.4495  0.5463  0.4080
   57SAPC   H6X 4246   2.389   2.251  10.013  0.6617  0.4398 -0.1107
   57SAPC   H6Y 4247   2.240   2.342   9.956 -0.4173  0.2751  1.0712
   57SAPC   C37 4248   2.290   2.162   9.842  1.1900 -0.4536 -0.3008
   57SAPC   H7X 4249   2.190   2.121   9.817  1.0370  0.4049 -1.1910
   57SAPC   H7Y 4250   2.346   2.068   9.861 -0.5099 -1.4882 -0.1280
   57SAPC   C38 4251   2.335   2.249   9.729  0.4200  0.0623  0.1863
   57SAPC   H8X 4252   2.429   2.296   9.765 -0.2287  1.0694  0.6035
   57SAPC   H8Y 4253   2.261   2.332   9.719  0.9971  0.7235  1.2354
   57SAPC   C39 4254   2.348   2.168   9.600 -0.2225  0.7918  0.2706
   57SAPC   H9X 4255   2.249   2.125   9.575  0.6014 -1.4990  0.7151
   57SAPC   H9Y 4256   2.409   2.079   9.625 -0.4631  0.5060 -0.1483
   57SAPC  C310 4257   2.417   2.243   9.487  0.1193 -0.2743 -0.2643
   57SAPC  H10X 4258   2.523   2.246   9.523  0.3628  1.0278 -1.0067
   57SAPC  H10Y 4259   2.365   2.340   9.475 -0.5810 -0.6743 -0.4913
   57SAPC  C311 4260   2.412   2.176   9.348  0.7548  0.7709 -0.0401
   57SAPC  H11X 4261   2.356   2.080   9.348  0.2815  1.0208 -1.2823
   57SAPC  H11Y 4262   2.519   2.154   9.326  0.1043 -2.4191 -0.4945
   57SAPC  C312 4263   2.363   2.263   9.234 -0.2509  0.8241 -0.1389
   57SAPC  H12X 4264   2.408   2.364   9.244  0.4545  0.3885  1.3045
   57SAPC  H12Y 4265   2.254   2.283   9.232 -1.1229 -2.4192  3.5339
   57SAPC  C313 4266   2.394   2.201   9.096 -0.1192 -0.0060 -0.1416
   57SAPC  H13X 4267   2.363   2.094   9.094  0.3896 -0.1856  1.0365
   57SAPC  H13Y 4268   2.501   2.196   9.065 -0.3678 -0.9656 -0.9105
   57SAPC  C314 4269   2.347   2.296   8.982 -0.5955  0.3689 -0.5402
   57SAPC  H14X 4270   2.415   2.384   8.993  0.3983 -0.6232  2.1037
   57SAPC  H14Y 4271   2.240   2.323   8.993 -0.4643  0.4969  0.5470
   57SAPC  C315 4272   2.355   2.234   8.840  0.3252 -0.4629  0.2204
   57SAPC  H15X 4273   2.458   2.206   8.812  0.4129 -0.8557  0.8941
   57SAPC  H15Y 4274   2.316   2.318   8.778  0.8227 -0.6171 -0.2945
   57SAPC  C316 4275   2.271   2.109   8.815 -0.5075  0.4912  0.2048
   57SAPC  H16X 4276   2.164   2.131   8.836  0.2224  2.1165  2.7121
   57SAPC  H16Y 4277   2.317   2.034   8.883  0.4657  0.7614 -0.1364
   57SAPC  C317 4278   2.290   2.062   8.674 -0.6103 -0.2261  0.1376
   57SAPC  H17X 4279   2.241   1.962   8.671 -0.8338 -0.1565 -3.5398
   57SAPC  H17Y 4280   2.399   2.049   8.662 -0.3299  0.5619  1.5484
   57SAPC  C318 4281   2.236   2.131   8.554 -0.7820  0.4503  0.5202
   57SAPC  H18X 4282   2.130   2.099   8.550 -0.3438 -1.0168  0.0124
   57SAPC  H18Y 4283   2.284   2.098   8.460 -0.7684  2.7909 -0.3523
   57SAPC  H18Z 4284   2.244   2.242   8.559  0.1242  0.3737  1.0305
   58SAPC     N 4285   4.788   6.418  11.165  0.8449 -0.2296  0.0684
   58SAPC   C12 4286   4.781   6.558  11.120 -0.8201 -0.2502  0.6145
   58SAPC  H12A 4287   4.881   6.595  11.137 -0.8332 -0.2723  0.7417
   58SAPC  H12B 4288   4.725   6.626  11.182  1.5211  0.4055  2.1782
   58SAPC   C13 4289   4.665   6.339  11.144  0.3820 -0.7093 -0.0294
   58SAPC  H13A 4290   4.658   6.252  11.208  3.3400 -2.2507 -1.5769
   58SAPC  H13B 4291   4.578   6.395  11.172  0.8880 -0.3212  0.7952
   58SAPC  H13C 4292   4.657   6.319  11.038  0.4465 -0.1241 -0.1471
   58SAPC   C14 4293   4.894   6.338  11.091 -0.1745 -0.6554 -1.1324
   58SAPC  H14A 4294   4.901   6.237  11.127 -1.3028 -0.4255 -0.1889
   58SAPC  H14B 4295   4.885   6.340  10.984  1.3098 -0.0730 -1.2658
   58SAPC  H14C 4296   4.988   6.387  11.113 -0.1853  0.4069 -3.1951
   58SAPC   C15 4297   4.824   6.415  11.312 -0.1452  0.4710  0.8157
   58SAPC  H15A 4298   4.751   6.472  11.367  0.6652  3.2322 -0.7977
   58SAPC  H15B 4299   4.831   6.310  11.338  2.0589  0.2798 -0.3211
   58SAPC  H15C 4300   4.922   6.457  11.323  0.1074  0.3473 -0.6544
   58SAPC   C11 4301   4.749   6.586  10.966  0.2597 -0.2449 -0.1906
   58SAPC  H11A 4302   4.711   6.689  10.951  0.0083 -0.0614  1.4441
   58SAPC  H11B 4303   4.659   6.523  10.945  1.1549 -1.1700 -1.3799
   58SAPC     P 4304   4.975   6.629  10.832  0.5119 -0.2244 -0.4061
   58SAPC   O13 4305   5.043   6.685  10.952  0.6667 -0.3085 -0.1670
   58SAPC   O14 4306   5.052   6.549  10.734 -0.2775  0.0386 -0.0427
   58SAPC   O12 4307   4.854   6.539  10.874  0.1593 -0.4246 -0.5567
   58SAPC   O11 4308   4.902   6.750  10.760  0.0446  0.2813  0.1186
   58SAPC    C1 4309   4.818   6.744  10.649 -0.4252  0.1973 -0.3900
   58SAPC    HA 4310   4.790   6.640  10.622  0.6072 -0.3027  0.4109
   58SAPC    HB 4311   4.720   6.790  10.673 -1.2331 -1.4212 -0.4436
   58SAPC    C2 4312   4.874   6.811  10.522  0.2430  0.5558  0.2122
   58SAPC    HS 4313   4.959   6.747  10.492 -1.3502 -0.4244 -2.6266
   58SAPC   O21 4314   4.899   6.947  10.562 -0.2472 -0.2364 -0.2118
   58SAPC   C21 4315   4.988   7.010  10.484 -0.0941 -0.2234  0.3412
   58SAPC   O22 4316   5.063   6.957  10.406  0.0489  0.2306 -0.0563
   58SAPC   C22 4317   4.965   7.157  10.504  0.4612  0.0780  0.0010
   58SAPC   H2R 4318   4.863   7.196  10.485 -0.5256 -2.0091  0.8121
   58SAPC   H2S 4319   4.997   7.168  10.610 -1.2018  0.4156  0.4869
   58SAPC    C3 4320   4.774   6.799  10.402  0.3197  0.1856 -0.5990
   58SAPC    HX 4321   4.677   6.840  10.437 -0.5779 -2.5569  0.4213
   58SAPC    HY 4322   4.741   6.696  10.375 -0.2981 -1.0378  4.0838
   58SAPC   O31 4323   4.824   6.862  10.282  0.1465  0.2995 -0.0665
   58SAPC   C31 4324   4.898   6.786  10.207 -0.0545  0.1655 -0.0912
   58SAPC   O32 4325   4.940   6.674  10.238 -0.0560  0.3005 -0.5327
   58SAPC   C32 4326   4.930   6.857  10.080 -0.7394  0.1807  0.3395
   58SAPC   H2X 4327   5.017   6.923  10.094  1.2942 -2.0457 -1.0282
   58SAPC   H2Y 4328   4.841   6.915  10.047 -0.6579  1.6287  2.4837
   58SAPC   C23 4329   5.053   7.258  10.432 -0.0243 -0.0674 -0.2185
   58SAPC   H3R 4330   5.160   7.232  10.440 -0.1929 -0.9710 -0.7301
   58SAPC   H3S 4331   5.033   7.355  10.482 -2.2431 -0.7004  0.2559
   58SAPC   C24 4332   5.005   7.276  10.291  0.4388 -0.7676 -0.5907
   58SAPC   H4R 4333   5.018   7.381  10.260  1.2322 -0.2266  1.3894
   58SAPC   H4S 4334   4.898   7.255  10.270 -0.0768  0.7525  0.3363
   58SAPC   C25 4335   5.088   7.194  10.195 -0.0773 -0.2979  0.2496
   58SAPC   H5R 4336   5.146   7.109  10.233  1.9195  0.9486  0.1244
   58SAPC   C26 4337   5.090   7.210  10.057 -0.8902 -0.3395 -0.7284
   58SAPC   H6R 4338   5.158   7.140  10.006  0.1023  1.1718 -1.5410
   58SAPC   C27 4339   5.015   7.322   9.980 -0.0637 -0.0270 -0.9311
   58SAPC   H7R 4340   4.988   7.409  10.044 -0.5225 -1.2262  0.5740
   58SAPC   H7S 4341   4.915   7.281   9.955 -0.0156 -1.6175  1.1550
   58SAPC   C28 4342   5.082   7.395   9.870 -0.4423 -1.0892  0.2568
   58SAPC   H8R 4343   5.158   7.469   9.901  0.2463 -0.9589 -1.6202
   58SAPC   C29 4344   5.073   7.385   9.736 -0.2635 -0.4395 -0.5932
   58SAPC   H9R 4345   5.131   7.451   9.670  0.3061 -1.1046 -0.7587
   58SAPC  C210 4346   4.985   7.286   9.664 -0.7328  0.2713 -0.1447
   58SAPC  H10R 4347   4.912   7.345   9.605 -3.3929 -1.6799  1.0026
   58SAPC  H10S 4348   4.917   7.230   9.731  1.1663 -0.3067  1.3930
   58SAPC  C211 4349   5.061   7.187   9.583  0.5864 -0.4606  0.2351
   58SAPC  H11R 4350   5.135   7.127   9.638  0.3833 -1.3538 -0.4296
   58SAPC  C212 4351   5.043   7.170   9.453 -0.4386  0.4245 -0.0750
   58SAPC  H12R 4352   5.101   7.088   9.409  0.5915  0.4965  1.1022
   58SAPC  C213 4353   4.945   7.247   9.357 -0.9335 -0.0295 -0.2680
   58SAPC  H13R 4354   4.979   7.352   9.366  3.9279 -1.2816 -1.2526
   58SAPC  H13S 4355   4.837   7.242   9.384 -0.9079 -1.2211 -0.3037
   58SAPC  C214 4356   4.973   7.203   9.213  0.3205  0.0658 -0.3828
   58SAPC  H14R 4357   5.049   7.125   9.195  0.5308  0.3700 -0.8373
   58SAPC  C215 4358   4.908   7.243   9.107  0.8181 -0.2624  0.5477
   58SAPC  H15R 4359   4.931   7.201   9.009  0.0666  1.3469 -0.3566
   58SAPC  C216 4360   4.793   7.346   9.111 -0.0110 -0.6002 -0.3397
   58SAPC  H16R 4361   4.827   7.445   9.074 -0.6295  0.7796  2.5569
   58SAPC  H16S 4362   4.752   7.365   9.212 -2.1406  0.9558 -1.4105
   58SAPC  C217 4363   4.676   7.299   9.028  0.5365 -0.0395 -0.1082
   58SAPC  H17R 4364   4.586   7.362   9.043 -0.8504 -1.0902 -3.1568
   58SAPC  H17S 4365   4.642   7.194   9.041  0.1334  0.0382 -0.4873
   58SAPC  C218 4366   4.703   7.318   8.881  0.0375 -0.2630  0.0013
   58SAPC  H18R 4367   4.762   7.228   8.853  0.8143  0.6898 -1.6052
   58SAPC  H18S 4368   4.762   7.412   8.871  0.3809 -0.5580 -0.7898
   58SAPC  C219 4369   4.571   7.336   8.805  0.1956  0.0035 -0.2691
   58SAPC  H19R 4370   4.599   7.357   8.699  0.5514 -2.1043 -0.6224
   58SAPC  H19S 4371   4.515   7.425   8.842 -1.4933 -0.6789 -1.0946
   58SAPC  C220 4372   4.475   7.209   8.817  0.0476  0.0405  0.0998
   58SAPC  H20R 4373   4.524   7.118   8.777  2.2142 -0.0388  2.6435
   58SAPC  H20S 4374   4.382   7.228   8.759  1.6371  0.5523 -2.4179
   58SAPC  H20T 4375   4.453   7.199   8.925 -1.0914  2.7324  0.1984
   58SAPC   C33 4376   4.975   6.757   9.970  0.4600 -0.7671 -0.5734
   58SAPC   H3X 4377   4.906   6.669   9.971 -0.8355  0.2123 -0.3758
   58SAPC   H3Y 4378   5.073   6.709   9.987  0.4355 -1.7119 -2.8109
   58SAPC   C34 4379   4.987   6.825   9.834  0.3169 -0.9769  0.1170
   58SAPC   H4X 4380   5.059   6.909   9.845 -0.1474 -0.8216  2.4622
   58SAPC   H4Y 4381   4.889   6.869   9.804  1.1168  1.5402  0.9662
   58SAPC   C35 4382   5.033   6.721   9.730  0.1211  0.0898  0.0932
   58SAPC   H5X 4383   4.958   6.638   9.731  0.7915 -0.5240  0.3811
   58SAPC   H5Y 4384   5.130   6.677   9.760 -0.5608 -1.2597  0.4182
   58SAPC   C36 4385   5.049   6.787   9.594  0.6072 -0.1115  0.3919
   58SAPC   H6X 4386   5.125   6.867   9.608  0.7953  0.0294 -1.2507
   58SAPC   H6Y 4387   4.950   6.828   9.565  0.9014 -0.5047 -1.2400
   58SAPC   C37 4388   5.093   6.690   9.483  0.7225  0.3128  0.3846
   58SAPC   H7X 4389   4.997   6.643   9.452  0.1637  0.0020  2.4202
   58SAPC   H7Y 4390   5.157   6.609   9.524  2.2290  0.9842 -0.5792
   58SAPC   C38 4391   5.182   6.754   9.376  0.1514 -0.1956  0.5651
   58SAPC   H8X 4392   5.240   6.677   9.322  0.4629 -0.1679  0.8609
   58SAPC   H8Y 4393   5.261   6.810   9.431  1.5826 -1.9435  0.3709
   58SAPC   C39 4394   5.098   6.825   9.275  0.1486 -0.0906  0.8542
   58SAPC   H9X 4395   5.038   6.910   9.314 -0.9177 -0.3082 -0.2401
   58SAPC   H9Y 4396   5.026   6.752   9.231 -0.4935  0.4143  1.0487
   58SAPC  C310 4397   5.168   6.873   9.148  0.2866 -0.6015  0.5030
   58SAPC  H10X 4398   5.240   6.791   9.130  1.7927  1.2808 -3.0894
   58SAPC  H10Y 4399   5.232   6.957   9.182 -1.3529  1.4233 -1.1081
   58SAPC  C311 4400   5.070   6.897   9.033  0.3382  0.2659 -0.5979
   58SAPC  H11X 4401   4.990   6.964   9.073 -0.5501 -1.3276  0.3875
   58SAPC  H11Y 4402   5.012   6.805   9.014 -0.2124 -0.4026  3.3851
   58SAPC  C312 4403   5.125   6.951   8.905 -0.1797 -0.4244  0.2456
   58SAPC  H12X 4404   5.188   7.039   8.931 -1.4498  0.4237  0.5540
   58SAPC  H12Y 4405   5.047   6.991   8.837 -0.1651 -1.1902 -0.2354
   58SAPC  C313 4406   5.216   6.845   8.832  0.4389  0.3691 -0.3738
   58SAPC  H13X 4407   5.152   6.772   8.778  0.3882  0.9643 -1.1315
   58SAPC  H13Y 4408   5.270   6.788   8.911 -0.4891 -1.1334 -0.7991
   58SAPC  C314 4409   5.321   6.914   8.748  1.5468  0.2671 -1.0006
   58SAPC  H14X 4410   5.383   6.975   8.818  1.6643  1.6269 -2.2276
   58SAPC  H14Y 4411   5.270   6.987   8.682  0.5758  0.8838  0.3692
   58SAPC  C315 4412   5.391   6.825   8.657 -0.7341 -1.4657  0.7477
   58SAPC  H15X 4413   5.322   6.799   8.573 -1.8984  0.1896  1.1531
   58SAPC  H15Y 4414   5.412   6.724   8.698 -0.7635 -0.8335  2.3893
   58SAPC  C316 4415   5.539   6.874   8.614  0.1669 -0.2380 -0.4262
   58SAPC  H16X 4416   5.591   6.889   8.711 -1.2594  2.4008  0.0224
   58SAPC  H16Y 4417   5.529   6.975   8.568  2.1667  1.3115  2.3059
   58SAPC  C317 4418   5.609   6.774   8.520 -0.7974  0.2276  0.3203
   58SAPC  H17X 4419   5.542   6.751   8.434  0.3660 -3.9387  0.2995
   58SAPC  H17Y 4420   5.614   6.683   8.583 -0.8289  0.8877  1.3039
   58SAPC  C318 4421   5.750   6.821   8.488  0.0747  0.0425  0.4722
   58SAPC  H18X 4422   5.810   6.752   8.425  1.4599  0.0982  1.6632
   58SAPC  H18Y 4423   5.808   6.824   8.583  0.2778 -1.8030  0.4436
   58SAPC  H18Z 4424   5.758   6.921   8.441 -0.1581  1.7372  3.7051
   59SAPC     N 4425   5.725   1.187  11.292  0.0980  0.3595  1.0930
   59SAPC   C12 4426   5.669   1.262  11.169  1.1649  0.2675  0.4199
   59SAPC  H12A 4427   5.715   1.359  11.163  0.5599  0.5228 -0.2267
   59SAPC  H12B 4428   5.564   1.277  11.190  0.9433  1.8850 -1.5498
   59SAPC   C13 4429   5.651   1.059  11.321 -0.7943 -0.4886 -0.6252
   59SAPC  H13A 4430   5.649   0.993  11.236 -3.4892  1.1314 -1.9310
   59SAPC  H13B 4431   5.696   1.010  11.407  0.7708 -0.3122 -1.3029
   59SAPC  H13C 4432   5.549   1.081  11.348  0.0168  2.0887  0.6431
   59SAPC   C14 4433   5.870   1.156  11.275  0.4628 -0.5424  0.4889
   59SAPC  H14A 4434   5.913   1.239  11.220 -0.2929  0.0416  0.7429
   59SAPC  H14B 4435   5.925   1.140  11.366 -1.2721  2.0910  2.1427
   59SAPC  H14C 4436   5.875   1.072  11.208 -1.2113  1.8158 -2.9611
   59SAPC   C15 4437   5.718   1.283  11.406 -0.1672 -0.3134 -0.6723
   59SAPC  H15A 4438   5.783   1.368  11.398 -1.6852  0.8924 -0.5878
   59SAPC  H15B 4439   5.618   1.316  11.431 -0.1921  1.9934 -3.3520
   59SAPC  H15C 4440   5.747   1.228  11.495 -0.8488  0.8962  0.3310
   59SAPC   C11 4441   5.672   1.180  11.033 -0.2421  0.0092 -0.1064
   59SAPC  H11A 4442   5.771   1.132  11.013 -0.9662 -0.7591 -2.0489
   59SAPC  H11B 4443   5.673   1.257  10.954 -0.1564  1.0946  0.9236
   59SAPC     P 4444   5.410   1.128  11.000 -0.2312 -0.1944  0.4473
   59SAPC   O13 4445   5.329   1.036  11.078 -0.0281 -0.5904  0.4700
   59SAPC   O14 4446   5.407   1.266  11.042 -0.0774  0.3907  0.4100
   59SAPC   O12 4447   5.563   1.086  11.020 -0.4887  0.5218  0.0376
   59SAPC   O11 4448   5.393   1.105  10.846 -0.1980 -0.1140  0.8129
   59SAPC    C1 4449   5.392   0.986  10.781 -0.3238  0.1370  0.6190
   59SAPC    HA 4450   5.331   0.908  10.831 -2.2004 -0.2611 -2.0982
   59SAPC    HB 4451   5.349   1.011  10.682 -3.7279  1.5563  2.2757
   59SAPC    C2 4452   5.533   0.919  10.759  0.5011 -0.5329 -0.4003
   59SAPC    HS 4453   5.567   0.888  10.860 -0.7611 -2.0641 -0.3976
   59SAPC   O21 4454   5.623   1.008  10.693 -0.4480  0.0793  0.5203
   59SAPC   C21 4455   5.755   0.973  10.702 -0.2428 -1.5256  0.4209
   59SAPC   O22 4456   5.802   0.883  10.768 -0.1925  0.3403 -0.2020
   59SAPC   C22 4457   5.839   1.072  10.633  0.3821 -0.2489  0.3744
   59SAPC   H2R 4458   5.831   1.180  10.661  1.6961  0.0394 -0.3126
   59SAPC   H2S 4459   5.948   1.056  10.643  0.7374  2.4783  2.3708
   59SAPC    C3 4460   5.522   0.780  10.681 -0.5468 -0.1824  0.6383
   59SAPC    HX 4461   5.482   0.702  10.749  2.7071 -3.1229 -0.4773
   59SAPC    HY 4462   5.623   0.733  10.673 -0.8510 -0.7134 -0.2527
   59SAPC   O31 4463   5.465   0.791  10.547 -0.2123  0.4202  0.2667
   59SAPC   C31 4464   5.337   0.754  10.533 -0.1329 -0.3155 -0.5303
   59SAPC   O32 4465   5.276   0.701  10.625 -0.0684 -0.4471  0.1283
   59SAPC   C32 4466   5.298   0.750  10.383  0.5880 -0.3008 -0.0474
   59SAPC   H2X 4467   5.189   0.730  10.372 -0.0554  1.8899  1.5865
   59SAPC   H2Y 4468   5.345   0.661  10.336  1.2187 -0.1024  0.1917
   59SAPC   C23 4469   5.803   1.069  10.483  0.5492  1.0886 -0.1068
   59SAPC   H3R 4470   5.706   1.119  10.460  1.1607  1.7820 -1.2552
   59SAPC   H3S 4471   5.799   0.966  10.442 -0.1172  0.5987  1.1071
   59SAPC   C24 4472   5.900   1.146  10.399  0.2308  0.2237  0.7268
   59SAPC   H4R 4473   6.001   1.165  10.444  0.8969  0.0290 -0.6387
   59SAPC   H4S 4474   5.859   1.249  10.395  0.3190  0.2600  0.7583
   59SAPC   C25 4475   5.900   1.096  10.255 -0.0030  1.1067  0.0129
   59SAPC   H5R 4476   5.967   1.009  10.250 -0.9326  0.3454  0.4101
   59SAPC   C26 4477   5.853   1.146  10.134 -0.1416 -0.8629  0.1288
   59SAPC   H6R 4478   5.872   1.086  10.044  3.2545  0.9602 -0.5281
   59SAPC   C27 4479   5.771   1.273  10.113  0.7763  0.5365 -0.4568
   59SAPC   H7R 4480   5.830   1.344  10.051  0.2024 -0.5161 -2.3210
   59SAPC   H7S 4481   5.750   1.323  10.210 -1.4163 -2.0031  0.4964
   59SAPC   C28 4482   5.639   1.227  10.048 -0.8588 -0.6206 -0.0281
   59SAPC   H8R 4483   5.562   1.192  10.118 -2.2147  1.6703 -0.2851
   59SAPC   C29 4484   5.626   1.223   9.913  0.5525 -0.0809 -0.0636
   59SAPC   H9R 4485   5.543   1.162   9.874  1.4650 -3.2463  2.5277
   59SAPC  C210 4486   5.725   1.272   9.811 -0.0213 -0.0878 -0.3451
   59SAPC  H10R 4487   5.799   1.342   9.854  0.9993 -1.4668  0.2145
   59SAPC  H10S 4488   5.665   1.336   9.743  0.5701 -0.3156 -1.0967
   59SAPC  C211 4489   5.786   1.171   9.722 -0.7435 -0.3504  0.5579
   59SAPC  H11R 4490   5.845   1.101   9.784  1.6953  2.0505  1.1353
   59SAPC  C212 4491   5.786   1.151   9.586  0.6932 -0.4632  0.4263
   59SAPC  H12R 4492   5.833   1.067   9.535 -0.8347 -0.4899 -1.0239
   59SAPC  C213 4493   5.715   1.237   9.489  0.5816 -0.8760  1.0010
   59SAPC  H13R 4494   5.613   1.267   9.520  1.1332  0.9850  1.1385
   59SAPC  H13S 4495   5.692   1.177   9.398 -2.6982  0.5978  0.7287
   59SAPC  C214 4496   5.788   1.371   9.458  0.0128  0.4089 -0.6279
   59SAPC  H14R 4497   5.819   1.427   9.547 -0.5817 -0.2914  0.0308
   59SAPC  C215 4498   5.831   1.421   9.338  0.3172 -1.0617  0.2646
   59SAPC  H15R 4499   5.883   1.517   9.348 -0.8729 -0.4313  0.5835
   59SAPC  C216 4500   5.801   1.364   9.208 -0.7759 -0.2889 -0.4934
   59SAPC  H16R 4501   5.796   1.253   9.213  0.9546 -0.4478 -1.5152
   59SAPC  H16S 4502   5.891   1.384   9.145  0.3215  0.6892  1.2848
   59SAPC  C217 4503   5.676   1.432   9.145  0.3218 -0.3722 -0.1497
   59SAPC  H17R 4504   5.691   1.541   9.134 -1.4238  0.2042  2.4279
   59SAPC  H17S 4505   5.591   1.423   9.215 -0.2119 -2.2394 -0.9422
   59SAPC  C218 4506   5.634   1.361   9.017  0.4689  0.5985  0.3704
   59SAPC  H18R 4507   5.540   1.403   8.976 -0.4763 -2.1953 -0.5566
   59SAPC  H18S 4508   5.626   1.253   9.040  0.1805 -0.0957 -2.5991
   59SAPC  C219 4509   5.734   1.381   8.898  0.4578  0.0735 -0.2616
   59SAPC  H19R 4510   5.691   1.343   8.803  0.5432  1.5792 -0.9384
   59SAPC  H19S 4511   5.821   1.321   8.934 -1.5608 -2.3938  0.7794
   59SAPC  C220 4512   5.776   1.524   8.879 -0.3844  0.7563 -0.9082
   59SAPC  H20R 4513   5.825   1.542   8.781  2.3458 -1.2780 -0.0390
   59SAPC  H20S 4514   5.852   1.547   8.956 -0.8220  0.2247 -0.3084
   59SAPC  H20T 4515   5.687   1.589   8.893 -0.7577 -0.2165  1.6616
   59SAPC   C33 4516   5.360   0.868  10.300 -0.1134  0.2140 -0.4330
   59SAPC   H3X 4517   5.469   0.864  10.318 -0.5288  1.1390  3.0221
   59SAPC   H3Y 4518   5.314   0.963  10.338  0.8393  0.4670  0.1186
   59SAPC   C34 4519   5.338   0.851  10.151  0.4506 -0.5307  0.2157
   59SAPC   H4X 4520   5.231   0.834  10.127  0.3054  1.2744 -0.5883
   59SAPC   H4Y 4521   5.395   0.766  10.106  0.2620 -1.0490  0.9419
   59SAPC   C35 4522   5.380   0.972  10.068  0.0660  0.0478 -0.2173
   59SAPC   H5X 4523   5.490   0.982  10.069 -0.0113  1.1145 -1.1760
   59SAPC   H5Y 4524   5.337   1.070  10.096 -0.7118  0.6235 -3.1334
   59SAPC   C36 4525   5.344   0.966   9.916 -0.1729 -0.2094  0.4876
   59SAPC   H6X 4526   5.316   1.065   9.876  1.3627 -0.2071 -0.6813
   59SAPC   H6Y 4527   5.253   0.902   9.924  0.6834 -1.5944 -0.3483
   59SAPC   C37 4528   5.444   0.884   9.835 -0.2950 -0.3421 -0.1855
   59SAPC   H7X 4529   5.443   0.782   9.878 -1.2607 -0.8506 -1.3417
   59SAPC   H7Y 4530   5.546   0.926   9.840 -1.3545  2.4079  0.1926
   59SAPC   C38 4531   5.406   0.886   9.689 -0.5313  0.2060  0.3403
   59SAPC   H8X 4532   5.400   0.989   9.649  0.5666  0.2032  0.1339
   59SAPC   H8Y 4533   5.306   0.839   9.674 -0.5713 -0.0639  1.3173
   59SAPC   C39 4534   5.507   0.807   9.596  1.0359  0.8142 -0.2024
   59SAPC   H9X 4535   5.508   0.701   9.630 -1.5208  0.3722 -1.2228
   59SAPC   H9Y 4536   5.610   0.847   9.600  0.7144  1.9525 -2.0116
   59SAPC  C310 4537   5.473   0.798   9.454 -0.3212 -0.0713  0.1495
   59SAPC  H10X 4538   5.370   0.759   9.439 -1.1916  2.0944  0.2349
   59SAPC  H10Y 4539   5.540   0.721   9.409 -1.3332 -0.4203 -0.7884
   59SAPC  C311 4540   5.482   0.926   9.378 -0.3645  0.0582 -0.0193
   59SAPC  H11X 4541   5.583   0.961   9.409  0.1118  1.3887 -2.7657
   59SAPC  H11Y 4542   5.395   0.989   9.405 -1.8662 -1.1120 -1.8697
   59SAPC  C312 4543   5.479   0.889   9.228 -1.1420  0.5175  0.0851
   59SAPC  H12X 4544   5.387   0.829   9.209 -0.8498 -0.2594  1.0504
   59SAPC  H12Y 4545   5.573   0.836   9.201 -0.1117  2.2743  0.0744
   59SAPC  C313 4546   5.474   1.027   9.156  0.0122  0.2048  0.7997
   59SAPC  H13X 4547   5.567   1.078   9.187 -0.2778  0.8656  0.6002
   59SAPC  H13Y 4548   5.390   1.078   9.207 -1.5821 -0.9393 -0.5657
   59SAPC  C314 4549   5.461   1.019   9.002  0.8243  0.4399 -0.7882
   59SAPC  H14X 4550   5.447   1.120   8.958  1.0303  0.5324 -0.6395
   59SAPC  H14Y 4551   5.372   0.958   8.975  1.3521 -0.8399  0.2717
   59SAPC  C315 4552   5.576   0.941   8.946  0.2191 -0.1624  0.3918
   59SAPC  H15X 4553   5.581   0.839   8.991 -0.3302 -0.3380  0.0675
   59SAPC  H15Y 4554   5.675   0.990   8.955  0.7879 -0.9953 -0.9450
   59SAPC  C316 4555   5.555   0.932   8.790 -0.2125  0.8980 -0.1407
   59SAPC  H16X 4556   5.539   1.033   8.748  0.2265 -0.3239 -3.5619
   59SAPC  H16Y 4557   5.465   0.867   8.778  1.3754 -1.5704  0.4595
   59SAPC  C317 4558   5.677   0.882   8.707 -0.0554 -1.1075 -0.1422
   59SAPC  H17X 4559   5.702   0.777   8.731  0.0007 -0.9554  0.4791
   59SAPC  H17Y 4560   5.758   0.949   8.742 -2.3843  1.7396  0.2615
   59SAPC  C318 4561   5.663   0.877   8.556 -0.1563  0.1496  0.2811
   59SAPC  H18X 4562   5.561   0.842   8.529 -0.2496  0.5633  0.0932
   59SAPC  H18Y 4563   5.750   0.821   8.516  0.4609  0.8866  0.5656
   59SAPC  H18Z 4564   5.670   0.978   8.511  1.4560 -0.2197 -0.3665
   60SAPC     N 4565   1.220   6.533  10.891  0.6495 -0.0470 -0.2373
   60SAPC   C12 4566   1.367   6.559  10.916 -0.5302 -0.1000  0.3979
   60SAPC  H12A 4567   1.428   6.471  10.905  1.2845  1.2131 -0.6343
   60SAPC  H12B 4568   1.383   6.585  11.019  1.8153 -0.6976  0.2490
   60SAPC   C13 4569   1.194   6.496  10.752 -1.2562 -0.7577  0.1004
   60SAPC  H13A 4570   1.271   6.432  10.713 -0.2611  0.9096 -0.7546
   60SAPC  H13B 4571   1.094   6.462  10.729 -1.3456  0.2092 -1.0030
   60SAPC  H13C 4572   1.198   6.587  10.694  0.8976 -2.0479 -1.9662
   60SAPC   C14 4573   1.184   6.417  10.974 -0.6289 -0.5224 -0.1569
   60SAPC  H14A 4574   1.077   6.411  10.989 -0.6943  3.5271  2.5860
   60SAPC  H14B 4575   1.225   6.321  10.946  0.8325 -0.1821  0.7048
   60SAPC  H14C 4576   1.224   6.431  11.073  0.1702 -0.7606 -0.4400
   60SAPC   C15 4577   1.134   6.646  10.933  0.3119  0.7838 -0.1169
   60SAPC  H15A 4578   1.030   6.619  10.941  0.3833 -0.1359 -1.9159
   60SAPC  H15B 4579   1.167   6.683  11.030  0.6574  1.7446 -0.5844
   60SAPC  H15C 4580   1.153   6.726  10.863  0.9023 -0.0638 -0.9425
   60SAPC   C11 4581   1.432   6.673  10.836  0.4497 -0.3844  0.0486
   60SAPC  H11A 4582   1.520   6.712  10.891  0.0519  1.6008 -0.6480
   60SAPC  H11B 4583   1.360   6.757  10.838  1.5731  0.5871  1.0566
   60SAPC     P 4584   1.579   6.542  10.661  0.1632 -0.0009 -0.5686
   60SAPC   O13 4585   1.695   6.564  10.750  0.0302 -0.2426  0.3738
   60SAPC   O14 4586   1.518   6.406  10.662  0.4123 -0.3248 -0.1251
   60SAPC   O12 4587   1.467   6.637  10.701  0.2680 -0.5818 -0.1142
   60SAPC   O11 4588   1.616   6.589  10.516  0.6917  0.1006  0.0156
   60SAPC    C1 4589   1.524   6.660  10.432  0.0202  0.1741 -0.0462
   60SAPC    HA 4590   1.419   6.625  10.433  0.2898 -0.6996 -0.9305
   60SAPC    HB 4591   1.517   6.766  10.464 -1.2250  0.1957 -0.3399
   60SAPC    C2 4592   1.566   6.650  10.284 -0.7603  0.2409  0.4243
   60SAPC    HS 4593   1.481   6.702  10.234 -0.8114  0.0361  0.2993
   60SAPC   O21 4594   1.575   6.514  10.245 -0.0163  0.3296 -0.1117
   60SAPC   C21 4595   1.522   6.486  10.127  0.4684  0.5636  0.6325
   60SAPC   O22 4596   1.470   6.556  10.045 -0.5381  0.2664  0.5201
   60SAPC   C22 4597   1.544   6.338  10.111 -0.2789 -0.1151 -0.2583
   60SAPC   H2R 4598   1.596   6.295  10.198  0.7924 -0.5256 -1.0768
   60SAPC   H2S 4599   1.450   6.278  10.106  0.4616 -1.5539  1.9097
   60SAPC    C3 4600   1.689   6.721  10.244  0.9580  0.2121 -0.2829
   60SAPC    HX 4601   1.768   6.681  10.309 -0.0027 -1.8209 -0.3008
   60SAPC    HY 4602   1.668   6.827  10.272 -1.2991 -0.8712  2.5574
   60SAPC   O31 4603   1.723   6.693  10.107  0.5249 -0.7003 -0.4958
   60SAPC   C31 4604   1.712   6.794  10.025 -0.0228  0.5104 -0.4806
   60SAPC   O32 4605   1.677   6.906  10.056  0.1335  0.0177 -0.3374
   60SAPC   C32 4606   1.726   6.738   9.878  0.6681 -0.3072  0.1338
   60SAPC   H2X 4607   1.636   6.680   9.850  1.5550 -1.2092 -0.9586
   60SAPC   H2Y 4608   1.808   6.662   9.871  2.0759  1.2848 -1.7719
   60SAPC   C23 4609   1.641   6.300   9.992 -0.9981 -0.1443  0.0825
   60SAPC   H3R 4610   1.677   6.198  10.015  2.5777  1.3359  1.9154
   60SAPC   H3S 4611   1.723   6.376   9.995 -1.8586  0.8455 -0.7736
   60SAPC   C24 4612   1.574   6.291   9.857  0.4698  0.1960  0.1399
   60SAPC   H4R 4613   1.513   6.383   9.839  0.4454 -0.3597 -3.4086
   60SAPC   H4S 4614   1.494   6.215   9.868 -1.2593  1.9344  0.2560
   60SAPC   C25 4615   1.671   6.262   9.744  0.3928 -0.0816 -0.6545
   60SAPC   H5R 4616   1.704   6.347   9.682 -0.4263 -0.0855 -1.1138
   60SAPC   C26 4617   1.717   6.142   9.709  0.1581 -0.5933  0.1149
   60SAPC   H6R 4618   1.803   6.150   9.640  2.3294  0.4537  2.7401
   60SAPC   C27 4619   1.697   6.001   9.760 -0.0024 -0.4234  0.3528
   60SAPC   H7R 4620   1.614   5.956   9.702  0.0384 -0.9438  0.6837
   60SAPC   H7S 4621   1.654   6.005   9.863 -0.8869 -3.8010  0.2516
   60SAPC   C28 4622   1.817   5.911   9.782  0.2443  0.0877  0.2509
   60SAPC   H8R 4623   1.882   5.939   9.866  0.0731  1.1063  0.0555
   60SAPC   C29 4624   1.854   5.804   9.707  0.3357 -0.6644  0.5864
   60SAPC   H9R 4625   1.931   5.732   9.737  0.3436 -1.0634 -0.3617
   60SAPC  C210 4626   1.781   5.758   9.578  0.2700  0.1033 -0.4331
   60SAPC  H10R 4627   1.680   5.805   9.580 -0.1708 -0.8258  0.3808
   60SAPC  H10S 4628   1.761   5.649   9.584  0.8985  0.0388  0.6002
   60SAPC  C211 4629   1.834   5.812   9.450 -0.9533  0.1289 -0.3922
   60SAPC  H11R 4630   1.858   5.919   9.454  1.0865 -0.2507 -1.3250
   60SAPC  C212 4631   1.842   5.742   9.335  0.0742  0.1545 -0.0195
   60SAPC  H12R 4632   1.876   5.795   9.245 -0.3986 -2.0185 -1.5760
   60SAPC  C213 4633   1.794   5.604   9.318 -0.0947  0.8460 -0.1497
   60SAPC  H13R 4634   1.696   5.592   9.368  1.3286 -0.1157  2.6482
   60SAPC  H13S 4635   1.849   5.533   9.384  0.7362  0.6702 -0.9994
   60SAPC  C214 4636   1.815   5.533   9.184  0.2548  0.2919  1.1045
   60SAPC  H14R 4637   1.728   5.477   9.146  0.5515  0.0899  0.7303
   60SAPC  C215 4638   1.918   5.540   9.094 -0.3305 -0.4567  0.1583
   60SAPC  H15R 4639   1.909   5.475   9.006  1.6196 -0.5831  0.0022
   60SAPC  C216 4640   2.038   5.631   9.109  0.0572  0.7048  0.1968
   60SAPC  H16R 4641   2.129   5.567   9.102  0.0308  0.7103 -0.2502
   60SAPC  H16S 4642   2.050   5.673   9.211  1.1962 -0.4470  0.5716
   60SAPC  C217 4643   2.045   5.744   9.011 -0.1650 -0.4128 -0.0784
   60SAPC  H17R 4644   2.123   5.816   9.043  1.8547 -1.4913 -2.2539
   60SAPC  H17S 4645   1.952   5.804   9.018 -1.4490 -2.0270 -2.1046
   60SAPC  C218 4646   2.089   5.707   8.875 -0.0643 -0.0352  0.0620
   60SAPC  H18R 4647   2.013   5.633   8.841  0.5470 -1.5802  1.9594
   60SAPC  H18S 4648   2.192   5.667   8.871  0.0234  0.2541 -1.4200
   60SAPC  C219 4649   2.072   5.834   8.778 -0.6884  0.4677 -0.4580
   60SAPC  H19R 4650   2.123   5.921   8.825 -0.8333 -0.6041  1.8533
   60SAPC  H19S 4651   1.969   5.851   8.743 -0.3852 -1.7301 -2.6580
   60SAPC  C220 4652   2.159   5.808   8.650  0.9555 -0.8196 -0.1719
   60SAPC  H20R 4653   2.149   5.705   8.611 -1.8093 -0.5891 -0.2723
   60SAPC  H20S 4654   2.267   5.824   8.668  0.9837 -0.6060 -0.5399
   60SAPC  H20T 4655   2.123   5.878   8.572  1.4367 -1.5686 -1.0751
   60SAPC   C33 4656   1.751   6.851   9.771  0.3965 -0.0535  0.4001
   60SAPC   H3X 4657   1.837   6.913   9.804  1.5074 -1.1078 -0.4662
   60SAPC   H3Y 4658   1.655   6.908   9.768  0.6776  0.3794 -1.4997
   60SAPC   C34 4659   1.777   6.799   9.633 -0.3604  0.2750 -0.3882
   60SAPC   H4X 4660   1.686   6.749   9.594 -1.0357 -2.1340  3.6589
   60SAPC   H4Y 4661   1.857   6.722   9.640 -1.7557 -1.2217 -0.3613
   60SAPC   C35 4662   1.817   6.905   9.527  0.4837 -0.6847 -0.3625
   60SAPC   H5X 4663   1.903   6.966   9.564  0.2054 -0.3994 -0.1801
   60SAPC   H5Y 4664   1.727   6.969   9.517  0.6941 -0.4828 -1.0516
   60SAPC   C36 4665   1.864   6.849   9.394 -0.2433  0.9527  0.1281
   60SAPC   H6X 4666   1.791   6.768   9.372  0.7901 -0.4333  1.6432
   60SAPC   H6Y 4667   1.959   6.793   9.408 -0.3849  0.8066  0.4982
   60SAPC   C37 4668   1.886   6.948   9.277  0.5105 -0.1189  0.0752
   60SAPC   H7X 4669   1.786   6.993   9.261  0.1769 -0.9737 -0.3445
   60SAPC   H7Y 4670   1.886   6.886   9.185 -2.6231 -0.5744  0.2588
   60SAPC   C38 4671   2.000   7.051   9.291  0.5375 -0.7305  0.4319
   60SAPC   H8X 4672   1.971   7.120   9.373  1.9734  0.4522 -0.0018
   60SAPC   H8Y 4673   1.999   7.102   9.192 -1.2550 -1.3909  0.0779
   60SAPC   C39 4674   2.137   6.982   9.313 -0.0624 -0.3504 -0.5093
   60SAPC   H9X 4675   2.205   7.055   9.264 -1.3443 -0.0785 -1.9475
   60SAPC   H9Y 4676   2.154   6.886   9.259  1.5200 -0.2059 -0.3411
   60SAPC  C310 4677   2.181   6.972   9.460 -0.2741  0.2077 -0.5956
   60SAPC  H10X 4678   2.290   6.950   9.454 -0.4975 -0.7622 -1.4491
   60SAPC  H10Y 4679   2.136   6.884   9.512 -1.7604  0.2701 -1.7086
   60SAPC  C311 4680   2.160   7.101   9.537  0.1075  0.4981 -0.4870
   60SAPC  H11X 4681   2.060   7.105   9.586 -0.0056  1.2383 -0.7620
   60SAPC  H11Y 4682   2.176   7.182   9.463 -2.4978 -0.7198 -2.5600
   60SAPC  C312 4683   2.273   7.117   9.636 -0.0163 -0.4793  0.1825
   60SAPC  H12X 4684   2.371   7.109   9.585  0.4442 -1.9606  1.2299
   60SAPC  H12Y 4685   2.263   7.026   9.699 -1.6516 -1.4846 -1.4035
   60SAPC  C313 4686   2.264   7.246   9.707 -0.2782  0.1102 -0.7669
   60SAPC  H13X 4687   2.161   7.269   9.743  1.2300  2.2687  2.6637
   60SAPC  H13Y 4688   2.284   7.326   9.632  0.3764 -0.6226 -1.3912
   60SAPC  C314 4689   2.348   7.256   9.840  0.0016 -0.2527 -0.3865
   60SAPC  H14X 4690   2.332   7.360   9.877  1.2491 -0.9734  2.5188
   60SAPC  H14Y 4691   2.453   7.246   9.805 -0.1278 -2.1228 -0.3209
   60SAPC  C315 4692   2.329   7.143   9.937  0.3425 -0.8091 -0.6999
   60SAPC  H15X 4693   2.388   7.157  10.031  1.5029 -0.6824 -1.4241
   60SAPC  H15Y 4694   2.362   7.044   9.900  3.1528  0.0571 -0.7947
   60SAPC  C316 4695   2.182   7.132   9.984  0.1575  0.3235  0.1032
   60SAPC  H16X 4696   2.124   7.102   9.895 -0.4813 -0.9554  0.9204
   60SAPC  H16Y 4697   2.139   7.232  10.008  1.1622  0.7498  0.1856
   60SAPC  C317 4698   2.169   7.033  10.109  0.7443  0.6260  0.3167
   60SAPC  H17X 4699   2.246   7.078  10.176 -0.9769  0.9190  2.2168
   60SAPC  H17Y 4700   2.208   6.932  10.087 -1.1663 -0.4392  1.5542
   60SAPC  C318 4701   2.031   7.038  10.175 -0.2474 -0.4196  0.0610
   60SAPC  H18X 4702   2.021   6.976  10.267  0.1789 -0.7681 -0.1234
   60SAPC  H18Y 4703   1.947   7.010  10.108 -0.8932  2.0163 -0.2501
   60SAPC  H18Z 4704   2.020   7.147  10.190  0.6665 -0.1897 -0.8500
   61SAPC     N 4705   1.669   5.484  10.941 -0.0512  0.3301 -0.5033
   61SAPC   C12 4706   1.697   5.355  10.852 -0.1952 -0.0232 -0.9641
   61SAPC  H12A 4707   1.720   5.379  10.749 -0.2136  1.6882 -0.6117
   61SAPC  H12B 4708   1.609   5.293  10.858  0.7069 -1.4436 -1.8718
   61SAPC   C13 4709   1.611   5.453  11.076  0.0082  0.0236  0.0815
   61SAPC  H13A 4710   1.682   5.395  11.134 -1.2222  0.4739  2.1050
   61SAPC  H13B 4711   1.609   5.540  11.139  1.9544  0.0930  0.1095
   61SAPC  H13C 4712   1.520   5.395  11.072 -0.7328  1.1487  0.2352
   61SAPC   C14 4713   1.798   5.553  10.954 -0.4807  0.5422 -0.2961
   61SAPC  H14A 4714   1.793   5.652  10.997  1.2857 -0.0773  1.5363
   61SAPC  H14B 4715   1.872   5.509  11.019  0.8516  1.7897 -0.9167
   61SAPC  H14C 4716   1.857   5.560  10.864 -0.2646 -3.1858 -0.5909
   61SAPC   C15 4717   1.571   5.567  10.858 -0.2792 -0.4773  0.3678
   61SAPC  H15A 4718   1.478   5.513  10.866  0.5968 -2.0505  0.5430
   61SAPC  H15B 4719   1.556   5.663  10.904 -0.6739  0.1706 -1.0692
   61SAPC  H15C 4720   1.605   5.584  10.757 -0.1840  0.8562  0.6079
   61SAPC   C11 4721   1.802   5.261  10.916 -0.1174  0.1490  0.1745
   61SAPC  H11A 4722   1.765   5.204  11.004 -1.2143 -0.4769 -0.6768
   61SAPC  H11B 4723   1.897   5.318  10.928  0.1174  0.7175 -3.4682
   61SAPC     P 4724   1.895   5.042  10.828 -0.1056 -0.0878 -0.2919
   61SAPC   O13 4725   1.989   5.049  10.941 -0.8616 -0.0706  0.0349
   61SAPC   O14 4726   1.793   4.939  10.839  0.1267 -0.2026 -0.4192
   61SAPC   O12 4727   1.813   5.171  10.808 -0.0485 -0.1960  0.7619
   61SAPC   O11 4728   1.978   5.026  10.696  0.4124 -0.4628 -0.3337
   61SAPC    C1 4729   2.094   5.105  10.653 -0.2293  0.5103 -0.1002
   61SAPC    HA 4730   2.165   5.119  10.738 -1.4552  2.0548  0.7009
   61SAPC    HB 4731   2.143   5.055  10.567  0.2970 -1.8632  1.4467
   61SAPC    C2 4732   2.045   5.245  10.600  0.2544 -0.1942 -0.1756
   61SAPC    HS 4733   1.992   5.291  10.686  2.0032 -1.7706  1.8386
   61SAPC   O21 4734   1.963   5.211  10.481 -0.5424  0.9534  0.6179
   61SAPC   C21 4735   1.868   5.295  10.444  0.1337 -0.4235  0.1042
   61SAPC   O22 4736   1.840   5.404  10.494  0.2684  0.3769  0.4661
   61SAPC   C22 4737   1.799   5.229  10.317 -0.0868  0.5767 -0.3135
   61SAPC   H2R 4738   1.778   5.125  10.348  0.9773  0.7761  1.2169
   61SAPC   H2S 4739   1.704   5.281  10.295 -0.9173 -0.0757  1.5101
   61SAPC    C3 4740   2.166   5.340  10.569 -0.3078  0.0574  0.5540
   61SAPC    HX 4741   2.216   5.376  10.661  2.1499 -0.5566 -0.4676
   61SAPC    HY 4742   2.125   5.436  10.530 -1.9490 -1.0404 -0.5752
   61SAPC   O31 4743   2.266   5.282  10.478  0.0673  0.0981  0.2731
   61SAPC   C31 4744   2.370   5.224  10.532 -0.8319  0.2184 -0.0180
   61SAPC   O32 4745   2.397   5.222  10.651  0.0319 -0.2945 -0.5438
   61SAPC   C32 4746   2.447   5.141  10.432 -0.0638  0.0956 -0.3174
   61SAPC   H2X 4747   2.474   5.214  10.352 -0.5957  1.7588  0.9540
   61SAPC   H2Y 4748   2.378   5.063  10.394  0.2963 -0.4253  0.1000
   61SAPC   C23 4749   1.888   5.242  10.199 -0.0226  0.3476  0.5419
   61SAPC   H3R 4750   1.991   5.206  10.215  1.3764  3.5094 -0.5772
   61SAPC   H3S 4751   1.903   5.351  10.181  1.7369 -0.0581 -0.6046
   61SAPC   C24 4752   1.818   5.192  10.075  0.3700 -1.0142  0.1062
   61SAPC   H4R 4753   1.866   5.243   9.988  2.2825 -0.7554  1.2436
   61SAPC   H4S 4754   1.709   5.215  10.076  0.9792  2.5553  1.9381
   61SAPC   C25 4755   1.834   5.052  10.073  0.4255  0.1980 -0.3743
   61SAPC   H5R 4756   1.892   5.020  10.161  0.3358 -0.7223 -0.6382
   61SAPC   C26 4757   1.774   4.948  10.001 -0.3150 -0.3970  0.2518
   61SAPC   H6R 4758   1.814   4.847  10.014  1.8374  0.5549  1.6991
   61SAPC   C27 4759   1.684   4.966   9.879 -0.5730  0.5846  0.1326
   61SAPC   H7R 4760   1.727   5.045   9.814 -0.5165 -0.7615 -1.5551
   61SAPC   H7S 4761   1.599   5.024   9.921 -0.0550 -0.1412  2.2742
   61SAPC   C28 4762   1.634   4.856   9.790  0.2176  0.2359 -0.0823
   61SAPC   H8R 4763   1.535   4.821   9.823 -0.1898  0.6614 -0.8117
   61SAPC   C29 4764   1.696   4.802   9.679 -0.2157  0.5736  0.3574
   61SAPC   H9R 4765   1.642   4.718   9.632  2.0307 -0.9636  0.3428
   61SAPC  C210 4766   1.836   4.837   9.628 -0.5164 -0.2952 -0.3005
   61SAPC  H10R 4767   1.904   4.866   9.712  0.9598 -3.8493 -0.1071
   61SAPC  H10S 4768   1.834   4.925   9.560 -0.2204 -0.1896 -0.1745
   61SAPC  C211 4769   1.904   4.710   9.574  0.2114  0.1992  0.2190
   61SAPC  H11R 4770   1.927   4.639   9.655  0.5879  1.9467  1.7042
   61SAPC  C212 4771   1.937   4.691   9.444 -0.2038 -0.3184 -0.6313
   61SAPC  H12R 4772   1.981   4.594   9.416 -1.6552 -0.9765 -0.6826
   61SAPC  C213 4773   1.914   4.785   9.328 -0.0603  0.0067 -0.4434
   61SAPC  H13R 4774   1.968   4.740   9.241  0.9664  0.0172  0.1778
   61SAPC  H13S 4775   1.952   4.886   9.352 -0.3990 -0.0668  0.4305
   61SAPC  C214 4776   1.770   4.809   9.283  0.6775  0.8229  0.1498
   61SAPC  H14R 4777   1.695   4.732   9.308  1.1180  0.4037  0.1876
   61SAPC  C215 4778   1.722   4.913   9.211  0.1000 -0.3914 -0.0240
   61SAPC  H15R 4779   1.621   4.911   9.167 -0.1697  1.9938  0.3597
   61SAPC  C216 4780   1.804   5.025   9.149 -0.0527  1.1346 -0.2874
   61SAPC  H16R 4781   1.905   5.030   9.196 -0.2855 -0.1601  0.4219
   61SAPC  H16S 4782   1.739   5.112   9.169  0.8516  1.8910 -0.5532
   61SAPC  C217 4783   1.807   4.997   8.995 -0.6645 -0.2880 -0.7131
   61SAPC  H17R 4784   1.874   5.078   8.959 -2.8510  1.7660 -0.4085
   61SAPC  H17S 4785   1.712   5.006   8.938 -1.4797 -1.8891  0.3398
   61SAPC  C218 4786   1.854   4.856   8.964  0.2666 -0.3100  0.5051
   61SAPC  H18R 4787   1.783   4.779   9.002 -0.6585  0.9568  1.4021
   61SAPC  H18S 4788   1.960   4.849   8.998  0.5405  1.5429  0.1176
   61SAPC  C219 4789   1.864   4.817   8.820 -0.5281  0.0930  0.5420
   61SAPC  H19R 4790   1.763   4.819   8.774 -0.4634  2.5217  0.3695
   61SAPC  H19S 4791   1.916   4.719   8.823 -0.5350  0.1153  2.2336
   61SAPC  C220 4792   1.955   4.908   8.743  0.1863 -0.4205  0.5226
   61SAPC  H20R 4793   2.050   4.919   8.800  0.0403 -0.5758  0.7961
   61SAPC  H20S 4794   1.917   5.011   8.731  1.4940  0.3196  2.3707
   61SAPC  H20T 4795   1.986   4.874   8.642  2.2413 -2.2260  1.6536
   61SAPC   C33 4796   2.569   5.075  10.498  0.3639 -0.3810  0.1291
   61SAPC   H3X 4797   2.593   4.985  10.438 -2.6812 -1.5486  0.4559
   61SAPC   H3Y 4798   2.542   5.053  10.604 -1.6211 -0.9654 -0.4458
   61SAPC   C34 4799   2.685   5.179  10.492 -0.6204 -0.6784 -0.0251
   61SAPC   H4X 4800   2.748   5.166  10.582 -2.3797  0.6901  1.4792
   61SAPC   H4Y 4801   2.636   5.278  10.508  2.6325  0.9231  0.8060
   61SAPC   C35 4802   2.769   5.169  10.365 -0.5851 -0.2944  0.1933
   61SAPC   H5X 4803   2.822   5.267  10.363 -0.6586 -0.2461  0.5951
   61SAPC   H5Y 4804   2.696   5.157  10.282  1.0289  0.2263 -1.3751
   61SAPC   C36 4805   2.874   5.059  10.364  0.0626 -0.2976 -0.2347
   61SAPC   H6X 4806   2.827   4.966  10.403  0.2405 -0.3996 -0.2619
   61SAPC   H6Y 4807   2.961   5.078  10.430  0.8210  0.7827 -1.4961
   61SAPC   C37 4808   2.942   5.037  10.226 -0.2839  0.6039  0.4556
   61SAPC   H7X 4809   2.865   5.016  10.148  4.1124 -1.8865 -3.7286
   61SAPC   H7Y 4810   3.006   4.948  10.235 -0.9189 -0.0449 -1.1040
   61SAPC   C38 4811   3.036   5.162  10.174  0.4833 -0.1168 -0.8204
   61SAPC   H8X 4812   3.092   5.170  10.270 -0.1173  2.9316 -0.6090
   61SAPC   H8Y 4813   2.974   5.254  10.165  0.8373  0.0775 -1.3935
   61SAPC   C39 4814   3.119   5.136  10.045 -0.4901  0.6427 -0.2742
   61SAPC   H9X 4815   3.171   5.038  10.053 -1.3500  0.2460  0.6541
   61SAPC   H9Y 4816   3.186   5.224  10.033 -1.0706  1.0508 -0.5673
   61SAPC  C310 4817   3.037   5.122   9.913  0.3041 -0.3385  0.0965
   61SAPC  H10X 4818   2.962   5.204   9.919  1.3080  0.7408 -1.4628
   61SAPC  H10Y 4819   2.973   5.031   9.916 -0.8807  0.3933 -1.6316
   61SAPC  C311 4820   3.129   5.120   9.794  0.5599  0.3458  0.1532
   61SAPC  H11X 4821   3.183   5.024   9.810 -0.5419 -0.3279 -0.0447
   61SAPC  H11Y 4822   3.205   5.200   9.810  0.8879  0.2322 -0.8068
   61SAPC  C312 4823   3.050   5.131   9.672 -0.1252  0.0843  0.8901
   61SAPC  H12X 4824   3.005   5.232   9.670 -2.2563 -0.8079  0.3614
   61SAPC  H12Y 4825   2.969   5.055   9.668 -0.6752  0.6985 -2.0949
   61SAPC  C313 4826   3.127   5.120   9.542  0.2691  0.2199 -0.1412
   61SAPC  H13X 4827   3.181   5.024   9.557 -0.7762 -0.3455  0.0586
   61SAPC  H13Y 4828   3.204   5.200   9.538  1.9990 -1.2630  1.4322
   61SAPC  C314 4829   3.031   5.125   9.424  0.0754  0.4070  0.4550
   61SAPC  H14X 4830   3.001   5.232   9.419 -0.2248  0.2954 -0.2844
   61SAPC  H14Y 4831   2.938   5.065   9.429 -0.1540  0.7245  0.0831
   61SAPC  C315 4832   3.108   5.094   9.287  0.3194  0.2818  0.0547
   61SAPC  H15X 4833   3.149   4.993   9.308  1.6200  0.5224 -1.1523
   61SAPC  H15Y 4834   3.202   5.153   9.275 -0.0587  1.0934  0.9837
   61SAPC  C316 4835   3.015   5.126   9.163 -0.6578  0.5945 -0.7549
   61SAPC  H16X 4836   2.973   5.229   9.169 -1.6224  0.1674  0.0446
   61SAPC  H16Y 4837   2.929   5.057   9.176 -0.7369  0.6182 -1.1377
   61SAPC  C317 4838   3.095   5.101   9.038  0.1376  0.2635  0.8417
   61SAPC  H17X 4839   3.164   5.185   9.015  0.9515 -0.1237  1.7825
   61SAPC  H17Y 4840   3.025   5.094   8.952  0.6748 -1.2409  0.4869
   61SAPC  C318 4841   3.167   4.962   9.022  0.2511 -0.3725 -0.7187
   61SAPC  H18X 4842   3.099   4.881   9.055 -0.1009 -0.3958 -1.4782
   61SAPC  H18Y 4843   3.259   4.952   9.084 -1.8123 -3.1037  2.1849
   61SAPC  H18Z 4844   3.205   4.948   8.918  0.5184  0.2901 -0.7198
   62SAPC     N 4845   1.067   5.308  10.706 -0.7958  0.2069 -0.0574
   62SAPC   C12 4846   1.211   5.250  10.697 -0.0977  0.7920  0.1018
   62SAPC  H12A 4847   1.254   5.235  10.795 -0.4051  0.9858  0.2678
   62SAPC  H12B 4848   1.263   5.328  10.643 -0.0222  1.7099  1.4471
   62SAPC   C13 4849   1.069   5.447  10.764 -0.4736 -0.6480 -0.3015
   62SAPC  H13A 4850   1.141   5.516  10.723 -1.9643  0.3934 -1.2693
   62SAPC  H13B 4851   0.970   5.489  10.762 -0.1564  0.2052  0.8867
   62SAPC  H13C 4852   1.096   5.433  10.867 -0.4384  3.2045  0.3280
   62SAPC   C14 4853   1.005   5.308  10.568 -0.0330 -0.8424  0.7361
   62SAPC  H14A 4854   1.009   5.211  10.522 -1.2290 -0.0489 -1.1961
   62SAPC  H14B 4855   0.909   5.356  10.559 -0.0559 -0.7311  1.5603
   62SAPC  H14C 4856   1.067   5.362  10.497 -2.8509  0.0394 -1.2385
   62SAPC   C15 4857   0.988   5.216  10.787 -0.3209  0.0173 -0.0394
   62SAPC  H15A 4858   1.010   5.222  10.893  0.4961 -0.2899 -0.1853
   62SAPC  H15B 4859   0.883   5.240  10.788 -0.4775 -0.0820 -3.5022
   62SAPC  H15C 4860   0.996   5.113  10.755 -1.0703 -0.0904  0.1049
   62SAPC   C11 4861   1.216   5.103  10.637  0.4600  0.3688 -0.5357
   62SAPC  H11A 4862   1.323   5.080  10.618  0.6662  2.2074 -1.7380
   62SAPC  H11B 4863   1.178   5.100  10.533  1.7232  0.3796 -1.0216
   62SAPC     P 4864   1.176   4.856  10.719  0.1398  0.2929  0.2091
   62SAPC   O13 4865   1.321   4.832  10.754 -0.5942 -0.2793 -0.1815
   62SAPC   O14 4866   1.067   4.780  10.788 -0.1475  0.1347  0.5627
   62SAPC   O12 4867   1.157   5.012  10.733 -0.1382 -0.4335  0.0762
   62SAPC   O11 4868   1.156   4.836  10.562 -0.9629 -0.6855 -0.3578
   62SAPC    C1 4869   1.082   4.724  10.516 -0.3042 -0.5966  0.1249
   62SAPC    HA 4870   0.999   4.695  10.584 -0.3070  0.8101  0.7654
   62SAPC    HB 4871   1.037   4.754  10.418  2.5320  1.0148 -0.8109
   62SAPC    C2 4872   1.168   4.610  10.473 -0.5799  0.7065 -0.2630
   62SAPC    HS 4873   1.239   4.584  10.554  0.6970  1.7553 -1.0029
   62SAPC   O21 4874   1.239   4.642  10.352  1.1741 -0.2228  0.0169
   62SAPC   C21 4875   1.363   4.682  10.374  0.2222  0.3283  0.4176
   62SAPC   O22 4876   1.420   4.688  10.479 -0.2740  0.2206 -0.0737
   62SAPC   C22 4877   1.429   4.721  10.239 -0.4902 -0.2129 -0.0389
   62SAPC   H2R 4878   1.511   4.648  10.223  1.1203  1.0740  1.8109
   62SAPC   H2S 4879   1.353   4.734  10.160 -1.4527  2.6645  1.2241
   62SAPC    C3 4880   1.084   4.480  10.435  0.1464  0.1204 -0.0325
   62SAPC    HX 4881   1.025   4.439  10.520 -1.3230  1.1545 -0.5061
   62SAPC    HY 4882   1.152   4.395  10.413  0.7234  0.9106 -1.3971
   62SAPC   O31 4883   0.996   4.507  10.326 -0.0678  0.3159  0.3146
   62SAPC   C31 4884   1.037   4.465  10.204  0.6653  0.3941 -0.5196
   62SAPC   O32 4885   1.133   4.395  10.183  0.1608 -0.0823  0.1685
   62SAPC   C32 4886   0.932   4.518  10.105  0.0375 -0.3332  0.5500
   62SAPC   H2X 4887   0.965   4.616  10.064 -0.8207 -0.4731 -0.5406
   62SAPC   H2Y 4888   0.835   4.545  10.154 -0.3952  0.7734 -0.8426
   62SAPC   C23 4889   1.512   4.860  10.258  1.1175  0.1097  0.5181
   62SAPC   H3R 4890   1.522   4.913  10.160  1.5414  0.1780  0.5980
   62SAPC   H3S 4891   1.611   4.839  10.304 -0.2053 -0.9865  3.0925
   62SAPC   C24 4892   1.455   4.976  10.349 -0.3462  0.1960  0.4309
   62SAPC   H4R 4893   1.535   5.053  10.337  0.5133 -0.8183 -0.5813
   62SAPC   H4S 4894   1.453   4.944  10.455  2.7354  0.2771  0.6027
   62SAPC   C25 4895   1.320   5.022  10.312  0.2818  0.0072  0.0332
   62SAPC   H5R 4896   1.236   4.970  10.361  1.1174  0.1651  1.6901
   62SAPC   C26 4897   1.301   5.127  10.231  0.3320  0.0115 -0.5020
   62SAPC   H6R 4898   1.199   5.141  10.193  0.3233 -0.5994 -0.7204
   62SAPC   C27 4899   1.404   5.215  10.158 -0.2782  0.1412  0.2906
   62SAPC   H7R 4900   1.393   5.217  10.047  0.6062 -0.2885  0.1848
   62SAPC   H7S 4901   1.507   5.176  10.171 -0.8520 -1.8660 -0.6478
   62SAPC   C28 4902   1.410   5.354  10.205  0.3673 -0.1690 -0.2962
   62SAPC   H8R 4903   1.450   5.369  10.306  0.7004  0.0176 -0.4518
   62SAPC   C29 4904   1.358   5.459  10.144  0.1146 -0.2360  0.3853
   62SAPC   H9R 4905   1.381   5.556  10.188  1.1947 -0.8932  1.2999
   62SAPC  C210 4906   1.289   5.464  10.011  0.2649 -0.9902 -0.5172
   62SAPC  H10R 4907   1.196   5.524  10.018  1.0486  0.1660  0.4243
   62SAPC  H10S 4908   1.270   5.363   9.970  0.4758 -0.5768 -1.6562
   62SAPC  C211 4909   1.381   5.532   9.923 -0.0055  0.1373 -0.6309
   62SAPC  H11R 4910   1.467   5.470   9.893 -0.3700 -2.5160  3.1135
   62SAPC  C212 4911   1.374   5.652   9.859  0.0138  0.3209 -0.3662
   62SAPC  H12R 4912   1.456   5.686   9.794 -1.0314 -0.2724 -2.0702
   62SAPC  C213 4913   1.268   5.755   9.874 -0.0089 -0.0454  0.5243
   62SAPC  H13R 4914   1.225   5.754   9.977 -0.9009 -1.8912  0.1763
   62SAPC  H13S 4915   1.175   5.731   9.818 -0.8589  2.7889  0.5499
   62SAPC  C214 4916   1.321   5.897   9.850 -0.2993 -0.0112  0.1614
   62SAPC  H14R 4917   1.366   5.940   9.940  0.6995 -1.7831  0.5674
   62SAPC  C215 4918   1.314   5.964   9.738  0.0083  0.7568  0.7869
   62SAPC  H15R 4919   1.359   6.064   9.725 -0.5407  0.7471 -1.8808
   62SAPC  C216 4920   1.256   5.901   9.610 -0.4058  0.3136  0.0526
   62SAPC  H16R 4921   1.197   5.972   9.548 -2.8096 -1.5490  0.0769
   62SAPC  H16S 4922   1.178   5.824   9.624 -0.2868 -0.6274 -3.4984
   62SAPC  C217 4923   1.355   5.844   9.509  0.7837  0.5910 -0.2233
   62SAPC  H17R 4924   1.422   5.780   9.571  1.4368 -0.0695 -1.5796
   62SAPC  H17S 4925   1.415   5.926   9.465  1.7557  0.1805  0.3110
   62SAPC  C218 4926   1.287   5.765   9.388 -0.8357  0.4384  0.2497
   62SAPC  H18R 4927   1.213   5.830   9.338  1.8378  1.2787 -2.9829
   62SAPC  H18S 4928   1.245   5.669   9.424  1.4602  0.0050  2.0692
   62SAPC  C219 4929   1.392   5.715   9.289 -0.4721 -0.4192 -0.3159
   62SAPC  H19R 4930   1.349   5.633   9.228  1.1552 -1.0513 -0.6705
   62SAPC  H19S 4931   1.472   5.666   9.348  0.5555 -0.1601 -1.4411
   62SAPC  C220 4932   1.444   5.827   9.195  0.1066 -0.0851  0.2105
   62SAPC  H20R 4933   1.502   5.903   9.252 -1.5019  2.5721 -1.4822
   62SAPC  H20S 4934   1.358   5.879   9.149  0.0358 -0.6729 -0.3398
   62SAPC  H20T 4935   1.515   5.778   9.124  1.6810  0.3900  1.3920
   62SAPC   C33 4936   0.902   4.410   9.998  0.2324  0.3180 -0.0750
   62SAPC   H3X 4937   0.892   4.316  10.057  2.4063  0.2763  0.3304
   62SAPC   H3Y 4938   0.992   4.400   9.934  1.2661 -1.3594  1.5295
   62SAPC   C34 4939   0.778   4.443   9.918 -0.7298  0.4153 -0.7038
   62SAPC   H4X 4940   0.799   4.542   9.872 -0.6653  0.8772  0.2814
   62SAPC   H4Y 4941   0.700   4.448   9.998 -0.7703  1.8038 -0.8082
   62SAPC   C35 4942   0.738   4.331   9.823  0.4969  0.9657 -0.8123
   62SAPC   H5X 4943   0.650   4.368   9.766 -0.3175  0.7624  0.2767
   62SAPC   H5Y 4944   0.711   4.233   9.869  1.6950  0.2634 -1.5571
   62SAPC   C36 4945   0.845   4.295   9.719 -0.2195 -0.0742  0.3193
   62SAPC   H6X 4946   0.940   4.256   9.762  2.1551  2.6173 -2.0877
   62SAPC   H6Y 4947   0.879   4.394   9.683  0.0092 -0.5635 -0.8279
   62SAPC   C37 4948   0.807   4.203   9.600  0.5220 -0.1729 -0.1091
   62SAPC   H7X 4949   0.697   4.212   9.600  0.6826  2.2761 -0.3309
   62SAPC   H7Y 4950   0.831   4.103   9.643  0.5974  0.6564  1.8826
   62SAPC   C38 4951   0.878   4.239   9.472 -0.2399  0.9590  0.3429
   62SAPC   H8X 4952   0.882   4.151   9.404  0.5322 -0.2961  1.9459
   62SAPC   H8Y 4953   0.983   4.269   9.495  0.5781  2.6842 -4.4260
   62SAPC   C39 4954   0.829   4.361   9.393  0.0066 -0.0790  0.0190
   62SAPC   H9X 4955   0.835   4.457   9.450 -1.0640  0.2387 -0.3771
   62SAPC   H9Y 4956   0.726   4.335   9.361  0.1079  0.0168 -0.3978
   62SAPC  C310 4957   0.881   4.379   9.252 -0.2391 -0.4288 -0.7751
   62SAPC  H10X 4958   0.847   4.289   9.196  1.4059 -1.2308 -0.5361
   62SAPC  H10Y 4959   0.992   4.384   9.260 -0.0947 -2.4747 -0.9634
   62SAPC  C311 4960   0.831   4.512   9.192 -0.0318  0.1888 -0.3204
   62SAPC  H11X 4961   0.898   4.593   9.228 -0.1087 -0.5062  1.4855
   62SAPC  H11Y 4962   0.732   4.546   9.229 -0.1941  1.7494 -2.0511
   62SAPC  C312 4963   0.814   4.517   9.032 -0.0494  0.0658 -0.4595
   62SAPC  H12X 4964   0.734   4.446   9.001 -1.9972  1.4116  1.2129
   62SAPC  H12Y 4965   0.914   4.480   9.002  0.2541  0.4829  0.0342
   62SAPC  C313 4966   0.782   4.655   8.982 -0.3351 -0.5964  0.1698
   62SAPC  H13X 4967   0.870   4.722   8.988 -0.2293 -0.7116 -0.0630
   62SAPC  H13Y 4968   0.700   4.700   9.042 -0.9063 -0.5755 -0.6117
   62SAPC  C314 4969   0.734   4.653   8.838 -0.3316 -0.3093  0.1743
   62SAPC  H14X 4970   0.727   4.760   8.810  0.3042 -0.0078  1.1101
   62SAPC  H14Y 4971   0.637   4.599   8.842 -2.9004  3.8559  0.0602
   62SAPC  C315 4972   0.838   4.580   8.744  0.3378  0.0087 -0.1739
   62SAPC  H15X 4973   0.819   4.471   8.755  2.2689 -0.4937 -1.3777
   62SAPC  H15Y 4974   0.948   4.588   8.760  0.4767  0.3826 -1.2850
   62SAPC  C316 4975   0.816   4.612   8.603 -0.4362 -0.1980  0.1049
   62SAPC  H16X 4976   0.868   4.706   8.576  0.9428 -1.3340 -1.3724
   62SAPC  H16Y 4977   0.709   4.632   8.581  0.2351  2.0666 -1.4788
   62SAPC  C317 4978   0.871   4.494   8.523  0.6229  0.0079 -0.1593
   62SAPC  H17X 4979   0.817   4.402   8.557 -1.7442  1.4319  0.1649
   62SAPC  H17Y 4980   0.981   4.481   8.523  0.4671 -3.2246 -3.5832
   62SAPC  C318 4981   0.825   4.477   8.374 -0.0533 -0.1856 -0.1681
   62SAPC  H18X 4982   0.868   4.383   8.331 -2.8259 -1.1818 -0.9968
   62SAPC  H18Y 4983   0.873   4.548   8.303 -2.5511 -0.1468 -1.9407
   62SAPC  H18Z 4984   0.716   4.473   8.351  0.0218 -0.0159 -0.5652
   63SAPC     N 4985   5.283   2.619   6.295 -0.1571  0.5614  0.1189
   63SAPC   C12 4986   5.185   2.645   6.406  0.6436  0.1759 -0.5656
   63SAPC  H12A 4987   5.204   2.577   6.488 -0.6345 -1.2846 -1.4182
   63SAPC  H12B 4988   5.084   2.632   6.371  1.0285 -0.6963 -1.3933
   63SAPC   C13 4989   5.262   2.708   6.185 -0.1073 -0.0408  0.3870
   63SAPC  H13A 4990   5.171   2.689   6.130  0.5861  0.4530 -0.9843
   63SAPC  H13B 4991   5.264   2.809   6.224 -0.6668  0.5229 -0.9702
   63SAPC  H13C 4992   5.344   2.711   6.115 -1.4519 -1.1034 -1.3024
   63SAPC   C14 4993   5.422   2.622   6.345  0.0857 -0.1597  0.3921
   63SAPC  H14A 4994   5.485   2.596   6.261 -0.5121  3.1825 -1.2262
   63SAPC  H14B 4995   5.442   2.720   6.384 -0.3137 -0.0088  0.2233
   63SAPC  H14C 4996   5.425   2.559   6.433  0.7318 -0.4455  0.1702
   63SAPC   C15 4997   5.248   2.478   6.250  0.1545  0.1099  0.3797
   63SAPC  H15A 4998   5.296   2.463   6.154  0.3141 -0.7490  0.5838
   63SAPC  H15B 4999   5.284   2.408   6.324 -0.5663  1.0795  1.6814
   63SAPC  H15C 5000   5.141   2.463   6.244  0.2970 -0.5580 -1.0093
   63SAPC   C11 5001   5.192   2.785   6.466  0.4645 -1.0125 -0.3078
   63SAPC  H11A 5002   5.296   2.820   6.489  1.2106 -2.3039 -1.5561
   63SAPC  H11B 5003   5.144   2.783   6.566 -1.7640  1.1724 -1.2254
   63SAPC     P 5004   4.966   2.870   6.370 -0.2932 -0.3362 -0.1369
   63SAPC   O13 5005   4.923   2.999   6.309  0.0443  0.3792 -0.1020
   63SAPC   O14 5006   4.926   2.746   6.297  0.2662  0.2482 -0.2059
   63SAPC   O12 5007   5.124   2.877   6.387  0.8683 -0.2523  0.2166
   63SAPC   O11 5008   4.919   2.867   6.517  0.4342  0.2396 -0.2016
   63SAPC    C1 5009   4.900   2.992   6.581 -0.0884  0.5522  0.2431
   63SAPC    HA 5010   4.832   3.064   6.531  0.1222  0.3774 -0.3065
   63SAPC    HB 5011   4.850   2.967   6.677  2.6173 -1.1511  1.3328
   63SAPC    C2 5012   5.022   3.074   6.609 -0.2675 -0.2168 -0.4135
   63SAPC    HS 5013   5.071   3.095   6.512 -2.3432 -0.4283 -1.5580
   63SAPC   O21 5014   5.096   2.995   6.701 -0.4423 -0.1334 -0.1962
   63SAPC   C21 5015   5.226   3.003   6.701  0.3226  0.4316 -0.3440
   63SAPC   O22 5016   5.298   3.071   6.632 -0.1310  0.3329 -0.3448
   63SAPC   C22 5017   5.280   2.910   6.809  0.4490 -0.1629 -0.2785
   63SAPC   H2R 5018   5.194   2.894   6.877 -0.7222 -1.3708 -1.9436
   63SAPC   H2S 5019   5.298   2.818   6.749 -0.2046 -0.1232 -0.5397
   63SAPC    C3 5020   4.995   3.218   6.664  0.2178  0.0578  0.5517
   63SAPC    HX 5021   4.930   3.270   6.591  0.6205 -1.7747 -1.1748
   63SAPC    HY 5022   5.095   3.267   6.662 -0.0968  0.7773 -2.4074
   63SAPC   O31 5023   4.944   3.218   6.799  0.4528  0.0170  1.0749
   63SAPC   C31 5024   4.871   3.322   6.834 -0.3138  0.4613 -0.1416
   63SAPC   O32 5025   4.861   3.428   6.776  0.2656  0.9944  0.1347
   63SAPC   C32 5026   4.807   3.286   6.966 -0.3524  0.5134 -0.4675
   63SAPC   H2X 5027   4.873   3.211   7.014  0.0938  0.1046 -1.6697
   63SAPC   H2Y 5028   4.708   3.243   6.939 -1.0867  0.6768  1.8075
   63SAPC   C23 5029   5.402   2.957   6.883  0.0836  0.3496  0.0390
   63SAPC   H3R 5030   5.485   2.984   6.813 -0.1039  1.5325  0.2529
   63SAPC   H3S 5031   5.441   2.873   6.943  0.0434  0.7762  0.6752
   63SAPC   C24 5032   5.369   3.071   6.980 -0.1167  0.2879 -0.9024
   63SAPC   H4R 5033   5.287   3.037   7.046  0.4063  1.1940  0.2541
   63SAPC   H4S 5034   5.326   3.158   6.926 -1.9653  1.1105  1.7385
   63SAPC   C25 5035   5.502   3.092   7.064 -0.1452 -0.6820 -0.2334
   63SAPC   H5R 5036   5.570   3.165   7.017  0.3844 -0.9325  0.1309
   63SAPC   C26 5037   5.537   3.040   7.185  0.1875  0.3638  0.3351
   63SAPC   H6R 5038   5.633   3.064   7.234 -0.8493  1.8990  1.7542
   63SAPC   C27 5039   5.445   2.966   7.279  0.7672  0.0460  0.0423
   63SAPC   H7R 5040   5.359   2.920   7.226  0.0356 -0.2166  1.4154
   63SAPC   H7S 5041   5.389   3.027   7.354  0.3200 -0.5639  0.2101
   63SAPC   C28 5042   5.502   2.851   7.352 -0.3418 -0.1377 -0.4776
   63SAPC   H8R 5043   5.500   2.755   7.299 -0.0281 -0.3770 -0.0560
   63SAPC   C29 5044   5.569   2.862   7.474 -0.4238 -0.7467  0.1297
   63SAPC   H9R 5045   5.623   2.776   7.516  1.0674  0.5206  0.9330
   63SAPC  C210 5046   5.593   2.997   7.536 -0.4733  0.3316  0.6522
   63SAPC  H10R 5047   5.602   3.083   7.466 -0.0780  0.1405  0.4686
   63SAPC  H10S 5048   5.692   2.995   7.587 -0.7612  2.0759  1.3787
   63SAPC  C211 5049   5.482   3.027   7.629 -0.1033 -0.2099 -0.7065
   63SAPC  H11R 5050   5.384   3.057   7.589  0.3783  2.2805 -0.1665
   63SAPC  C212 5051   5.476   3.006   7.762 -0.4511 -0.2497 -0.6327
   63SAPC  H12R 5052   5.385   3.027   7.820 -0.2568  0.9765 -0.7414
   63SAPC  C213 5053   5.587   2.936   7.844 -0.2605 -0.5302 -0.1018
   63SAPC  H13R 5054   5.645   3.018   7.893  0.1298 -1.0446  0.3087
   63SAPC  H13S 5055   5.662   2.886   7.779 -1.3776 -1.6099 -0.5783
   63SAPC  C214 5056   5.534   2.850   7.956 -0.3439  0.6351  0.9170
   63SAPC  H14R 5057   5.560   2.743   7.946 -1.2079  0.5750 -1.1708
   63SAPC  C215 5058   5.473   2.894   8.066  0.2105  0.3441  0.1400
   63SAPC  H15R 5059   5.437   2.818   8.137 -2.5720 -0.2780 -1.7839
   63SAPC  C216 5060   5.431   3.032   8.104 -0.9386 -0.1141  0.1874
   63SAPC  H16R 5061   5.349   3.073   8.042  0.5490  1.5685 -0.7506
   63SAPC  H16S 5062   5.511   3.108   8.091 -0.9154 -0.5434 -2.8746
   63SAPC  C217 5063   5.378   3.033   8.248  0.6675  0.5624  0.3945
   63SAPC  H17R 5064   5.380   3.143   8.261  0.1833  0.6303 -0.0857
   63SAPC  H17S 5065   5.450   2.977   8.312  0.3171  0.1171  0.4059
   63SAPC  C218 5066   5.236   2.977   8.261 -0.5303  0.0514  0.0019
   63SAPC  H18R 5067   5.248   2.868   8.244  0.1743  0.0059  0.7250
   63SAPC  H18S 5068   5.177   3.024   8.180  1.7620 -1.7415 -2.9265
   63SAPC  C219 5069   5.169   2.995   8.398  0.0744 -0.4583 -0.2708
   63SAPC  H19R 5070   5.072   2.948   8.372 -0.9979  2.2369 -1.5266
   63SAPC  H19S 5071   5.149   3.103   8.416  3.0573  0.1625 -0.2107
   63SAPC  C220 5072   5.229   2.917   8.514 -0.9492 -0.3050  0.7939
   63SAPC  H20R 5073   5.287   2.836   8.465  0.4158  0.4855  1.0608
   63SAPC  H20S 5074   5.149   2.876   8.580 -0.4636 -0.8548  1.0466
   63SAPC  H20T 5075   5.286   2.980   8.585 -1.2247 -0.0398  0.7821
   63SAPC   C33 5076   4.762   3.404   7.046  0.0643 -0.5016  0.4853
   63SAPC   H3X 5077   4.671   3.382   7.107 -0.7792 -1.2462 -0.9890
   63SAPC   H3Y 5078   4.731   3.477   6.969 -3.0109 -0.2474  1.8074
   63SAPC   C34 5079   4.878   3.457   7.117 -0.3714 -1.1766  0.6000
   63SAPC   H4X 5080   4.956   3.490   7.045  1.5537 -2.2849  2.0683
   63SAPC   H4Y 5081   4.926   3.372   7.170  1.4396 -0.1643  0.6700
   63SAPC   C35 5082   4.843   3.579   7.204  0.3419 -0.1560  0.1106
   63SAPC   H5X 5083   4.740   3.607   7.174  0.3599 -0.6673 -0.4601
   63SAPC   H5Y 5084   4.904   3.667   7.174  0.3371 -0.2347 -0.1299
   63SAPC   C36 5085   4.851   3.549   7.355 -0.2997  0.2806 -0.0750
   63SAPC   H6X 5086   4.957   3.519   7.367 -0.5836 -0.9372 -0.4231
   63SAPC   H6Y 5087   4.784   3.463   7.374 -0.9765  0.9817  0.8114
   63SAPC   C37 5088   4.808   3.670   7.436 -0.7774 -0.4682  0.6837
   63SAPC   H7X 5089   4.700   3.692   7.418 -0.6271 -0.0520  0.2527
   63SAPC   H7Y 5090   4.874   3.753   7.404  2.3196 -2.2223  2.1051
   63SAPC   C38 5091   4.853   3.642   7.582 -0.2397 -0.0130  0.3442
   63SAPC   H8X 5092   4.962   3.621   7.581 -0.3425 -0.5478  0.0319
   63SAPC   H8Y 5093   4.808   3.545   7.611  2.3688 -1.5228 -0.3279
   63SAPC   C39 5094   4.811   3.758   7.666 -0.1605  0.1645  0.2752
   63SAPC   H9X 5095   4.705   3.773   7.637  0.6257  0.9273 -2.4980
   63SAPC   H9Y 5096   4.874   3.848   7.647  0.0517  0.0467  0.4109
   63SAPC  C310 5097   4.819   3.731   7.818 -0.3528  0.6964 -0.0839
   63SAPC  H10X 5098   4.761   3.638   7.835 -1.3715  1.4344  0.6522
   63SAPC  H10Y 5099   4.761   3.809   7.872 -2.3584 -0.0856 -1.0055
   63SAPC  C311 5100   4.960   3.732   7.872  0.7200  0.1137 -0.4516
   63SAPC  H11X 5101   5.004   3.831   7.850 -0.9828  0.7149 -1.3694
   63SAPC  H11Y 5102   5.024   3.663   7.813  0.4056 -1.2455  0.7220
   63SAPC  C312 5103   4.967   3.696   8.022  0.7353 -0.2165 -0.0855
   63SAPC  H12X 5104   5.075   3.683   8.046  1.1728 -1.0215 -2.2390
   63SAPC  H12Y 5105   4.915   3.599   8.041  1.0991 -0.8162 -1.8984
   63SAPC  C313 5106   4.904   3.790   8.122 -0.7150  0.2661 -0.3440
   63SAPC  H13X 5107   4.799   3.810   8.092 -0.5307 -0.0225 -1.2323
   63SAPC  H13Y 5108   4.956   3.888   8.116  0.2004 -0.2241 -0.5773
   63SAPC  C314 5109   4.904   3.727   8.262 -0.3170  0.0361  0.7828
   63SAPC  H14X 5110   5.012   3.706   8.280  0.7302  0.8367 -3.5475
   63SAPC  H14Y 5111   4.837   3.638   8.262  0.2358 -0.5055 -2.4573
   63SAPC  C315 5112   4.863   3.819   8.378 -0.4800  0.3365 -0.0712
   63SAPC  H15X 5113   4.752   3.832   8.380 -0.4276  1.2093 -1.3181
   63SAPC  H15Y 5114   4.907   3.917   8.349 -1.9104  1.1443  0.3911
   63SAPC  C316 5115   4.911   3.768   8.512 -0.1577  0.2254 -0.3624
   63SAPC  H16X 5116   4.890   3.856   8.576 -0.9105  2.2032 -3.1063
   63SAPC  H16Y 5117   5.021   3.751   8.516 -0.4042 -1.3479  0.8889
   63SAPC  C317 5118   4.832   3.649   8.568  0.6432  0.5332  0.7867
   63SAPC  H17X 5119   4.855   3.559   8.507 -2.0806  2.4329 -3.5036
   63SAPC  H17Y 5120   4.723   3.669   8.558  0.6918  0.0420 -0.9297
   63SAPC  C318 5121   4.874   3.618   8.711 -0.0189  0.3257 -0.6765
   63SAPC  H18X 5122   4.845   3.699   8.781  2.4140 -0.5630  1.5312
   63SAPC  H18Y 5123   4.983   3.607   8.728 -0.2480  1.9227  2.4336
   63SAPC  H18Z 5124   4.822   3.529   8.753 -0.2990  1.0117  0.4698
   64SAPC     N 5125   0.549   3.382   6.343 -0.0653  0.2438 -0.1699
   64SAPC   C12 5126   0.584   3.513   6.407 -0.2352  0.1229  0.7568
   64SAPC  H12A 5127   0.685   3.534   6.378 -0.3860 -2.1952 -1.7094
   64SAPC  H12B 5128   0.583   3.500   6.515 -1.1370 -1.6319  0.5661
   64SAPC   C13 5129   0.549   3.403   6.192  0.1889 -0.3087  0.7551
   64SAPC  H13A 5130   0.525   3.505   6.168  1.0521 -0.1235  0.6623
   64SAPC  H13B 5131   0.649   3.389   6.155  0.2338  1.5045  0.1086
   64SAPC  H13C 5132   0.482   3.346   6.129 -1.4717  1.6848  0.6163
   64SAPC   C14 5133   0.645   3.278   6.381 -0.7571  0.0913  0.3676
   64SAPC  H14A 5134   0.745   3.314   6.363 -0.2807 -1.4550 -0.1865
   64SAPC  H14B 5135   0.633   3.251   6.485 -2.3723  2.1204  0.7806
   64SAPC  H14C 5136   0.630   3.191   6.319  1.7486  1.1677 -1.9374
   64SAPC   C15 5137   0.407   3.350   6.391 -0.3493 -0.1640  0.0473
   64SAPC  H15A 5138   0.334   3.413   6.341 -3.3850 -1.4738  2.4925
   64SAPC  H15B 5139   0.374   3.249   6.375  1.2352 -0.8763  1.0908
   64SAPC  H15C 5140   0.385   3.365   6.495 -0.8785 -1.4099  0.1205
   64SAPC   C11 5141   0.507   3.646   6.386  0.8070  0.1712  0.0304
   64SAPC  H11A 5142   0.525   3.712   6.473 -1.9033  1.5341 -0.3558
   64SAPC  H11B 5143   0.397   3.635   6.398  0.3076  3.2444 -0.8573
   64SAPC     P 5144   0.662   3.778   6.241 -0.3374  0.3679 -0.0304
   64SAPC   O13 5145   0.777   3.683   6.264  0.1234  0.0549  0.7610
   64SAPC   O14 5146   0.655   3.831   6.104 -0.1198  0.1230  0.0878
   64SAPC   O12 5147   0.523   3.699   6.264  0.3479 -0.2271 -0.1468
   64SAPC   O11 5148   0.678   3.896   6.343  0.2060 -0.7543  1.2336
   64SAPC    C1 5149   0.563   3.972   6.385 -0.5937 -0.5013  0.3760
   64SAPC    HA 5150   0.568   4.068   6.330  2.3058 -0.8647 -0.1344
   64SAPC    HB 5151   0.469   3.916   6.363  0.1198 -1.2349 -0.9270
   64SAPC    C2 5152   0.578   4.013   6.537 -0.1107 -0.3839 -0.4486
   64SAPC    HS 5153   0.679   4.052   6.557  0.4821 -1.5894 -0.9662
   64SAPC   O21 5154   0.557   3.901   6.621 -0.9328  0.2692  0.6148
   64SAPC   C21 5155   0.625   3.907   6.740  0.9182 -0.1020  0.2057
   64SAPC   O22 5156   0.695   3.996   6.775 -0.2846  0.7229 -0.3383
   64SAPC   C22 5157   0.573   3.797   6.829 -0.3742 -0.2969 -0.6606
   64SAPC   H2R 5158   0.463   3.807   6.843 -0.3142 -1.1519  0.6089
   64SAPC   H2S 5159   0.581   3.707   6.764  1.1603  0.1372 -1.1149
   64SAPC    C3 5160   0.473   4.120   6.562 -1.1811  0.7634 -0.4123
   64SAPC    HX 5161   0.374   4.078   6.538 -0.7563 -0.4472 -0.1173
   64SAPC    HY 5162   0.493   4.203   6.491 -0.9311  0.1712 -1.0379
   64SAPC   O31 5163   0.472   4.185   6.692  0.3313  0.1489 -0.0631
   64SAPC   C31 5164   0.563   4.277   6.710 -0.1345  0.2359  0.3421
   64SAPC   O32 5165   0.648   4.315   6.629  0.4670 -0.3324 -0.6658
   64SAPC   C32 5166   0.545   4.336   6.848  0.0299 -0.3458 -0.5217
   64SAPC   H2X 5167   0.436   4.338   6.868 -0.3787  0.2020 -2.5586
   64SAPC   H2Y 5168   0.579   4.440   6.831 -1.0578  0.3272  1.1194
   64SAPC   C23 5169   0.655   3.785   6.959 -0.1949  1.1144  0.4011
   64SAPC   H3R 5170   0.644   3.882   7.012  0.0431  0.9653  0.7267
   64SAPC   H3S 5171   0.763   3.776   6.934 -0.3119 -0.3936  0.3533
   64SAPC   C24 5172   0.612   3.673   7.055 -0.2814 -0.3599  0.3442
   64SAPC   H4R 5173   0.679   3.669   7.144  0.6908 -2.4569 -0.4283
   64SAPC   H4S 5174   0.626   3.574   7.007  1.6762 -0.8907  1.8666
   64SAPC   C25 5175   0.477   3.699   7.095 -0.5135 -0.2226 -0.6903
   64SAPC   H5R 5176   0.406   3.693   7.011  2.3691  2.4415 -3.5591
   64SAPC   C26 5177   0.433   3.736   7.217  0.2487 -0.2889 -0.7679
   64SAPC   H6R 5178   0.323   3.740   7.217  0.2641  0.8559 -1.4623
   64SAPC   C27 5179   0.508   3.772   7.343 -0.4741  0.1109 -0.3415
   64SAPC   H7R 5180   0.452   3.847   7.404 -0.9159 -0.6319  0.1906
   64SAPC   H7S 5181   0.599   3.823   7.306 -0.7281 -0.0918 -1.2565
   64SAPC   C28 5182   0.539   3.650   7.421 -0.0101  0.1365 -0.0198
   64SAPC   H8R 5183   0.581   3.568   7.362 -3.6587 -1.2201 -1.0266
   64SAPC   C29 5184   0.499   3.630   7.554 -0.1357  0.3698  0.2235
   64SAPC   H9R 5185   0.503   3.527   7.592 -0.1325 -0.0586 -0.8914
   64SAPC  C210 5186   0.415   3.724   7.642 -0.5135  0.5154 -0.5526
   64SAPC  H10R 5187   0.359   3.646   7.697 -1.2787 -0.7515 -2.9778
   64SAPC  H10S 5188   0.338   3.763   7.571 -0.1884 -1.5526 -2.1384
   64SAPC  C211 5189   0.482   3.831   7.733  0.7610  0.2960  0.3257
   64SAPC  H11R 5190   0.498   3.927   7.682  0.2324 -0.4123 -1.2611
   64SAPC  C212 5191   0.526   3.806   7.857  0.7140  0.1179 -0.4767
   64SAPC  H12R 5192   0.575   3.891   7.908  0.7241  0.4393 -1.0095
   64SAPC  C213 5193   0.516   3.677   7.933  0.0992 -0.0688  0.0641
   64SAPC  H13R 5194   0.611   3.649   7.984  0.6855 -1.5031 -1.7243
   64SAPC  H13S 5195   0.505   3.590   7.866 -1.4509  0.6515 -0.6762
   64SAPC  C214 5196   0.402   3.697   8.032  0.1771 -0.0005 -0.1460
   64SAPC  H14R 5197   0.309   3.729   7.983 -0.5780 -1.4185  0.3313
   64SAPC  C215 5198   0.398   3.672   8.165 -0.2186 -0.6047 -0.4000
   64SAPC  H15R 5199   0.305   3.691   8.220  0.4828 -0.6683  0.8383
   64SAPC  C216 5200   0.510   3.610   8.258  0.2405  0.1155  0.2697
   64SAPC  H16R 5201   0.560   3.521   8.215 -0.8890 -1.4330  2.0333
   64SAPC  H16S 5202   0.466   3.572   8.352 -0.3616 -1.6514 -0.6818
   64SAPC  C217 5203   0.615   3.711   8.282 -0.5521 -0.4703 -0.5253
   64SAPC  H17R 5204   0.564   3.805   8.311 -0.3048  0.1448 -2.0101
   64SAPC  H17S 5205   0.683   3.722   8.195  3.3821 -0.8543  2.2376
   64SAPC  C218 5206   0.721   3.670   8.395  0.6378 -0.3195 -0.3955
   64SAPC  H18R 5207   0.788   3.758   8.386 -2.2625  2.0043 -0.6755
   64SAPC  H18S 5208   0.783   3.584   8.362  1.8591  0.1236  0.6433
   64SAPC  C219 5209   0.668   3.630   8.530 -0.6295  0.6965 -0.1910
   64SAPC  H19R 5210   0.756   3.623   8.598 -0.8116 -2.1969 -0.1337
   64SAPC  H19S 5211   0.631   3.526   8.530 -0.3940  0.4794 -3.8637
   64SAPC  C220 5212   0.565   3.722   8.591 -0.3832  0.4391 -0.0007
   64SAPC  H20R 5213   0.597   3.828   8.582  0.8152  0.1298  0.4070
   64SAPC  H20S 5214   0.556   3.711   8.701 -0.2522 -2.5784 -0.2193
   64SAPC  H20T 5215   0.466   3.714   8.542  0.5813 -1.6620 -1.7412
   64SAPC   C33 5216   0.618   4.255   6.962  0.2309 -0.0311 -0.0426
   64SAPC   H3X 5217   0.727   4.238   6.947  0.1346 -1.4510  0.6725
   64SAPC   H3Y 5218   0.561   4.160   6.974 -1.3706  1.0775  2.0164
   64SAPC   C34 5219   0.596   4.340   7.085 -0.1715 -0.0407 -0.7536
   64SAPC   H4X 5220   0.489   4.339   7.112 -0.3143  2.6110 -0.9468
   64SAPC   H4Y 5221   0.633   4.441   7.055  0.9937 -1.1472 -3.3112
   64SAPC   C35 5222   0.679   4.282   7.204  0.2486  0.3820 -0.6338
   64SAPC   H5X 5223   0.689   4.365   7.277  0.7694 -0.0063 -0.2533
   64SAPC   H5Y 5224   0.776   4.228   7.194 -0.2643 -1.2729  2.2992
   64SAPC   C36 5225   0.598   4.173   7.281  0.3322 -0.1952  0.9387
   64SAPC   H6X 5226   0.624   4.079   7.228  0.6924 -0.3654  1.4142
   64SAPC   H6Y 5227   0.488   4.180   7.265  0.5262 -0.4527 -0.6615
   64SAPC   C37 5228   0.633   4.156   7.429 -0.6093  0.2661  0.4833
   64SAPC   H7X 5229   0.553   4.100   7.482 -1.9101  0.3223 -1.2961
   64SAPC   H7Y 5230   0.641   4.255   7.479  0.2505 -0.4192  1.7546
   64SAPC   C38 5231   0.752   4.065   7.466  0.5488 -0.3308  0.8231
   64SAPC   H8X 5232   0.819   4.065   7.378  1.1619  0.8346  1.2745
   64SAPC   H8Y 5233   0.725   3.958   7.481 -2.4127  0.2377  0.1763
   64SAPC   C39 5234   0.831   4.113   7.584 -0.5293 -0.0127 -0.4741
   64SAPC   H9X 5235   0.866   4.219   7.579  1.1170 -0.4694  0.4503
   64SAPC   H9Y 5236   0.917   4.044   7.599 -0.6672  0.0559  0.7835
   64SAPC  C310 5237   0.760   4.093   7.717 -0.0318 -0.1512  0.7096
   64SAPC  H10X 5238   0.716   3.991   7.716 -0.2063 -0.1090 -1.4931
   64SAPC  H10Y 5239   0.677   4.167   7.723 -1.0552 -1.1424 -0.4471
   64SAPC  C311 5240   0.853   4.107   7.832 -0.9165 -0.4511  0.1464
   64SAPC  H11X 5241   0.890   4.212   7.831 -2.8973  0.2742  0.2333
   64SAPC  H11Y 5242   0.943   4.043   7.819  0.8380  1.5570  1.6356
   64SAPC  C312 5243   0.789   4.081   7.968 -0.2629 -0.1926 -0.3563
   64SAPC  H12X 5244   0.738   3.983   7.980 -0.7955  0.4002  3.6319
   64SAPC  H12Y 5245   0.713   4.161   7.983  0.3204  0.2449  0.3258
   64SAPC  C313 5246   0.902   4.093   8.071 -0.1377 -0.0872 -0.0569
   64SAPC  H13X 5247   0.941   4.195   8.051 -0.8230  0.2678  0.3736
   64SAPC  H13Y 5248   0.987   4.026   8.046  0.9631  1.8098 -1.7276
   64SAPC  C314 5249   0.854   4.080   8.216  0.5371  0.9258  0.2755
   64SAPC  H14X 5250   0.819   3.976   8.231  0.1162  1.3610  2.6447
   64SAPC  H14Y 5251   0.776   4.153   8.244  1.0972  1.2508  1.0179
   64SAPC  C315 5252   0.962   4.087   8.319  0.1757 -0.0517 -0.1072
   64SAPC  H15X 5253   1.005   4.189   8.311 -2.6746  1.0899 -4.0996
   64SAPC  H15Y 5254   1.040   4.016   8.285  0.1103 -1.1398  1.8784
   64SAPC  C316 5255   0.928   4.054   8.463 -0.5121  0.4558  0.0084
   64SAPC  H16X 5256   0.868   3.961   8.468  0.4627 -0.4317 -2.7624
   64SAPC  H16Y 5257   0.871   4.139   8.506  0.9189  1.6761 -0.4430
   64SAPC  C317 5258   1.048   4.030   8.558 -0.3922  0.1961 -0.4385
   64SAPC  H17X 5259   1.134   4.101   8.564 -1.1679  1.2528 -1.2220
   64SAPC  H17Y 5260   1.097   3.934   8.535 -0.1591  0.2558 -0.1971
   64SAPC  C318 5261   0.987   4.018   8.707 -0.3373 -0.0876 -0.1707
   64SAPC  H18X 5262   0.912   4.094   8.741  1.2039  0.4209  2.3825
   64SAPC  H18Y 5263   1.069   4.018   8.782 -1.2109 -2.0117  0.8587
   64SAPC  H18Z 5264   0.940   3.918   8.722 -0.0166  0.0426  1.9878
   65SAPC     N 5265   6.193   5.322   5.971  0.3717  0.0249  0.1319
   65SAPC   C12 5266   6.302   5.276   5.884 -0.2427  0.6676 -0.0884
   65SAPC  H12A 5267   6.394   5.325   5.914 -0.4187  0.9644 -0.0228
   65SAPC  H12B 5268   6.289   5.324   5.788  1.2315  0.5058 -0.3905
   65SAPC   C13 5269   6.160   5.225   6.091 -0.4617 -0.2825  0.6939
   65SAPC  H13A 5270   6.216   5.258   6.177  1.1798 -0.3098 -0.3212
   65SAPC  H13B 5271   6.055   5.215   6.113 -0.1411 -3.3583  1.2257
   65SAPC  H13C 5272   6.195   5.127   6.063 -0.1225 -0.0701  0.3574
   65SAPC   C14 5273   6.214   5.461   6.027 -0.5281  1.0279 -0.7421
   65SAPC  H14A 5274   6.203   5.539   5.954  1.0006  0.4406 -1.6580
   65SAPC  H14B 5275   6.164   5.489   6.118  1.6996  1.4181  0.4334
   65SAPC  H14C 5276   6.319   5.464   6.050 -0.3531 -1.3570 -0.9754
   65SAPC   C15 5277   6.069   5.327   5.875 -0.6877 -0.2594 -0.4778
   65SAPC  H15A 5278   6.001   5.406   5.905 -1.1184 -1.3681  1.6746
   65SAPC  H15B 5279   6.096   5.350   5.774  0.2035 -1.5040 -0.5416
   65SAPC  H15C 5280   6.027   5.228   5.881  2.6194 -1.7813 -0.5306
   65SAPC   C11 5281   6.325   5.125   5.868 -0.4852  0.3746  0.7358
   65SAPC  H11A 5282   6.394   5.105   5.784 -2.3228 -2.5446 -0.2098
   65SAPC  H11B 5283   6.232   5.073   5.838 -0.6772  0.9475  0.3261
   65SAPC     P 5284   6.521   5.057   6.035 -0.1135  0.3820 -0.2929
   65SAPC   O13 5285   6.600   4.965   5.955 -0.3155 -0.0698  0.0764
   65SAPC   O14 5286   6.578   5.196   6.045  0.2974  0.0970  0.0450
   65SAPC   O12 5287   6.372   5.061   5.984  0.1817  0.1050 -0.1640
   65SAPC   O11 5288   6.504   4.996   6.183  0.0425  0.0357 -0.7123
   65SAPC    C1 5289   6.414   4.891   6.206  0.0380 -0.0877  0.2153
   65SAPC    HA 5290   6.315   4.941   6.202  0.7701  2.0146  3.9864
   65SAPC    HB 5291   6.416   4.810   6.130 -1.8983  0.0110  0.0100
   65SAPC    C2 5292   6.434   4.816   6.336 -0.5657 -0.0307  0.4481
   65SAPC    HS 5293   6.350   4.749   6.363 -1.3601  0.3274 -1.0092
   65SAPC   O21 5294   6.449   4.920   6.438  0.3219  0.1003  0.2004
   65SAPC   C21 5295   6.338   4.983   6.472  0.3012  0.2342  0.1699
   65SAPC   O22 5296   6.228   4.962   6.423  0.8942  0.4735  0.6586
   65SAPC   C22 5297   6.357   5.088   6.580  0.0725  0.7099  0.0352
   65SAPC   H2R 5298   6.431   5.044   6.651 -2.4456 -2.2426  1.0141
   65SAPC   H2S 5299   6.392   5.179   6.526  0.5537  0.4902 -0.0339
   65SAPC    C3 5300   6.567   4.731   6.346  0.7632  0.3246 -0.0136
   65SAPC    HX 5301   6.647   4.788   6.295 -1.4235  2.3237 -1.4205
   65SAPC    HY 5302   6.556   4.637   6.287 -1.6233  0.2754  0.3978
   65SAPC   O31 5303   6.595   4.690   6.477 -0.6576 -0.0268 -0.3012
   65SAPC   C31 5304   6.671   4.768   6.551 -0.9581 -0.0824  0.7119
   65SAPC   O32 5305   6.724   4.870   6.509  0.1315  0.1285 -0.6639
   65SAPC   C32 5306   6.691   4.715   6.692 -0.0785  0.2535  0.8362
   65SAPC   H2X 5307   6.727   4.800   6.753  0.2891  0.4857  0.2980
   65SAPC   H2Y 5308   6.769   4.637   6.678 -1.0174 -1.1079  2.7557
   65SAPC   C23 5309   6.236   5.115   6.670  0.3607  0.1256 -0.6554
   65SAPC   H3R 5310   6.197   5.027   6.726  0.2053  0.8376  0.3750
   65SAPC   H3S 5311   6.160   5.157   6.602 -0.1880 -1.1112 -0.8281
   65SAPC   C24 5312   6.261   5.221   6.777 -0.3168 -0.4123 -0.1736
   65SAPC   H4R 5313   6.301   5.320   6.744 -0.4074  0.0261  0.9915
   65SAPC   H4S 5314   6.333   5.176   6.848 -1.2853 -2.5783 -0.4935
   65SAPC   C25 5315   6.131   5.241   6.847 -0.3021  1.3611 -0.4155
   65SAPC   H5R 5316   6.051   5.283   6.785 -0.4815  1.6045 -0.0240
   65SAPC   C26 5317   6.103   5.223   6.974  0.3745  0.0515 -0.6997
   65SAPC   H6R 5318   6.002   5.251   7.005 -0.5357 -0.4620 -3.0277
   65SAPC   C27 5319   6.195   5.185   7.088 -0.0417  0.1778 -0.3520
   65SAPC   H7R 5320   6.257   5.275   7.111 -2.4963  1.8120  0.3343
   65SAPC   H7S 5321   6.266   5.109   7.051  0.0907  0.2745 -0.2956
   65SAPC   C28 5322   6.118   5.127   7.202  0.6691 -0.3299 -0.6202
   65SAPC   H8R 5323   6.009   5.137   7.202  0.4931 -1.9174 -0.2178
   65SAPC   C29 5324   6.168   5.074   7.315  0.4587 -0.3351 -0.5720
   65SAPC   H9R 5325   6.101   5.047   7.398  0.0864  2.0711 -0.0003
   65SAPC  C210 5326   6.315   5.057   7.341 -0.1371 -0.2765 -0.3873
   65SAPC  H10R 5327   6.373   5.032   7.249  2.0096  0.4534  0.6959
   65SAPC  H10S 5328   6.323   4.972   7.412 -0.7064  0.7825  0.9854
   65SAPC  C211 5329   6.387   5.178   7.399 -0.4236 -0.9119  0.0385
   65SAPC  H11R 5330   6.437   5.242   7.324  1.6127  0.1659  2.1626
   65SAPC  C212 5331   6.410   5.215   7.528 -0.5906  0.3867 -0.1102
   65SAPC  H12R 5332   6.486   5.293   7.548  0.2172 -0.2060 -0.7909
   65SAPC  C213 5333   6.354   5.147   7.656 -0.6897  0.1885  0.1246
   65SAPC  H13R 5334   6.253   5.108   7.633 -0.1873 -1.5820  0.7235
   65SAPC  H13S 5335   6.345   5.215   7.743  0.1458 -1.6516  1.7327
   65SAPC  C214 5336   6.445   5.028   7.692 -0.1984  0.1292  0.3152
   65SAPC  H14R 5337   6.487   4.979   7.603  0.1280  0.0599  0.5051
   65SAPC  C215 5338   6.471   4.976   7.810 -0.4342  0.2549  0.0408
   65SAPC  H15R 5339   6.542   4.894   7.829 -0.4846  0.6343  2.1737
   65SAPC  C216 5340   6.423   5.021   7.938 -0.1992  0.2281  0.0711
   65SAPC  H16R 5341   6.381   5.123   7.940  0.5975  0.5561  0.9518
   65SAPC  H16S 5342   6.513   5.024   8.004 -0.0681  0.7929 -0.1321
   65SAPC  C217 5343   6.337   4.917   8.024  0.5306  0.1092 -0.3001
   65SAPC  H17R 5344   6.244   4.906   7.965  0.8027  0.9140 -0.8879
   65SAPC  H17S 5345   6.297   4.957   8.120 -0.9265  2.4294 -1.7892
   65SAPC  C218 5346   6.402   4.779   8.043  0.1239  0.0085 -0.3026
   65SAPC  H18R 5347   6.497   4.775   8.099  0.5268  1.3002 -0.8576
   65SAPC  H18S 5348   6.404   4.726   7.945  1.0275 -0.2052 -0.1743
   65SAPC  C219 5349   6.302   4.691   8.116  0.1121  0.1465 -0.3124
   65SAPC  H19R 5350   6.206   4.709   8.063  0.0143 -1.1733 -0.6276
   65SAPC  H19S 5351   6.281   4.722   8.221  0.1912 -1.0013  0.0538
   65SAPC  C220 5352   6.338   4.542   8.117 -0.6287 -0.1306  0.0235
   65SAPC  H20R 5353   6.411   4.513   8.196  0.4271 -3.0042 -1.8415
   65SAPC  H20S 5354   6.398   4.522   8.026  1.4765 -0.3039  1.3926
   65SAPC  H20T 5355   6.253   4.470   8.119 -1.6650  1.0600  0.0299
   65SAPC   C33 5356   6.568   4.646   6.757 -0.0171 -0.2207 -0.1074
   65SAPC   H3X 5357   6.609   4.557   6.809  0.2014  0.9498  1.8058
   65SAPC   H3Y 5358   6.489   4.606   6.689  0.5751 -1.3939 -0.1255
   65SAPC   C34 5359   6.524   4.728   6.875 -0.6742  0.0651 -0.0019
   65SAPC   H4X 5360   6.511   4.833   6.842  1.2112  0.1073 -0.7110
   65SAPC   H4Y 5361   6.595   4.720   6.960 -1.5669 -1.6227  0.6385
   65SAPC   C35 5362   6.400   4.677   6.943  0.4144 -0.3843  1.0767
   65SAPC   H5X 5363   6.406   4.568   6.965 -4.9492 -1.0310  0.7055
   65SAPC   H5Y 5364   6.316   4.669   6.870  1.4113 -3.6423  0.0975
   65SAPC   C36 5365   6.358   4.767   7.053  0.6901 -0.3819  0.2756
   65SAPC   H6X 5366   6.248   4.773   7.058  0.7589  1.0923  0.3747
   65SAPC   H6Y 5367   6.381   4.873   7.030 -0.0821  0.0185  1.3029
   65SAPC   C37 5368   6.399   4.725   7.192  0.6689 -1.0543  0.3043
   65SAPC   H7X 5369   6.364   4.623   7.218  0.1713 -1.0283 -0.2457
   65SAPC   H7Y 5370   6.339   4.788   7.262 -0.5248 -3.3568  1.4565
   65SAPC   C38 5371   6.539   4.747   7.238 -0.6731  0.6809 -0.3656
   65SAPC   H8X 5372   6.568   4.854   7.238  2.1871  0.1559  3.7337
   65SAPC   H8Y 5373   6.608   4.682   7.180  2.0345  0.6702  2.5441
   65SAPC   C39 5374   6.576   4.725   7.387  0.0919 -0.3269 -0.1870
   65SAPC   H9X 5375   6.503   4.785   7.446 -0.8245  0.8931 -2.4298
   65SAPC   H9Y 5376   6.674   4.769   7.416 -0.2630 -0.4038  1.1900
   65SAPC  C310 5377   6.569   4.580   7.426  0.6965 -0.0780  0.0839
   65SAPC  H10X 5378   6.618   4.515   7.351  1.2881 -0.6763  0.9692
   65SAPC  H10Y 5379   6.461   4.563   7.446  1.2037 -1.5524  1.7859
   65SAPC  C311 5380   6.632   4.545   7.563 -0.3045  0.5916  0.1001
   65SAPC  H11X 5381   6.733   4.582   7.535 -0.1800 -0.8096 -1.4867
   65SAPC  H11Y 5382   6.635   4.435   7.575  0.9192  0.6703  0.6246
   65SAPC  C312 5383   6.572   4.614   7.677  0.0791 -0.5741 -0.7062
   65SAPC  H12X 5384   6.472   4.569   7.695 -0.1216 -0.1545 -0.7415
   65SAPC  H12Y 5385   6.559   4.722   7.655  1.3037 -0.1378  0.5670
   65SAPC  C313 5386   6.644   4.604   7.810 -0.0793 -0.2942 -0.2452
   65SAPC  H13X 5387   6.592   4.654   7.894 -2.3366 -3.1816  0.2561
   65SAPC  H13Y 5388   6.742   4.653   7.797 -0.2279  0.4764  1.2910
   65SAPC  C314 5389   6.659   4.458   7.859 -0.2886  0.5734  0.0108
   65SAPC  H14X 5390   6.722   4.403   7.786  0.1062  1.2383 -0.1554
   65SAPC  H14Y 5391   6.558   4.411   7.866 -0.6432  1.5484  2.3790
   65SAPC  C315 5392   6.712   4.448   8.003  0.1319  0.4719 -0.1269
   65SAPC  H15X 5393   6.638   4.500   8.067 -1.3985  0.2727 -1.6488
   65SAPC  H15Y 5394   6.802   4.513   8.008  0.7777 -0.4698  0.9559
   65SAPC  C316 5395   6.727   4.312   8.069  0.3249 -0.1350  0.5159
   65SAPC  H16X 5396   6.822   4.267   8.035  0.6073  0.1451  0.9274
   65SAPC  H16Y 5397   6.650   4.241   8.031  0.8711 -0.7747  0.5956
   65SAPC  C317 5398   6.726   4.314   8.223  0.1862 -0.1839 -0.4788
   65SAPC  H17X 5399   6.634   4.369   8.252 -0.2983 -0.5715 -1.2626
   65SAPC  H17Y 5400   6.806   4.386   8.249 -1.9656  1.6272  1.7021
   65SAPC  C318 5401   6.742   4.176   8.282  0.1992  0.5068 -0.9227
   65SAPC  H18X 5402   6.839   4.128   8.254  1.0196  2.9536 -2.5855
   65SAPC  H18Y 5403   6.655   4.108   8.272  0.0050  0.6208 -0.0526
   65SAPC  H18Z 5404   6.758   4.185   8.391  2.6855  0.6909 -1.2511
   66SAPC     N 5405   3.214   5.302   5.879  0.1424  0.0230 -0.0308
   66SAPC   C12 5406   3.365   5.327   5.873 -0.2977  0.6023  0.7462
   66SAPC  H12A 5407   3.380   5.364   5.773  0.9236  0.0447  0.7073
   66SAPC  H12B 5408   3.419   5.234   5.861  0.2009  1.1571 -1.8770
   66SAPC   C13 5409   3.155   5.433   5.833  0.2610 -0.0059 -0.4790
   66SAPC  H13A 5410   3.167   5.443   5.726 -1.6702  1.9267 -0.5732
   66SAPC  H13B 5411   3.050   5.435   5.857  0.4331 -0.6354  0.3753
   66SAPC  H13C 5412   3.199   5.517   5.884 -0.1593 -1.1889  1.9505
   66SAPC   C14 5413   3.161   5.195   5.784 -0.1264  0.8649 -0.2291
   66SAPC  H14A 5414   3.183   5.095   5.819 -1.1105  0.1427 -1.5472
   66SAPC  H14B 5415   3.053   5.191   5.779 -0.0870  0.3214 -4.3124
   66SAPC  H14C 5416   3.202   5.201   5.684  0.6650  0.5247  0.0749
   66SAPC   C15 5417   3.170   5.259   6.016 -0.7521 -0.3258  0.1388
   66SAPC  H15A 5418   3.216   5.164   6.040  1.0973  0.8395  1.4537
   66SAPC  H15B 5419   3.212   5.325   6.090 -0.1775 -2.6796  2.0609
   66SAPC  H15C 5420   3.062   5.255   6.014 -0.9138  2.4674  0.2293
   66SAPC   C11 5421   3.428   5.427   5.972  0.4621  0.1192  1.2329
   66SAPC  H11A 5422   3.366   5.519   5.982  0.4217  0.3683 -0.8282
   66SAPC  H11B 5423   3.525   5.463   5.930 -1.0138  1.2576 -1.4643
   66SAPC     P 5424   3.409   5.419   6.237  0.1422 -0.5917  0.0616
   66SAPC   O13 5425   3.478   5.548   6.275 -0.5686 -0.2816  0.0211
   66SAPC   O14 5426   3.258   5.420   6.243 -0.5181 -0.2269  0.0603
   66SAPC   O12 5427   3.449   5.364   6.099 -0.5957  0.6386  0.9911
   66SAPC   O11 5428   3.467   5.301   6.328  0.0093  0.0743 -0.3904
   66SAPC    C1 5429   3.413   5.174   6.332  0.5961  0.0608 -1.3324
   66SAPC    HA 5430   3.302   5.174   6.338  0.6760  1.7288  2.4944
   66SAPC    HB 5431   3.442   5.118   6.240 -0.8055 -1.0080 -1.1540
   66SAPC    C2 5432   3.454   5.115   6.469  0.8562  0.4427  0.6824
   66SAPC    HS 5433   3.422   5.009   6.473  0.1447  0.5542 -1.2295
   66SAPC   O21 5434   3.394   5.191   6.574  0.5936  0.0348  0.1722
   66SAPC   C21 5435   3.273   5.158   6.612  0.4305  0.6168  0.3363
   66SAPC   O22 5436   3.210   5.058   6.570  0.1178  0.2687  0.4932
   66SAPC   C22 5437   3.220   5.271   6.706  0.7884  0.2826  0.1760
   66SAPC   H2R 5438   3.221   5.366   6.647  0.5597  0.5606  0.6146
   66SAPC   H2S 5439   3.114   5.251   6.732  0.6471  0.1856 -0.4610
   66SAPC    C3 5440   3.608   5.096   6.480 -0.7705 -0.3807  0.2091
   66SAPC    HX 5441   3.661   5.194   6.477 -0.8076 -0.3649 -0.0085
   66SAPC    HY 5442   3.638   5.035   6.392 -0.7862 -1.7432  1.1189
   66SAPC   O31 5443   3.633   5.016   6.597  0.0707 -0.1437  0.1023
   66SAPC   C31 5444   3.735   5.054   6.673  0.3005 -0.6705  0.3382
   66SAPC   O32 5445   3.803   5.151   6.643  0.1353 -0.0781 -0.3602
   66SAPC   C32 5446   3.761   4.963   6.787 -0.3284 -0.6899 -0.3844
   66SAPC   H2X 5447   3.860   4.912   6.781  0.2617  0.3436  0.2855
   66SAPC   H2Y 5448   3.695   4.874   6.801 -0.3877 -0.4257  1.3040
   66SAPC   C23 5449   3.309   5.281   6.831  0.5124 -0.6153  0.5708
   66SAPC   H3R 5450   3.414   5.304   6.803  1.1464  1.6927  4.1738
   66SAPC   H3S 5451   3.304   5.182   6.881 -2.6325 -0.6081  0.4448
   66SAPC   C24 5452   3.281   5.394   6.938 -0.1640 -0.2545  0.1316
   66SAPC   H4R 5453   3.279   5.493   6.889 -2.0659 -0.3043  0.0482
   66SAPC   H4S 5454   3.362   5.388   7.014 -1.4989 -2.3074  1.5208
   66SAPC   C25 5455   3.148   5.367   7.002  0.0581 -0.6039  0.4624
   66SAPC   H5R 5456   3.062   5.343   6.938  1.2155 -2.3918 -0.5186
   66SAPC   C26 5457   3.119   5.395   7.133 -0.4035 -0.1241 -0.1056
   66SAPC   H6R 5458   3.013   5.386   7.161 -0.0219  0.5080  1.6153
   66SAPC   C27 5459   3.217   5.454   7.238 -0.1186  0.1406 -0.5024
   66SAPC   H7R 5460   3.318   5.463   7.193  0.0381 -1.5177 -0.5558
   66SAPC   H7S 5461   3.214   5.391   7.330 -1.5682  1.1596  0.1943
   66SAPC   C28 5462   3.184   5.598   7.274 -1.0136  1.0920 -0.5313
   66SAPC   H8R 5463   3.187   5.666   7.188  0.4159  0.7369 -0.7972
   66SAPC   C29 5464   3.131   5.647   7.390 -0.8097  0.3341 -0.5765
   66SAPC   H9R 5465   3.122   5.756   7.399  1.6766  0.6573 -1.1548
   66SAPC  C210 5466   3.093   5.565   7.513 -0.1520 -0.7832 -0.1294
   66SAPC  H10R 5467   3.143   5.623   7.594 -0.9498 -1.1515  0.6411
   66SAPC  H10S 5468   3.142   5.466   7.515 -0.9964 -1.2472  2.9815
   66SAPC  C211 5469   2.942   5.550   7.538  0.3417 -0.3947  0.2136
   66SAPC  H11R 5470   2.870   5.538   7.456  1.0613 -2.4399 -0.1950
   66SAPC  C212 5471   2.885   5.554   7.661  1.0197 -0.1988  1.2836
   66SAPC  H12R 5472   2.777   5.535   7.668  0.8263 -0.8456 -1.9365
   66SAPC  C213 5473   2.969   5.593   7.783  0.0688 -0.3682 -0.4241
   66SAPC  H13R 5474   3.010   5.696   7.776 -0.6165  0.0053  0.6685
   66SAPC  H13S 5475   3.059   5.528   7.788  0.8214  0.6926  0.4799
   66SAPC  C214 5476   2.892   5.576   7.911  1.2097 -0.2962 -0.4886
   66SAPC  H14R 5477   2.783   5.595   7.910  0.5453 -2.8509  2.6438
   66SAPC  C215 5478   2.942   5.543   8.033  0.1017 -0.3225  0.1018
   66SAPC  H15R 5479   2.870   5.546   8.116 -0.1530  1.5173 -0.1522
   66SAPC  C216 5480   3.090   5.519   8.067  1.3612  0.5778 -0.4595
   66SAPC  H16R 5481   3.150   5.591   8.008 -1.0074  1.7388 -1.5908
   66SAPC  H16S 5482   3.107   5.413   8.040 -3.0217 -0.7407  1.0830
   66SAPC  C217 5483   3.111   5.542   8.217  0.2874 -0.2749 -1.0296
   66SAPC  H17R 5484   3.052   5.471   8.279  0.7129  0.0696 -0.2016
   66SAPC  H17S 5485   3.072   5.643   8.240  1.6234 -0.0274  0.3774
   66SAPC  C218 5486   3.259   5.524   8.261 -0.2282 -1.2503 -0.2955
   66SAPC  H18R 5487   3.317   5.596   8.200 -1.0102 -1.1411 -0.9319
   66SAPC  H18S 5488   3.297   5.421   8.244 -2.3203 -2.4488  1.7314
   66SAPC  C219 5489   3.271   5.568   8.415  0.4840 -0.1179  0.3109
   66SAPC  H19R 5490   3.228   5.488   8.480  0.2953 -0.1270  0.1766
   66SAPC  H19S 5491   3.213   5.662   8.422  0.6000 -0.1320  1.6552
   66SAPC  C220 5492   3.416   5.595   8.461 -0.8080  0.0253  0.0884
   66SAPC  H20R 5493   3.422   5.631   8.566 -0.9037  1.5107 -0.3967
   66SAPC  H20S 5494   3.459   5.665   8.387 -0.9047  0.6462  0.6137
   66SAPC  H20T 5495   3.476   5.502   8.453  0.5554  1.0460 -2.6244
   66SAPC   C33 5496   3.741   5.042   6.915 -0.0964  0.2664  0.1849
   66SAPC   H3X 5497   3.791   5.140   6.932 -1.4732  0.8672  1.0024
   66SAPC   H3Y 5498   3.771   4.976   7.000 -1.3356  0.2372  0.6192
   66SAPC   C34 5499   3.593   5.080   6.938 -0.7290 -0.0468  0.2990
   66SAPC   H4X 5500   3.540   4.982   6.931  0.1423 -0.6218  1.4074
   66SAPC   H4Y 5501   3.557   5.144   6.855 -3.5005 -0.7458  0.8654
   66SAPC   C35 5502   3.561   5.151   7.070 -0.1760  0.1964 -0.2495
   66SAPC   H5X 5503   3.451   5.165   7.063 -0.2976  0.2548  1.4451
   66SAPC   H5Y 5504   3.629   5.238   7.060  0.8726 -0.7259 -1.4499
   66SAPC   C36 5505   3.593   5.069   7.193 -0.5719  0.2876 -0.2830
   66SAPC   H6X 5506   3.696   5.029   7.182 -1.2439 -1.3205 -0.9556
   66SAPC   H6Y 5507   3.530   4.981   7.216 -0.3669  0.4014  0.7845
   66SAPC   C37 5508   3.574   5.151   7.317 -0.1901  0.2587  0.1391
   66SAPC   H7X 5509   3.465   5.153   7.335 -0.4072 -1.4227 -0.7824
   66SAPC   H7Y 5510   3.620   5.249   7.292  1.5822 -0.2257  1.3642
   66SAPC   C38 5511   3.648   5.084   7.435 -0.5009 -0.2026  0.5816
   66SAPC   H8X 5512   3.757   5.078   7.417 -0.1481  0.5941  2.2597
   66SAPC   H8Y 5513   3.606   4.982   7.444 -1.5786  0.4134  3.4601
   66SAPC   C39 5514   3.637   5.164   7.565 -0.5592  0.0930  0.4624
   66SAPC   H9X 5515   3.532   5.162   7.601 -1.0866  2.0696 -0.8248
   66SAPC   H9Y 5516   3.657   5.272   7.547  1.2496 -0.2913 -0.0521
   66SAPC  C310 5517   3.725   5.106   7.681  0.4776  0.0403  0.5914
   66SAPC  H10X 5518   3.829   5.118   7.644  1.2334  0.4213  2.7204
   66SAPC  H10Y 5519   3.700   4.998   7.692 -1.0916  0.2560 -0.4412
   66SAPC  C311 5520   3.687   5.181   7.814  0.4937  0.1925 -0.0339
   66SAPC  H11X 5521   3.577   5.197   7.817  0.6108  1.0130  1.4811
   66SAPC  H11Y 5522   3.751   5.272   7.817 -1.3780  1.5544  0.2081
   66SAPC  C312 5523   3.722   5.096   7.946 -0.6175 -0.3410  0.3010
   66SAPC  H12X 5524   3.703   5.161   8.033  1.5242  2.3307 -1.0883
   66SAPC  H12Y 5525   3.824   5.052   7.944 -1.0109 -1.3757  1.3628
   66SAPC  C313 5526   3.633   4.969   7.958  0.1173 -0.6810  0.0548
   66SAPC  H13X 5527   3.675   4.898   7.884  1.8685  1.4104 -1.0867
   66SAPC  H13Y 5528   3.524   4.994   7.950  0.7193  2.5998  0.5485
   66SAPC  C314 5529   3.635   4.891   8.096 -1.0190  0.2741 -0.8145
   66SAPC  H14X 5530   3.549   4.822   8.107 -1.2860  0.8162  0.7127
   66SAPC  H14Y 5531   3.626   4.972   8.171  0.9062  0.5495 -0.8129
   66SAPC  C315 5532   3.767   4.816   8.110 -0.1943 -0.2458  0.3322
   66SAPC  H15X 5533   3.843   4.897   8.120 -0.5645  0.1086  0.3076
   66SAPC  H15Y 5534   3.792   4.759   8.018  1.1099  2.9102 -1.4439
   66SAPC  C316 5535   3.757   4.708   8.225  0.1686  0.1331  0.5395
   66SAPC  H16X 5536   3.835   4.633   8.203 -0.5895 -0.3504 -0.5775
   66SAPC  H16Y 5537   3.665   4.650   8.203  0.5633  0.0156 -0.9065
   66SAPC  C317 5538   3.776   4.762   8.363 -0.0225  0.0094  0.3275
   66SAPC  H17X 5539   3.707   4.848   8.378 -0.6891 -0.7796  2.0930
   66SAPC  H17Y 5540   3.883   4.791   8.364  0.2627 -0.7875 -1.7468
   66SAPC  C318 5541   3.746   4.647   8.467  0.1439 -0.6123 -0.3926
   66SAPC  H18X 5542   3.759   4.688   8.569 -1.2099  2.3484 -1.2853
   66SAPC  H18Y 5543   3.822   4.567   8.452  0.5764  0.0284 -1.8476
   66SAPC  H18Z 5544   3.641   4.613   8.454  0.4892 -1.0546 -2.3792
   67SAPC     N 5545   0.775   6.340   6.548  0.8661  0.6011  0.5223
   67SAPC   C12 5546   0.656   6.346   6.648 -0.1251  0.1437 -0.4782
   67SAPC  H12A 5547   0.665   6.267   6.720 -1.9407  0.4453  0.1198
   67SAPC  H12B 5548   0.562   6.319   6.604 -0.6014  0.9824  0.0024
   67SAPC   C13 5549   0.895   6.355   6.622 -0.4742 -0.5403  0.1440
   67SAPC  H13A 5550   0.981   6.339   6.559 -2.5290  2.2580 -3.8412
   67SAPC  H13B 5551   0.917   6.450   6.668 -1.1378 -0.8117  1.0565
   67SAPC  H13C 5552   0.922   6.285   6.699  2.0702  2.8637  2.6805
   67SAPC   C14 5553   0.760   6.204   6.489 -0.1543 -0.2165 -0.9829
   67SAPC  H14A 5554   0.673   6.205   6.426 -2.4017  1.7426  1.8995
   67SAPC  H14B 5555   0.854   6.205   6.436  0.9096  0.7620  0.8231
   67SAPC  H14C 5556   0.747   6.127   6.564 -2.4131  0.6647 -0.3839
   67SAPC   C15 5557   0.771   6.453   6.451 -0.2857 -0.3095  0.4645
   67SAPC  H15A 5558   0.849   6.450   6.376 -1.8115  1.4509 -1.3475
   67SAPC  H15B 5559   0.676   6.451   6.399  0.8927 -0.0152 -1.8331
   67SAPC  H15C 5560   0.768   6.546   6.506 -0.1236 -0.2064  0.2986
   67SAPC   C11 5561   0.643   6.489   6.712  0.2189 -0.2612  0.1562
   67SAPC  H11A 5562   0.735   6.549   6.726  0.4251 -0.3957 -0.5658
   67SAPC  H11B 5563   0.612   6.472   6.817  2.5030  1.6162  1.2362
   67SAPC     P 5564   0.523   6.719   6.651 -0.5122  0.4553  0.1149
   67SAPC   O13 5565   0.634   6.777   6.570  0.2381  0.3590 -0.2394
   67SAPC   O14 5566   0.385   6.752   6.619  0.0764 -0.1873 -0.6698
   67SAPC   O12 5567   0.536   6.558   6.645 -0.2181  0.0467 -0.0994
   67SAPC   O11 5568   0.555   6.747   6.808 -0.2520 -0.3409 -0.1651
   67SAPC    C1 5569   0.675   6.816   6.849 -0.3989 -0.3267  0.3815
   67SAPC    HA 5570   0.758   6.742   6.852  0.1020  0.1336 -1.1665
   67SAPC    HB 5571   0.694   6.904   6.785 -1.9585 -0.5115 -0.3881
   67SAPC    C2 5572   0.666   6.873   6.996 -0.2464  0.2591 -0.5407
   67SAPC    HS 5573   0.769   6.904   7.026 -0.3574  0.6400 -0.5482
   67SAPC   O21 5574   0.615   6.766   7.087 -0.3720  0.7560  0.4428
   67SAPC   C21 5575   0.692   6.663   7.094 -0.2718 -0.4660 -0.9491
   67SAPC   O22 5576   0.810   6.655   7.059  0.1626  0.2983  0.6275
   67SAPC   C22 5577   0.621   6.548   7.177 -0.0205  0.1236  0.0733
   67SAPC   H2R 5578   0.522   6.579   7.217 -0.7796 -1.8297 -0.1898
   67SAPC   H2S 5579   0.600   6.461   7.111  0.4059  0.2515 -0.2330
   67SAPC    C3 5580   0.574   6.993   7.008 -0.3566  0.1598  0.5962
   67SAPC    HX 5581   0.477   6.964   6.962 -0.0940 -0.1064  0.2078
   67SAPC    HY 5582   0.631   7.075   6.958  1.7980 -1.7280 -0.2552
   67SAPC   O31 5583   0.551   7.037   7.139 -0.5756  0.0705 -0.1610
   67SAPC   C31 5584   0.439   7.000   7.206  0.3459 -0.3367  0.1898
   67SAPC   O32 5585   0.356   6.925   7.159  0.2752 -0.2537  0.6544
   67SAPC   C32 5586   0.450   7.060   7.350  0.4043 -0.0650  0.3426
   67SAPC   H2X 5587   0.438   7.168   7.330  1.8759  0.4519  1.9504
   67SAPC   H2Y 5588   0.555   7.059   7.387  0.7367  0.0594 -0.5905
   67SAPC   C23 5589   0.722   6.506   7.296  0.2288 -0.0344 -0.0727
   67SAPC   H3R 5590   0.715   6.583   7.376  0.8935  0.4018 -0.4286
   67SAPC   H3S 5591   0.828   6.497   7.263  0.1063  1.5506 -0.9981
   67SAPC   C24 5592   0.690   6.366   7.353  0.0887  0.0155 -0.3664
   67SAPC   H4R 5593   0.762   6.331   7.430 -0.9356 -0.3728  0.4355
   67SAPC   H4S 5594   0.712   6.290   7.275  2.1761  0.0886  0.1007
   67SAPC   C25 5595   0.550   6.353   7.396 -0.2063 -0.5736 -0.5501
   67SAPC   H5R 5596   0.478   6.385   7.319  1.1078  1.0601 -1.1678
   67SAPC   C26 5597   0.509   6.301   7.517  0.4575 -0.0945  0.6827
   67SAPC   H6R 5598   0.402   6.299   7.542  0.6447  0.2691  1.5564
   67SAPC   C27 5599   0.588   6.258   7.637  0.2683 -0.3831 -0.0382
   67SAPC   H7R 5600   0.666   6.187   7.600 -0.4469 -0.0269 -2.4200
   67SAPC   H7S 5601   0.520   6.185   7.686 -0.5381  0.1379 -0.3574
   67SAPC   C28 5602   0.640   6.374   7.721  0.6383  1.3115 -0.4730
   67SAPC   H8R 5603   0.678   6.462   7.668  0.0653  1.0452 -1.3404
   67SAPC   C29 5604   0.645   6.362   7.858 -0.4175 -0.3005 -0.2668
   67SAPC   H9R 5605   0.696   6.437   7.921  0.4484 -1.3003  0.2510
   67SAPC  C210 5606   0.591   6.251   7.945  0.2458  0.3698 -0.0457
   67SAPC  H10R 5607   0.486   6.237   7.914  0.2538  1.2780 -0.5244
   67SAPC  H10S 5608   0.584   6.283   8.051 -0.9572  0.8795 -0.2667
   67SAPC  C211 5609   0.671   6.127   7.945 -0.4973  0.3454  0.6272
   67SAPC  H11R 5610   0.778   6.152   7.943 -0.0347 -1.4538 -2.2104
   67SAPC  C212 5611   0.626   5.996   7.944 -0.0194 -0.1803  0.0131
   67SAPC  H12R 5612   0.700   5.917   7.962 -0.6462 -0.5340  1.1352
   67SAPC  C213 5613   0.483   5.947   7.936 -1.0495  0.7643  0.5061
   67SAPC  H13R 5614   0.462   5.912   7.832 -1.3315 -0.6591  1.0159
   67SAPC  H13S 5615   0.415   6.029   7.967 -1.0093  1.9100 -2.1334
   67SAPC  C214 5616   0.450   5.821   8.020  0.0148 -0.1066 -0.2844
   67SAPC  H14R 5617   0.450   5.728   7.961 -0.7620 -0.5271  0.3592
   67SAPC  C215 5618   0.420   5.811   8.154 -0.2841 -0.4543 -0.2251
   67SAPC  H15R 5619   0.389   5.713   8.193  0.4533 -1.0035 -0.9775
   67SAPC  C216 5620   0.412   5.919   8.263  0.9456  0.2845 -0.2563
   67SAPC  H16R 5621   0.318   5.905   8.320 -0.2334  1.2066 -1.8783
   67SAPC  H16S 5622   0.400   6.021   8.221  1.6683  0.6092  0.3066
   67SAPC  C217 5623   0.534   5.905   8.354 -0.2048 -0.1440  0.3293
   67SAPC  H17R 5624   0.538   5.996   8.418  0.1531  0.0151  0.0878
   67SAPC  H17S 5625   0.629   5.905   8.296 -0.8986 -0.1952 -0.8561
   67SAPC  C218 5626   0.520   5.788   8.448 -0.0693  0.7194  0.2650
   67SAPC  H18R 5627   0.537   5.690   8.399  2.3066  1.5368 -0.7117
   67SAPC  H18S 5628   0.414   5.782   8.482 -0.8845 -3.4015 -2.2208
   67SAPC  C219 5629   0.613   5.798   8.560 -0.1324  0.5700 -0.4843
   67SAPC  H19R 5630   0.596   5.896   8.610  0.5084  0.4313  0.0241
   67SAPC  H19S 5631   0.719   5.803   8.527 -0.1234 -0.8995 -0.7079
   67SAPC  C220 5632   0.607   5.677   8.656  0.3613  0.5743 -0.0571
   67SAPC  H20R 5633   0.604   5.585   8.595 -2.3178 -0.8718  2.0436
   67SAPC  H20S 5634   0.518   5.687   8.721  0.1877 -0.4195 -0.1314
   67SAPC  H20T 5635   0.688   5.681   8.732 -2.3138 -0.5666  3.1216
   67SAPC   C33 5636   0.353   7.023   7.469  0.3045 -0.2053 -0.0354
   67SAPC   H3X 5637   0.244   7.044   7.458  0.5915  1.7062  0.4965
   67SAPC   H3Y 5638   0.378   7.071   7.566 -0.3248  1.7998 -0.8213
   67SAPC   C34 5639   0.351   6.870   7.494 -1.1540  0.3061  0.0829
   67SAPC   H4X 5640   0.290   6.833   7.409 -0.0446  0.9424 -1.0212
   67SAPC   H4Y 5641   0.287   6.842   7.580  0.9720 -1.2893  1.2410
   67SAPC   C35 5642   0.481   6.792   7.502 -0.8159 -1.0609 -0.6704
   67SAPC   H5X 5643   0.524   6.818   7.403 -3.1584  1.2863 -1.2038
   67SAPC   H5Y 5644   0.480   6.681   7.495  0.0425 -1.0746 -0.6021
   67SAPC   C36 5645   0.573   6.829   7.619  0.1168  0.1437  0.7313
   67SAPC   H6X 5646   0.569   6.940   7.627  3.2092  0.5838 -1.8935
   67SAPC   H6Y 5647   0.678   6.815   7.584  0.0460  0.3956  0.4137
   67SAPC   C37 5648   0.552   6.754   7.750  0.7658  0.0228 -0.4216
   67SAPC   H7X 5649   0.564   6.645   7.731  0.5487  0.2977 -2.3134
   67SAPC   H7Y 5650   0.456   6.790   7.794  0.4133 -1.1795 -0.1423
   67SAPC   C38 5651   0.673   6.795   7.845  0.0464  0.0445  0.6568
   67SAPC   H8X 5652   0.690   6.904   7.837  0.6443 -0.1271 -0.5390
   67SAPC   H8Y 5653   0.765   6.743   7.810 -1.3342 -1.7535 -0.4651
   67SAPC   C39 5654   0.624   6.785   7.984 -0.6541 -0.7833  0.7043
   67SAPC   H9X 5655   0.601   6.681   8.018 -1.1123 -1.3257 -1.1560
   67SAPC   H9Y 5656   0.528   6.840   7.989  0.2838  1.4829 -2.8587
   67SAPC  C310 5657   0.714   6.853   8.088  0.3777 -0.2065  0.3925
   67SAPC  H10X 5658   0.751   6.952   8.055  1.7400 -1.3640 -1.7179
   67SAPC  H10Y 5659   0.799   6.783   8.102 -0.7327 -2.2743 -2.2643
   67SAPC  C311 5660   0.635   6.865   8.216 -0.2304 -0.2563 -0.0475
   67SAPC  H11X 5661   0.592   6.769   8.252  1.0027 -0.9026 -0.2534
   67SAPC  H11Y 5662   0.547   6.931   8.204  0.2656  0.3982 -0.1616
   67SAPC  C312 5663   0.724   6.924   8.335  0.5942  0.0422  0.4763
   67SAPC  H12X 5664   0.825   6.930   8.291  0.1143  1.5436 -0.5007
   67SAPC  H12Y 5665   0.724   6.858   8.425 -0.8894  2.3170  2.2643
   67SAPC  C313 5666   0.685   7.061   8.393  0.9955 -0.0806 -0.1076
   67SAPC  H13X 5667   0.747   7.087   8.481  1.4194 -2.8693  0.5198
   67SAPC  H13Y 5668   0.582   7.054   8.435  0.4859 -0.3628 -1.3570
   67SAPC  C314 5669   0.675   7.172   8.294  0.4052 -0.4421  0.3785
   67SAPC  H14X 5670   0.624   7.256   8.346 -2.5298 -1.4643 -0.6036
   67SAPC  H14Y 5671   0.603   7.145   8.213 -0.1888 -1.6169  1.2622
   67SAPC  C315 5672   0.805   7.199   8.232 -0.1398 -0.5124  0.7491
   67SAPC  H15X 5673   0.789   7.285   8.163 -0.4261  0.9352  2.5346
   67SAPC  H15Y 5674   0.862   7.121   8.177  2.6782  0.9878  1.3324
   67SAPC  C316 5675   0.910   7.257   8.327  0.4659  0.1801  0.6008
   67SAPC  H16X 5676   1.005   7.276   8.273  0.3667 -0.0786  0.3366
   67SAPC  H16Y 5677   0.947   7.182   8.401  0.5318 -0.3042  0.0792
   67SAPC  C317 5678   0.869   7.383   8.407 -0.1356  0.7990  0.1952
   67SAPC  H17X 5679   0.936   7.367   8.494 -0.6872 -0.2532  0.4420
   67SAPC  H17Y 5680   0.766   7.388   8.448 -0.4617  1.2353 -0.6602
   67SAPC  C318 5681   0.900   7.518   8.346 -0.9074 -0.3144 -0.2206
   67SAPC  H18X 5682   0.886   7.597   8.422 -0.5008 -0.2150 -0.2460
   67SAPC  H18Y 5683   0.840   7.532   8.254  2.1030 -0.3130 -2.3400
   67SAPC  H18Z 5684   1.004   7.514   8.308 -1.0293 -2.7285 -0.4669
   68SAPC     N 5685   3.395   0.055   6.182 -0.3699 -0.7927  1.0627
   68SAPC   C12 5686   3.440   0.035   6.327 -0.7536 -0.3580  0.2495
   68SAPC  H12A 5687   3.393  -0.048   6.379 -1.3159 -0.0592  0.2248
   68SAPC  H12B 5688   3.427   0.128   6.380  2.7167  0.5684 -0.2715
   68SAPC   C13 5689   3.250   0.082   6.193  0.5097  0.6982  0.4485
   68SAPC  H13A 5690   3.194   0.090   6.102 -0.6785  2.7030  1.2856
   68SAPC  H13B 5691   3.203   0.010   6.259 -1.1191  0.9333 -0.4121
   68SAPC  H13C 5692   3.236   0.179   6.240  1.3967  1.0358  0.0402
   68SAPC   C14 5693   3.461   0.174   6.122  0.4188  0.6247  0.2499
   68SAPC  H14A 5694   3.421   0.187   6.022  1.5017 -0.5725 -0.3600
   68SAPC  H14B 5695   3.448   0.269   6.171 -0.3281  2.5614 -3.3234
   68SAPC  H14C 5696   3.565   0.148   6.108  0.1280 -0.7837  0.5380
   68SAPC   C15 5697   3.424  -0.070   6.105  0.3079  0.1841 -0.0527
   68SAPC  H15A 5698   3.521  -0.075   6.057  0.3266 -1.7569  0.1153
   68SAPC  H15B 5699   3.418  -0.165   6.155  1.1830 -0.4770 -1.1546
   68SAPC  H15C 5700   3.357  -0.078   6.020  0.1430  2.3517 -0.1983
   68SAPC   C11 5701   3.597   0.005   6.348  0.6153  0.3394 -0.3226
   68SAPC  H11A 5702   3.623  -0.093   6.304  1.0025 -0.0653  0.7861
   68SAPC  H11B 5703   3.612  -0.003   6.457  0.4194  1.9235 -0.1467
   68SAPC     P 5704   3.785   0.200   6.337 -0.1327  0.3927  0.1837
   68SAPC   O13 5705   3.890   0.190   6.232 -0.5110  0.3037  0.0100
   68SAPC   O14 5706   3.737   0.337   6.366 -0.0244  0.4415  0.1015
   68SAPC   O12 5707   3.671   0.106   6.285 -0.4641 -1.0611 -0.3894
   68SAPC   O11 5708   3.835   0.123   6.469  0.1029 -0.3595  0.2960
   68SAPC    C1 5709   3.955   0.051   6.487  0.3292  0.3131  0.4394
   68SAPC    HA 5710   3.952  -0.047   6.436  1.7787  1.5706 -2.2711
   68SAPC    HB 5711   4.043   0.101   6.442  2.7277 -2.3341  1.8330
   68SAPC    C2 5712   3.991   0.033   6.630  0.2677  0.1084  0.0491
   68SAPC    HS 5713   3.927  -0.049   6.669  3.4015 -2.5000  0.0989
   68SAPC   O21 5714   3.994   0.160   6.703 -0.5148  0.4138 -0.1091
   68SAPC   C21 5715   3.894   0.162   6.795 -0.6186 -0.1907 -0.1806
   68SAPC   O22 5716   3.801   0.086   6.796 -0.0176  0.2670 -0.2400
   68SAPC   C22 5717   3.907   0.277   6.893 -0.3384  0.3808 -0.7373
   68SAPC   H2R 5718   4.000   0.336   6.881  0.2754 -0.7059 -1.5082
   68SAPC   H2S 5719   3.820   0.347   6.892 -0.0911  0.6898 -1.7465
   68SAPC    C3 5720   4.137  -0.035   6.634  1.6141 -0.5894 -0.7676
   68SAPC    HX 5721   4.208   0.008   6.560 -0.2902  0.5020 -2.0464
   68SAPC    HY 5722   4.121  -0.136   6.590  0.3502 -1.3827  1.3491
   68SAPC   O31 5723   4.197  -0.038   6.769  0.2354  0.2310  0.0867
   68SAPC   C31 5724   4.157  -0.132   6.850 -0.0212  0.1975  0.4166
   68SAPC   O32 5725   4.082  -0.223   6.820 -0.0637 -0.1520  0.6515
   68SAPC   C32 5726   4.230  -0.115   6.978 -0.4746  0.3870 -0.1409
   68SAPC   H2X 5727   4.220  -0.010   7.012 -1.0487 -0.2730  1.9261
   68SAPC   H2Y 5728   4.338  -0.134   6.963 -0.5408  0.8479 -1.3007
   68SAPC   C23 5729   3.925   0.217   7.042 -0.0933 -0.0686 -0.2260
   68SAPC   H3R 5730   3.961   0.302   7.104  1.3655 -0.6323 -0.2614
   68SAPC   H3S 5731   4.002   0.138   7.036 -0.0842 -0.1332  0.6120
   68SAPC   C24 5732   3.802   0.155   7.098  0.4303  1.0252 -0.0009
   68SAPC   H4R 5733   3.829   0.092   7.186  0.9138  3.7701  1.9349
   68SAPC   H4S 5734   3.750   0.094   7.021  0.8037  0.0855  0.4653
   68SAPC   C25 5735   3.702   0.260   7.131  0.0725 -0.4370  0.0051
   68SAPC   H5R 5736   3.684   0.337   7.055  0.2822  0.8642  1.2412
   68SAPC   C26 5737   3.640   0.280   7.246  0.1121 -0.9120 -0.5664
   68SAPC   H6R 5738   3.573   0.367   7.240  0.0610 -0.5841  2.7023
   68SAPC   C27 5739   3.644   0.207   7.376  0.0782 -0.1084 -0.9279
   68SAPC   H7R 5740   3.641   0.097   7.362  1.3232 -0.4621  1.1375
   68SAPC   H7S 5741   3.561   0.228   7.446  0.3152 -1.2437 -0.2917
   68SAPC   C28 5742   3.778   0.222   7.444  0.1308  0.0250 -0.2857
   68SAPC   H8R 5743   3.858   0.215   7.368  0.1223  3.6486 -0.8026
   68SAPC   C29 5744   3.805   0.223   7.580  0.0394  0.1390 -0.0002
   68SAPC   H9R 5745   3.909   0.233   7.616  0.0139  0.9113 -0.1389
   68SAPC  C210 5746   3.701   0.218   7.677 -0.3764 -0.8025  0.2165
   68SAPC  H10R 5747   3.700   0.113   7.713  0.3279 -0.7152  0.5049
   68SAPC  H10S 5748   3.600   0.250   7.645  1.2514  3.2407 -1.4801
   68SAPC  C211 5749   3.747   0.311   7.789 -0.3643  0.2328  0.4701
   68SAPC  H11R 5750   3.736   0.417   7.761  0.5417 -0.2306 -1.9085
   68SAPC  C212 5751   3.795   0.270   7.909  0.0108 -0.6962  0.1205
   68SAPC  H12R 5752   3.831   0.342   7.984 -2.1068  1.2615 -0.6214
   68SAPC  C213 5753   3.813   0.137   7.970 -0.2140  0.7978  0.2160
   68SAPC  H13R 5754   3.720   0.077   7.961  1.0000 -1.1765  0.2207
   68SAPC  H13S 5755   3.818   0.141   8.080  0.8242  0.0394  0.2161
   68SAPC  C214 5756   3.928   0.061   7.908  0.1835  0.5695 -0.6405
   68SAPC  H14R 5757   3.916   0.011   7.811  0.2834  2.4872 -1.6980
   68SAPC  C215 5758   4.046   0.051   7.969 -0.1901 -1.0022 -0.6218
   68SAPC  H15R 5759   4.126  -0.008   7.922  3.8572  2.0743  1.7586
   68SAPC  C216 5760   4.082   0.106   8.106 -0.7146  0.0831  0.2044
   68SAPC  H16R 5761   4.039   0.205   8.132 -1.8011 -0.5739  1.0005
   68SAPC  H16S 5762   4.193   0.112   8.100 -0.6295 -1.4468 -0.1892
   68SAPC  C217 5763   4.046   0.010   8.222 -0.4515  0.0797 -0.3279
   68SAPC  H17R 5764   4.069  -0.093   8.189 -0.3182  0.4343 -1.3987
   68SAPC  H17S 5765   3.938   0.017   8.244 -0.4411 -0.8906  0.0867
   68SAPC  C218 5766   4.131   0.043   8.346 -0.0589  0.5696  0.2745
   68SAPC  H18R 5767   4.163   0.149   8.344 -1.1474  0.9255  0.9674
   68SAPC  H18S 5768   4.218  -0.027   8.344 -0.2813  0.2840  0.5335
   68SAPC  C219 5769   4.064   0.034   8.480  0.4837  0.4029  0.0239
   68SAPC  H19R 5770   4.137   0.059   8.560  1.4324 -0.5323 -0.5117
   68SAPC  H19S 5771   4.036  -0.072   8.496 -0.4840  0.8564  1.5145
   68SAPC  C220 5772   3.949   0.130   8.491  0.4724  0.0983  0.1985
   68SAPC  H20R 5773   3.898   0.122   8.589  0.9376 -0.5511  0.3979
   68SAPC  H20S 5774   3.870   0.111   8.414  0.6337 -2.6882  0.6067
   68SAPC  H20T 5775   3.980   0.236   8.490 -2.8132  1.1815  0.1330
   68SAPC   C33 5776   4.181  -0.203   7.100  0.3761 -0.3247  0.2533
   68SAPC   H3X 5777   4.218  -0.306   7.084  0.5142 -0.0504 -1.4227
   68SAPC   H3Y 5778   4.071  -0.195   7.097  0.5217  2.1743 -1.7737
   68SAPC   C34 5779   4.214  -0.137   7.235  0.2706 -0.7768  0.1246
   68SAPC   H4X 5780   4.187  -0.031   7.215  0.9775 -1.1444 -3.6169
   68SAPC   H4Y 5781   4.324  -0.134   7.253  0.3551 -0.7701 -0.3697
   68SAPC   C35 5782   4.155  -0.216   7.355  0.4288 -0.2400 -0.0525
   68SAPC   H5X 5783   4.191  -0.321   7.364 -1.7412 -1.1243 -0.9803
   68SAPC   H5Y 5784   4.044  -0.213   7.351  0.1009  0.7393  4.5725
   68SAPC   C36 5785   4.201  -0.150   7.490 -0.2839 -0.4025 -0.0119
   68SAPC   H6X 5786   4.164  -0.046   7.483  1.1083  0.0377 -5.4059
   68SAPC   H6Y 5787   4.312  -0.147   7.486 -0.3094  3.2650 -2.5448
   68SAPC   C37 5788   4.149  -0.224   7.614  0.1682  0.2095 -0.2411
   68SAPC   H7X 5789   4.044  -0.249   7.587  0.3070 -0.8225  0.1186
   68SAPC   H7Y 5790   4.147  -0.163   7.707 -1.9454 -0.3830  0.1406
   68SAPC   C38 5791   4.233  -0.354   7.636  0.3626 -0.6672 -0.5380
   68SAPC   H8X 5792   4.336  -0.326   7.665  0.4336 -2.5142  1.2508
   68SAPC   H8Y 5793   4.243  -0.415   7.544  3.2815  0.5940 -1.1531
   68SAPC   C39 5794   4.171  -0.442   7.745 -0.4431 -0.7048  0.1955
   68SAPC   H9X 5795   4.226  -0.538   7.751 -0.4277 -0.6378  1.3468
   68SAPC   H9Y 5796   4.068  -0.469   7.712 -0.5511 -1.7338  1.2929
   68SAPC  C310 5797   4.170  -0.385   7.890  0.5000 -0.2119  0.2749
   68SAPC  H10X 5798   4.107  -0.294   7.900 -0.0631 -0.3128 -1.8741
   68SAPC  H10Y 5799   4.277  -0.358   7.907 -0.1465  1.1899  2.4231
   68SAPC  C311 5800   4.120  -0.495   7.987  0.0714 -0.2171 -0.3217
   68SAPC  H11X 5801   4.167  -0.591   7.958 -0.3282 -0.0654 -1.5091
   68SAPC  H11Y 5802   4.012  -0.517   7.992  0.1513 -1.1930 -2.1156
   68SAPC  C312 5803   4.151  -0.470   8.133 -0.1690 -0.4307 -0.0677
   68SAPC  H12X 5804   4.141  -0.362   8.156 -0.6383 -0.4234 -0.3029
   68SAPC  H12Y 5805   4.255  -0.498   8.164 -0.8534 -1.5546  1.3616
   68SAPC  C313 5806   4.068  -0.532   8.240 -0.0123 -0.0873  0.4025
   68SAPC  H13X 5807   4.107  -0.630   8.275 -2.3282 -1.5515 -0.8198
   68SAPC  H13Y 5808   3.961  -0.541   8.210  0.2250  0.4738 -0.6250
   68SAPC  C314 5809   4.054  -0.456   8.370 -0.2370  0.4819  0.8846
   68SAPC  H14X 5810   3.991  -0.510   8.443  0.7062  0.3278  1.6074
   68SAPC  H14Y 5811   4.008  -0.357   8.348  0.8039  1.5578  3.1880
   68SAPC  C315 5812   4.179  -0.442   8.453  0.1853  0.2594  0.1900
   68SAPC  H15X 5813   4.264  -0.387   8.408 -0.6321  0.1668 -1.5608
   68SAPC  H15Y 5814   4.229  -0.539   8.474  0.2858  0.6421  1.7838
   68SAPC  C316 5815   4.159  -0.378   8.597 -0.2363  0.7763  0.7715
   68SAPC  H16X 5816   4.076  -0.431   8.649 -0.6303  0.4394 -0.1892
   68SAPC  H16Y 5817   4.126  -0.272   8.597 -1.6760  0.3770  2.2448
   68SAPC  C317 5818   4.283  -0.399   8.689  0.2357 -0.0097 -0.1342
   68SAPC  H17X 5819   4.370  -0.353   8.638 -0.1791  1.8524  0.7772
   68SAPC  H17Y 5820   4.302  -0.509   8.682 -2.4725 -0.4757 -1.8612
   68SAPC  C318 5821   4.260  -0.368   8.837  0.0357 -0.4906 -0.9903
   68SAPC  H18X 5822   4.167  -0.405   8.883  1.2531  2.2923  4.6280
   68SAPC  H18Y 5823   4.259  -0.257   8.846 -0.0592 -0.6523  1.8491
   68SAPC  H18Z 5824   4.349  -0.397   8.897 -0.4582  1.1591  0.6389
   69SLPC     N 5825   2.806   4.675  11.346 -0.1085  0.7648 -0.3209
   69SLPC   C13 5826   2.913   4.665  11.454 -0.1549 -0.7987  0.5906
   69SLPC  H13A 5827   3.006   4.665  11.398 -0.2932 -3.0456  0.2487
   69SLPC  H13B 5828   2.898   4.743  11.526  0.5724 -0.6365  0.5716
   69SLPC  H13C 5829   2.900   4.573  11.509 -3.7457 -0.1309  1.0972
   69SLPC   C14 5830   2.826   4.802  11.272  0.2074  0.1006 -0.1723
   69SLPC  H14A 5831   2.790   4.889  11.325 -0.1031 -1.2607  1.9661
   69SLPC  H14B 5832   2.931   4.812  11.247  0.4904 -3.5856 -1.0016
   69SLPC  H14C 5833   2.772   4.804  11.178 -0.7799  0.1380  0.3899
   69SLPC   C15 5834   2.668   4.680  11.411  0.0565  0.1201  0.3705
   69SLPC  H15A 5835   2.633   4.588  11.455  0.6932 -0.3901 -0.1856
   69SLPC  H15B 5836   2.662   4.750  11.493  1.0389  2.3346 -1.3479
   69SLPC  H15C 5837   2.599   4.716  11.336  0.2728 -1.3028 -0.5313
   69SLPC   C12 5838   2.817   4.554  11.248  0.1130  0.5477 -0.3235
   69SLPC  H12A 5839   2.745   4.577  11.171 -1.8462  0.2120  1.3285
   69SLPC  H12B 5840   2.790   4.460  11.293  2.5205  0.0405  0.2162
   69SLPC   C11 5841   2.953   4.529  11.188  0.3206 -0.0561  0.5282
   69SLPC  H11A 5842   2.946   4.434  11.131  2.1674 -0.9061  1.6275
   69SLPC  H11B 5843   3.033   4.516  11.265  0.2245 -2.6851  0.2794
   69SLPC     P 5844   3.142   4.700  11.107 -0.5254  0.2617 -0.3078
   69SLPC   O13 5845   3.120   4.830  11.174 -0.1829  0.2462  0.6906
   69SLPC   O14 5846   3.243   4.615  11.175  0.4681 -0.3787 -0.0329
   69SLPC   O12 5847   2.999   4.629  11.098 -0.4329  0.2616  0.1218
   69SLPC   O11 5848   3.188   4.737  10.959 -0.3550  0.0091  0.3721
   69SLPC    C1 5849   3.119   4.844  10.890  0.5672 -0.1597  0.6063
   69SLPC    HA 5850   3.044   4.897  10.953 -0.0750 -0.7950  0.3879
   69SLPC    HB 5851   3.186   4.922  10.847  0.9092 -1.1741 -0.7651
   69SLPC    C2 5852   3.045   4.778  10.766  0.2329 -0.1740 -0.7785
   69SLPC    HS 5853   2.989   4.698  10.819  3.8748 -1.5090  1.4105
   69SLPC   O21 5854   3.142   4.720  10.678 -0.4545  0.5560  0.4486
   69SLPC   C21 5855   3.108   4.605  10.613  0.3064  0.2848  0.4721
   69SLPC   O22 5856   3.011   4.534  10.638 -0.1677 -0.5851  0.0701
   69SLPC   C22 5857   3.198   4.574  10.490  0.0195 -0.4307 -0.1597
   69SLPC   H2R 5858   3.296   4.620  10.512  0.1662 -0.7966 -0.0394
   69SLPC   H2S 5859   3.202   4.463  10.491  2.3751 -0.4186  2.3218
   69SLPC    C3 5860   2.956   4.886  10.700  0.0464 -0.2330 -0.1721
   69SLPC    HX 5861   3.027   4.953  10.647  3.2171 -1.7741  1.8448
   69SLPC    HY 5862   2.907   4.946  10.780  2.2331  1.6662 -0.1747
   69SLPC   O31 5863   2.862   4.827  10.600  0.0911  0.2350 -0.6281
   69SLPC   C31 5864   2.748   4.772  10.648  0.3429  0.5413  0.1060
   69SLPC   O32 5865   2.712   4.770  10.760 -0.3183 -0.4037  0.0862
   69SLPC   C32 5866   2.665   4.714  10.537  0.6646 -0.2732 -0.1543
   69SLPC   H2X 5867   2.611   4.794  10.481  3.3698  0.8344 -1.3332
   69SLPC   H2Y 5868   2.597   4.644  10.590 -0.2251  0.2038 -0.6228
   69SLPC   C23 5869   3.146   4.638  10.357  0.2065  0.0336 -0.3175
   69SLPC   H3R 5870   3.164   4.747  10.370  1.7334 -0.1944 -0.4018
   69SLPC   H3S 5871   3.036   4.620  10.357  0.2954 -0.5825  0.8464
   69SLPC   C24 5872   3.204   4.594  10.224  0.5787  0.4018 -0.1014
   69SLPC   H4R 5873   3.226   4.485  10.218  0.8631  0.5448 -2.1296
   69SLPC   H4S 5874   3.307   4.634  10.211  1.1355  0.4003  3.3008
   69SLPC   C25 5875   3.100   4.619  10.116  0.2212  0.4936  0.1329
   69SLPC   H5R 5876   3.098   4.729  10.104 -1.6502  0.3583 -1.1261
   69SLPC   H5S 5877   2.996   4.591  10.142  0.2520  0.9780  0.7959
   69SLPC   C26 5878   3.133   4.547   9.986 -0.1267  0.8337  0.0399
   69SLPC   H6R 5879   3.127   4.440  10.015 -0.7282  0.3318 -1.8070
   69SLPC   H6S 5880   3.238   4.564   9.955  0.2581 -0.0675  0.7801
   69SLPC   C27 5881   3.032   4.566   9.873 -0.2775 -0.1124  1.6196
   69SLPC   H7R 5882   3.058   4.661   9.823  0.4801 -1.6738 -1.1841
   69SLPC   H7S 5883   2.934   4.568   9.925 -0.5019 -0.9574  1.2529
   69SLPC   C28 5884   3.021   4.453   9.770 -0.4612 -0.1229  0.2555
   69SLPC   H8R 5885   3.001   4.352   9.812 -3.3450 -0.2093 -1.1069
   69SLPC   H8S 5886   3.120   4.448   9.721 -0.2825  1.0429  0.4754
   69SLPC   C29 5887   2.900   4.488   9.687  0.3584 -0.5571 -0.3819
   69SLPC   H9R 5888   2.804   4.446   9.721  0.8289 -3.2734 -2.0441
   69SLPC  C210 5889   2.897   4.540   9.563 -0.6538 -0.4397 -0.1479
   69SLPC  H10R 5890   2.802   4.563   9.512 -2.5121 -2.9236  1.9403
   69SLPC  C211 5891   3.021   4.570   9.488  0.0567 -0.2636 -0.1448
   69SLPC  H11R 5892   3.032   4.497   9.406  1.7124  1.0663 -1.1777
   69SLPC  H11S 5893   3.116   4.563   9.547  0.0834 -1.6997 -0.3232
   69SLPC  C212 5894   3.018   4.703   9.421 -0.2893 -0.2339 -0.3391
   69SLPC  H12R 5895   3.068   4.777   9.484 -1.5230 -0.4684  0.9761
   69SLPC  C213 5896   2.967   4.742   9.302 -0.4992 -0.0853  0.1242
   69SLPC  H13R 5897   2.968   4.849   9.280 -0.8309  0.4938  2.6830
   69SLPC  C214 5898   2.893   4.653   9.201  0.1743  0.0141 -0.3018
   69SLPC  H14R 5899   2.852   4.575   9.268  0.8985  0.6930  0.9555
   69SLPC  H14S 5900   2.960   4.606   9.125  3.9651  1.9127  1.5651
   69SLPC  C215 5901   2.766   4.713   9.134 -0.2029  1.4173 -0.1359
   69SLPC  H15R 5902   2.704   4.772   9.205 -1.0908  1.5526 -1.0140
   69SLPC  H15S 5903   2.712   4.627   9.089 -0.1978  1.7228 -0.7395
   69SLPC  C216 5904   2.799   4.817   9.026  0.0528 -0.3632  0.3617
   69SLPC  H16R 5905   2.845   4.763   8.941 -1.9664 -1.6659  0.0392
   69SLPC  H16S 5906   2.875   4.887   9.067 -0.7056 -0.1117  1.3637
   69SLPC  C217 5907   2.678   4.905   8.987  0.5247 -1.0425 -0.5317
   69SLPC  H17R 5908   2.667   4.982   9.066  0.4872  0.4582 -1.9654
   69SLPC  H17S 5909   2.588   4.841   8.974  0.7239 -2.3309  3.0354
   69SLPC  C218 5910   2.698   4.975   8.857 -0.6350  0.4356 -0.1346
   69SLPC  H18R 5911   2.739   4.911   8.776  1.3709  0.7253  0.5900
   69SLPC  H18S 5912   2.774   5.056   8.857 -0.5812  0.5136 -3.4781
   69SLPC  H18T 5913   2.601   5.024   8.837 -1.0896  0.6509  2.2652
   69SLPC   C33 5914   2.741   4.632  10.433 -0.4943 -0.0203  0.2881
   69SLPC   H3X 5915   2.791   4.545  10.481 -0.6258 -0.9374 -1.1451
   69SLPC   H3Y 5916   2.820   4.694  10.386 -0.2134  0.1604  0.9828
   69SLPC   C34 5917   2.646   4.575  10.329  0.3420 -0.4528  1.3747
   69SLPC   H4X 5918   2.573   4.509  10.381  0.5468  0.0308  2.3097
   69SLPC   H4Y 5919   2.709   4.507  10.267 -0.1267 -1.2974  1.7973
   69SLPC   C35 5920   2.574   4.662  10.225 -0.1769 -0.0543  0.1725
   69SLPC   H5X 5921   2.518   4.735  10.287 -0.6943 -1.1662  1.0675
   69SLPC   H5Y 5922   2.503   4.596  10.171  0.2810 -1.5658  1.3139
   69SLPC   C36 5923   2.666   4.725  10.130 -0.0808 -1.1119  0.1333
   69SLPC   H6X 5924   2.701   4.662  10.046  2.5853  2.0184 -1.3161
   69SLPC   H6Y 5925   2.760   4.747  10.184  0.3463 -0.4508 -0.8612
   69SLPC   C37 5926   2.614   4.859  10.069  0.3783  0.2487  0.5466
   69SLPC   H7X 5927   2.627   4.927  10.156 -1.1331 -0.1066  1.0772
   69SLPC   H7Y 5928   2.508   4.849  10.039  0.3862  0.7724  0.3277
   69SLPC   C38 5929   2.702   4.911   9.964 -0.0508 -0.1474  0.6169
   69SLPC   H8X 5930   2.810   4.888   9.975  0.1321 -0.6080 -1.6586
   69SLPC   H8Y 5931   2.682   5.019   9.946 -0.8591 -0.2810  0.6826
   69SLPC   C39 5932   2.664   4.842   9.827 -0.1519 -0.1039 -0.1600
   69SLPC   H9X 5933   2.554   4.858   9.823  0.1226  2.3832  0.6747
   69SLPC   H9Y 5934   2.678   4.733   9.842 -0.6543 -0.0556  0.7246
   69SLPC  C310 5935   2.738   4.902   9.705 -0.0838  0.4729 -0.6124
   69SLPC  H10X 5936   2.838   4.855   9.707 -0.5259 -0.5450 -1.2739
   69SLPC  H10Y 5937   2.747   5.012   9.708 -2.2694  0.6751  1.6067
   69SLPC  C311 5938   2.667   4.865   9.579  0.8285  0.5690 -0.7958
   69SLPC  H11X 5939   2.648   4.756   9.575  1.6346  0.4381 -1.1130
   69SLPC  H11Y 5940   2.727   4.895   9.490 -0.3110 -1.4480 -2.3388
   69SLPC  C312 5941   2.526   4.925   9.561 -0.1060 -0.0414  0.4169
   69SLPC  H12X 5942   2.509   5.025   9.607  0.0698 -0.0115  0.4149
   69SLPC  H12Y 5943   2.447   4.858   9.603 -0.5439 -0.4002 -0.9371
   69SLPC  C313 5944   2.501   4.925   9.411  0.8743  0.6502  0.0237
   69SLPC  H13X 5945   2.528   4.824   9.373 -1.5191  0.0516 -0.3169
   69SLPC  H13Y 5946   2.562   5.001   9.357  1.4928 -1.1612 -1.9867
   69SLPC  C314 5947   2.357   4.950   9.372  0.6592 -0.1345 -0.3998
   69SLPC  H14X 5948   2.321   5.039   9.430 -0.6231 -1.3053  0.6859
   69SLPC  H14Y 5949   2.288   4.876   9.419  1.2957  0.0880  0.9509
   69SLPC  C315 5950   2.341   4.971   9.222 -0.8184 -0.1975 -0.2208
   69SLPC  H15X 5951   2.326   4.873   9.170  1.3905  0.1749 -1.6986
   69SLPC  H15Y 5952   2.431   5.012   9.171  0.4563 -0.8326  1.4262
   69SLPC  C316 5953   2.232   5.078   9.200 -0.5902  0.1274  0.0794
   69SLPC  H16X 5954   2.273   5.170   9.245  0.3967 -1.3051  2.2839
   69SLPC  H16Y 5955   2.147   5.057   9.268  0.6262 -0.1448  1.5616
   69SLPC  C317 5956   2.200   5.111   9.057  0.5032  0.1004  0.8839
   69SLPC  H17X 5957   2.147   5.025   9.011  0.2101 -0.3304  1.9904
   69SLPC  H17Y 5958   2.291   5.127   8.995  0.6818  1.4471  1.4573
   69SLPC  C318 5959   2.108   5.230   9.052 -0.1952  0.0977  0.9754
   69SLPC  H18X 5960   2.031   5.237   9.131 -1.3339 -1.0267  0.0173
   69SLPC  H18Y 5961   2.061   5.235   8.951 -1.0570 -0.1940  1.3566
   69SLPC  H18Z 5962   2.164   5.326   9.055  0.2118 -0.1100  0.3935
   70SLPC     N 5963   4.080   1.888  11.090 -0.0805  0.8788 -0.1472
   70SLPC   C13 5964   4.117   2.006  11.006  0.0495 -0.4796  0.3252
   70SLPC  H13A 5965   4.079   1.996  10.906 -2.1581  0.7396  0.9675
   70SLPC  H13B 5966   4.070   2.099  11.036 -0.6568 -0.9673  0.7391
   70SLPC  H13C 5967   4.225   2.011  11.006  0.0649 -0.6339  1.3394
   70SLPC   C14 5968   4.136   1.902  11.227  0.9323  0.1966 -0.7085
   70SLPC  H14A 5969   4.102   1.997  11.265  1.2878  0.2462 -0.5167
   70SLPC  H14B 5970   4.113   1.821  11.295  0.1080 -0.4530 -1.7236
   70SLPC  H14C 5971   4.244   1.903  11.229  1.0286 -2.3966 -0.0562
   70SLPC   C15 5972   4.135   1.763  11.029 -0.0068 -0.2185  0.5669
   70SLPC  H15A 5973   4.230   1.795  10.988 -0.9133  2.9218  0.6120
   70SLPC  H15B 5974   4.136   1.690  11.108 -0.1485  1.8611  2.5928
   70SLPC  H15C 5975   4.067   1.734  10.950 -2.1635 -0.6089  2.4816
   70SLPC   C12 5976   3.929   1.880  11.097 -0.0605  0.9411  0.1028
   70SLPC  H12A 5977   3.878   1.858  11.004 -1.2514  1.0303  0.7182
   70SLPC  H12B 5978   3.906   1.983  11.122  0.0806  1.2134 -0.8553
   70SLPC   C11 5979   3.870   1.775  11.198 -0.2820  0.0030  0.1817
   70SLPC  H11A 5980   3.763   1.801  11.212 -0.7346 -1.2246 -0.9023
   70SLPC  H11B 5981   3.921   1.807  11.292  0.1311 -0.2701  0.0536
   70SLPC     P 5982   3.839   1.553  11.071 -0.1005  0.3036  0.1049
   70SLPC   O13 5983   3.945   1.470  11.017  0.0392  0.1739 -0.1931
   70SLPC   O14 5984   3.720   1.494  11.124  0.3721  0.2981 -0.5432
   70SLPC   O12 5985   3.905   1.641  11.182  0.0449 -0.5408 -0.0790
   70SLPC   O11 5986   3.792   1.650  10.956  0.2336  0.2819 -0.0217
   70SLPC    C1 5987   3.748   1.596  10.830  0.1667  0.1624  0.0490
   70SLPC    HA 5988   3.760   1.486  10.820 -0.4424 -0.0495  1.3501
   70SLPC    HB 5989   3.637   1.603  10.821  0.0969 -0.9066  0.0101
   70SLPC    C2 5990   3.820   1.655  10.711 -0.1893  0.1760 -0.3366
   70SLPC    HS 5991   3.781   1.598  10.624  0.6771 -2.3304  0.8143
   70SLPC   O21 5992   3.964   1.634  10.716 -0.1418 -0.4927 -0.2991
   70SLPC   C21 5993   4.001   1.512  10.699 -0.6402  0.3299 -0.5309
   70SLPC   O22 5994   3.931   1.417  10.667  0.0369  0.2996  0.3723
   70SLPC   C22 5995   4.145   1.508  10.728 -0.4822  0.3187  0.5296
   70SLPC   H2R 5996   4.179   1.605  10.769  3.1731 -0.5689  0.0124
   70SLPC   H2S 5997   4.157   1.429  10.806 -1.2320 -0.5800 -0.2429
   70SLPC    C3 5998   3.808   1.810  10.693  0.4842 -0.6130  0.3045
   70SLPC    HX 5999   3.865   1.847  10.605 -3.0409  0.7373 -1.6306
   70SLPC    HY 6000   3.853   1.849  10.786  0.5495 -0.4821  0.2176
   70SLPC   O31 6001   3.669   1.856  10.698 -0.4375  0.4563 -0.2947
   70SLPC   C31 6002   3.597   1.839  10.586  0.0348 -1.0398  0.3302
   70SLPC   O32 6003   3.638   1.822  10.470  0.3142 -0.2633 -0.4334
   70SLPC   C32 6004   3.457   1.869  10.630  0.5625  0.0454  0.5043
   70SLPC   H2X 6005   3.455   1.970  10.678  1.9787 -0.5175  1.8321
   70SLPC   H2Y 6006   3.430   1.803  10.715 -0.9129  0.4585  0.3808
   70SLPC   C23 6007   4.221   1.461  10.598 -0.6222 -0.2952  0.6895
   70SLPC   H3R 6008   4.204   1.352  10.584 -0.8751 -0.7133  3.6515
   70SLPC   H3S 6009   4.331   1.467  10.610 -0.4037  3.9142 -1.3625
   70SLPC   C24 6010   4.194   1.556  10.482 -0.2230 -0.7691  0.3821
   70SLPC   H4R 6011   4.281   1.624  10.469 -0.8740 -0.3297 -2.0795
   70SLPC   H4S 6012   4.102   1.615  10.499 -0.4744 -0.8333 -0.6866
   70SLPC   C25 6013   4.163   1.482  10.353  0.8317  0.3515  0.4174
   70SLPC   H5R 6014   4.072   1.418  10.359  0.2265  1.2001  0.4280
   70SLPC   H5S 6015   4.251   1.418  10.334  0.2184 -0.0137 -1.3906
   70SLPC   C26 6016   4.150   1.579  10.237 -0.5780 -0.4101  0.2933
   70SLPC   H6R 6017   4.245   1.633  10.220 -0.9386 -0.4078 -2.0572
   70SLPC   H6S 6018   4.071   1.651  10.268  0.5045  0.7669  0.4177
   70SLPC   C27 6019   4.118   1.501  10.114 -0.5600  0.2745  0.1988
   70SLPC   H7R 6020   4.023   1.444  10.125 -0.2002 -0.4684 -0.4872
   70SLPC   H7S 6021   4.196   1.423  10.099  0.3027  1.3869 -1.3179
   70SLPC   C28 6022   4.110   1.592   9.992  0.6901  0.4901 -0.0390
   70SLPC   H8R 6023   4.199   1.659   9.987  0.2397  1.0491 -0.6407
   70SLPC   H8S 6024   4.019   1.654  10.005 -0.7868 -1.5626 -0.1871
   70SLPC   C29 6025   4.092   1.510   9.866 -0.4017  0.4825 -0.0236
   70SLPC   H9R 6026   4.013   1.433   9.876  1.4012 -1.3667  0.9361
   70SLPC  C210 6027   4.170   1.526   9.757  0.2294  0.1841  0.0517
   70SLPC  H10R 6028   4.146   1.478   9.661  2.9042 -0.7633 -0.2352
   70SLPC  C211 6029   4.299   1.609   9.752  0.4872 -0.1521  0.4459
   70SLPC  H11R 6030   4.346   1.619   9.852 -0.1961 -3.1062  1.1743
   70SLPC  H11S 6031   4.288   1.711   9.710  2.1371 -0.0112  0.2714
   70SLPC  C212 6032   4.406   1.557   9.664 -0.2543 -0.5942  1.3063
   70SLPC  H12R 6033   4.500   1.545   9.721  0.1096  3.3111  1.7929
   70SLPC  C213 6034   4.400   1.522   9.530 -0.0015 -0.8965  0.2083
   70SLPC  H13R 6035   4.485   1.473   9.482 -0.9800  0.3028 -2.9702
   70SLPC  C214 6036   4.274   1.540   9.439  0.4007 -0.3287  0.2021
   70SLPC  H14R 6037   4.192   1.591   9.493 -1.1847 -1.4982 -1.0153
   70SLPC  H14S 6038   4.228   1.440   9.427 -1.5322  0.3647  1.3547
   70SLPC  C215 6039   4.304   1.607   9.303 -0.8276  0.4099  0.4527
   70SLPC  H15R 6040   4.334   1.709   9.333  0.8656  0.5134 -1.3864
   70SLPC  H15S 6041   4.210   1.607   9.242 -1.6808  0.9940  1.7342
   70SLPC  C216 6042   4.412   1.540   9.219 -0.2516  0.1307 -0.0785
   70SLPC  H16R 6043   4.388   1.435   9.194  0.1283  0.2630 -1.0844
   70SLPC  H16S 6044   4.513   1.543   9.266 -0.0045 -0.0481 -0.5845
   70SLPC  C217 6045   4.435   1.610   9.090  0.5415  0.5549  0.4147
   70SLPC  H17R 6046   4.471   1.714   9.105 -1.4318  1.4401 -0.5622
   70SLPC  H17S 6047   4.340   1.613   9.033  0.8559  1.0979 -0.1020
   70SLPC  C218 6048   4.535   1.542   8.988  0.0759  0.3266  0.4947
   70SLPC  H18R 6049   4.511   1.437   8.959  1.1799  0.2015 -0.0205
   70SLPC  H18S 6050   4.637   1.542   9.032 -0.0401 -0.4083  0.7895
   70SLPC  H18T 6051   4.544   1.600   8.894  0.7169  0.4427  0.6244
   70SLPC   C33 6052   3.361   1.851  10.512 -0.0996 -0.2797 -0.6521
   70SLPC   H3X 6053   3.398   1.906  10.422  0.8449  2.7405  1.4047
   70SLPC   H3Y 6054   3.262   1.900  10.527  0.3038  0.9679 -1.7712
   70SLPC   C34 6055   3.320   1.703  10.491  0.1019  0.1427  0.0022
   70SLPC   H4X 6056   3.242   1.682  10.568 -1.9563  0.4319 -1.8799
   70SLPC   H4Y 6057   3.413   1.645  10.505  0.0233  0.5952  2.9431
   70SLPC   C35 6058   3.269   1.678  10.355  0.3691 -0.2313  0.2793
   70SLPC   H5X 6059   3.168   1.725  10.353  0.0046 -1.0270 -0.4858
   70SLPC   H5Y 6060   3.246   1.570  10.347 -0.4802  0.0185 -0.8208
   70SLPC   C36 6061   3.351   1.726  10.231 -0.1826  0.1461 -0.3875
   70SLPC   H6X 6062   3.450   1.683  10.256 -0.6911  0.4023  2.3092
   70SLPC   H6Y 6063   3.360   1.837  10.233 -1.6603  0.2744  1.6506
   70SLPC   C37 6064   3.306   1.671  10.096  0.0320 -0.1645 -0.6026
   70SLPC   H7X 6065   3.293   1.561  10.102  2.6651 -0.4684  1.8486
   70SLPC   H7Y 6066   3.385   1.698  10.022  1.3210  2.5450  1.5486
   70SLPC   C38 6067   3.168   1.742  10.064 -0.4344  0.1523 -0.0151
   70SLPC   H8X 6068   3.108   1.738  10.157  1.8730  0.9406  1.5902
   70SLPC   H8Y 6069   3.125   1.679   9.983  0.8981 -1.1828  0.2693
   70SLPC   C39 6070   3.181   1.888  10.018 -0.0574 -0.1963  0.3648
   70SLPC   H9X 6071   3.226   1.947  10.101 -1.8517  0.9734  0.5669
   70SLPC   H9Y 6072   3.082   1.934  10.000  0.1669 -0.2169 -1.0161
   70SLPC  C310 6073   3.258   1.912   9.883  0.3198 -0.8490  0.1965
   70SLPC  H10X 6074   3.353   1.856   9.887  1.4288  0.9410 -0.1100
   70SLPC  H10Y 6075   3.275   2.022   9.882 -1.2583 -0.5710  0.3695
   70SLPC  C311 6076   3.188   1.875   9.751  0.3675  0.4913  0.3720
   70SLPC  H11X 6077   3.101   1.938   9.723 -0.4026 -1.1255 -0.9731
   70SLPC  H11Y 6078   3.159   1.769   9.761 -1.7885  0.6953 -2.4762
   70SLPC  C312 6079   3.277   1.891   9.629 -0.0138  0.6868  0.3072
   70SLPC  H12X 6080   3.377   1.842   9.640 -1.1811 -2.0507 -0.3639
   70SLPC  H12Y 6081   3.282   1.997   9.597  0.0381  0.1306 -1.7308
   70SLPC  C313 6082   3.214   1.812   9.509 -0.2933  0.6974  0.3195
   70SLPC  H13X 6083   3.126   1.868   9.470 -1.8604 -0.0241  2.6278
   70SLPC  H13Y 6084   3.180   1.714   9.549  2.3152 -0.7007 -0.6365
   70SLPC  C314 6085   3.313   1.779   9.391  0.0908 -0.1529 -0.0516
   70SLPC  H14X 6086   3.392   1.707   9.423 -0.0688  0.0345  0.8053
   70SLPC  H14Y 6087   3.364   1.871   9.358  0.4363 -0.7449 -1.2309
   70SLPC  C315 6088   3.242   1.729   9.261 -0.1207 -0.6313 -0.3670
   70SLPC  H15X 6089   3.312   1.760   9.181 -2.5834 -0.3752 -2.5410
   70SLPC  H15Y 6090   3.145   1.784   9.255  2.4983  4.4701 -2.1700
   70SLPC  C316 6091   3.213   1.580   9.255 -0.2956  0.2189 -0.2050
   70SLPC  H16X 6092   3.180   1.537   9.352  0.9098  0.1809  0.1982
   70SLPC  H16Y 6093   3.303   1.522   9.225 -0.5054 -0.0336 -0.3542
   70SLPC  C317 6094   3.099   1.556   9.148 -0.1567 -0.2587  0.0316
   70SLPC  H17X 6095   3.110   1.455   9.103  2.9050  0.3060 -0.7550
   70SLPC  H17Y 6096   3.123   1.617   9.058 -0.3310 -2.1385 -1.3456
   70SLPC  C318 6097   2.961   1.570   9.205  0.1014  0.0372 -0.0574
   70SLPC  H18X 6098   2.961   1.509   9.298 -0.4268  1.5601  0.9850
   70SLPC  H18Y 6099   2.875   1.537   9.143  0.6004 -1.5305  0.0521
   70SLPC  H18Z 6100   2.941   1.674   9.238 -0.2062 -0.0858  0.1596
   71SLPC     N 6101   2.958   6.405  11.187  0.1446  0.3406 -0.6283
   71SLPC   C13 6102   2.986   6.437  11.328  0.8869  0.4924 -0.2573
   71SLPC  H13A 6103   3.090   6.428  11.357  0.8276  1.1487  0.1957
   71SLPC  H13B 6104   2.958   6.541  11.340 -0.7906 -0.0069  0.4310
   71SLPC  H13C 6105   2.928   6.376  11.396  0.7336  1.0052  0.0814
   71SLPC   C14 6106   2.810   6.379  11.178 -0.0144 -0.6468  0.0875
   71SLPC  H14A 6107   2.785   6.303  11.250  0.4429 -1.3007 -0.4319
   71SLPC  H14B 6108   2.750   6.468  11.192 -1.2521 -1.5170  0.4439
   71SLPC  H14C 6109   2.784   6.347  11.078  0.3158 -1.5923  0.2990
   71SLPC   C15 6110   3.029   6.277  11.152  0.4974 -0.3943 -0.2228
   71SLPC  H15A 6111   3.017   6.210  11.236  0.8630 -0.7141 -0.4227
   71SLPC  H15B 6112   2.987   6.232  11.064  2.3646  0.9328 -1.8884
   71SLPC  H15C 6113   3.135   6.286  11.135  0.8501 -1.4323  1.1863
   71SLPC   C12 6114   3.004   6.512  11.094 -0.5900  0.3712  0.2135
   71SLPC  H12A 6115   3.111   6.516  11.105 -0.7353 -0.6380  2.3752
   71SLPC  H12B 6116   2.969   6.611  11.120 -0.3481  0.1363  1.5049
   71SLPC   C11 6117   2.966   6.500  10.944  0.2476  0.0990 -0.3720
   71SLPC  H11A 6118   2.858   6.475  10.932  0.4336 -1.1131  0.2514
   71SLPC  H11B 6119   3.024   6.419  10.895  0.8954  0.5105 -0.2844
   71SLPC     P 6120   3.143   6.653  10.839  0.2527  0.1942 -0.1635
   71SLPC   O13 6121   3.131   6.796  10.798 -0.2530 -0.4484  0.0307
   71SLPC   O14 6122   3.232   6.621  10.954  0.1064 -0.6092  0.0429
   71SLPC   O12 6123   2.993   6.618  10.872  0.5515 -0.6876  0.5350
   71SLPC   O11 6124   3.184   6.559  10.715  0.3568  0.0538  0.6930
   71SLPC    C1 6125   3.084   6.495  10.632  0.5518  0.6144 -0.3278
   71SLPC    HA 6126   3.106   6.387  10.630 -1.4247  0.1864 -1.1944
   71SLPC    HB 6127   2.982   6.508  10.675  0.9712  0.9266  0.6043
   71SLPC    C2 6128   3.092   6.547  10.491 -0.0901 -0.3625 -0.0750
   71SLPC    HS 6129   3.008   6.511  10.428  0.1172 -0.8071 -0.1015
   71SLPC   O21 6130   3.221   6.528  10.428  0.4545  0.3737 -0.2287
   71SLPC   C21 6131   3.244   6.405  10.384 -0.5759 -0.0113 -0.8257
   71SLPC   O22 6132   3.169   6.311  10.393  0.3358 -0.2615 -0.1623
   71SLPC   C22 6133   3.383   6.402  10.320 -0.2910  0.3023  0.0684
   71SLPC   H2R 6134   3.426   6.503  10.306 -1.1184  0.6748  0.1228
   71SLPC   H2S 6135   3.441   6.350  10.399  1.7706 -0.9348 -2.1296
   71SLPC    C3 6136   3.061   6.697  10.486  0.3104 -0.2625  0.4738
   71SLPC    HX 6137   3.149   6.751  10.527  0.3405 -0.0164  0.0906
   71SLPC    HY 6138   2.965   6.719  10.537 -0.7685  0.3171 -1.6891
   71SLPC   O31 6139   3.051   6.739  10.347  0.5673 -0.2820  1.0867
   71SLPC   C31 6140   3.073   6.872  10.325 -0.1142 -0.1423  0.2384
   71SLPC   O32 6141   3.067   6.961  10.404  0.2946  0.0506 -0.1563
   71SLPC   C32 6142   3.093   6.885  10.170 -0.0111 -0.1942 -0.3067
   71SLPC   H2X 6143   3.140   6.986  10.164 -0.1479 -0.1673 -0.9586
   71SLPC   H2Y 6144   2.998   6.881  10.113 -1.0646  2.2173  1.1347
   71SLPC   C23 6145   3.392   6.329  10.181  0.0260 -0.1222 -0.6865
   71SLPC   H3R 6146   3.313   6.251  10.177 -0.4449  0.2814  0.4546
   71SLPC   H3S 6147   3.489   6.278  10.167 -1.3427 -2.5747 -1.8661
   71SLPC   C24 6148   3.370   6.421  10.059  0.1512  0.6144  0.1824
   71SLPC   H4R 6149   3.439   6.506  10.075  0.9756  0.7048 -3.0832
   71SLPC   H4S 6150   3.267   6.463  10.063 -0.0822  0.2028 -1.0355
   71SLPC   C25 6151   3.404   6.353   9.930  0.7226  0.1465  0.4976
   71SLPC   H5R 6152   3.324   6.277   9.912  0.9936  0.4318 -2.4956
   71SLPC   H5S 6153   3.495   6.292   9.918 -0.3660 -1.0429 -3.2302
   71SLPC   C26 6154   3.399   6.452   9.817 -0.3148  0.2900 -0.6474
   71SLPC   H6R 6155   3.451   6.548   9.836 -1.1169  1.0696 -2.1900
   71SLPC   H6S 6156   3.294   6.481   9.796 -0.5987  0.3928  0.8293
   71SLPC   C27 6157   3.437   6.386   9.683  0.1358  0.4486 -0.5290
   71SLPC   H7R 6158   3.425   6.460   9.601 -0.1034 -0.2828 -1.1675
   71SLPC   H7S 6159   3.377   6.293   9.669  1.5259 -0.8585  1.5336
   71SLPC   C28 6160   3.581   6.338   9.665  0.1695 -0.4644 -0.5060
   71SLPC   H8R 6161   3.612   6.264   9.743  1.3089  0.5650  0.0506
   71SLPC   H8S 6162   3.645   6.426   9.690  0.7907 -0.1263 -2.9987
   71SLPC   C29 6163   3.612   6.287   9.525  0.2835 -0.8892 -0.0084
   71SLPC   H9R 6164   3.549   6.202   9.494 -2.3814  1.4678 -1.5342
   71SLPC  C210 6165   3.700   6.336   9.442 -0.0636 -0.6814  0.3728
   71SLPC  H10R 6166   3.702   6.293   9.340  1.6533 -1.4137  0.6784
   71SLPC  C211 6167   3.788   6.457   9.469  0.6194  0.1231 -0.0128
   71SLPC  H11R 6168   3.873   6.437   9.399 -0.3202 -0.8514 -0.9117
   71SLPC  H11S 6169   3.811   6.475   9.576 -0.7840  2.0611 -0.0027
   71SLPC  C212 6170   3.728   6.579   9.401  0.0786  0.3860 -0.3786
   71SLPC  H12R 6171   3.618   6.581   9.394 -0.1319 -3.0480  0.3734
   71SLPC  C213 6172   3.791   6.688   9.353  0.2357 -0.1726 -0.5356
   71SLPC  H13R 6173   3.732   6.770   9.308  2.3434  1.7633  0.0089
   71SLPC  C214 6174   3.932   6.719   9.342 -0.7195  0.4075  0.5253
   71SLPC  H14R 6175   4.002   6.642   9.381 -1.1770 -0.0805  0.3852
   71SLPC  H14S 6176   3.963   6.811   9.397  1.3557 -0.4396  0.8822
   71SLPC  C215 6177   3.966   6.747   9.191 -0.6184 -0.0789  0.0587
   71SLPC  H15R 6178   4.075   6.753   9.170 -0.6284 -2.6080 -1.2093
   71SLPC  H15S 6179   3.918   6.842   9.160  0.3895 -0.3369 -2.5622
   71SLPC  C216 6180   3.918   6.632   9.102  0.1978  0.3185 -0.3444
   71SLPC  H16R 6181   3.808   6.638   9.090  0.0000  1.6424  1.7467
   71SLPC  H16S 6182   3.957   6.531   9.129  1.2788  0.9086  0.3372
   71SLPC  C217 6183   3.979   6.658   8.964 -0.1818  0.3941 -0.0107
   71SLPC  H17R 6184   4.089   6.641   8.961 -0.1670  0.4570  0.1179
   71SLPC  H17S 6185   3.980   6.767   8.942 -2.1917 -0.2220 -3.8593
   71SLPC  C218 6186   3.910   6.574   8.863 -0.5431  1.0263 -0.0887
   71SLPC  H18R 6187   3.800   6.592   8.864 -0.6452  0.9912  3.1657
   71SLPC  H18S 6188   3.937   6.470   8.892 -0.0010  0.7973 -1.3778
   71SLPC  H18T 6189   3.944   6.592   8.759  1.7443 -1.3051  0.1503
   71SLPC   C33 6190   3.186   6.782  10.115  0.0787  0.3956  0.0415
   71SLPC   H3X 6191   3.124   6.691  10.100 -0.3300  0.9395 -1.8525
   71SLPC   H3Y 6192   3.269   6.774  10.188  1.2746 -0.2447 -1.3308
   71SLPC   C34 6193   3.242   6.816   9.973 -0.0039 -0.1085 -0.1579
   71SLPC   H4X 6194   3.294   6.722   9.945  1.2287 -0.2533  2.2903
   71SLPC   H4Y 6195   3.324   6.891   9.981  0.1168 -0.3365  0.8896
   71SLPC   C35 6196   3.137   6.851   9.871  0.5585 -0.1782  0.6104
   71SLPC   H5X 6197   3.080   6.943   9.896  0.6585 -0.4569  1.9146
   71SLPC   H5Y 6198   3.071   6.763   9.867 -1.8004  1.4961  0.5540
   71SLPC   C36 6199   3.189   6.884   9.728 -0.1551 -0.1642 -0.8602
   71SLPC   H6X 6200   3.278   6.818   9.715  1.4121  1.0282  2.4782
   71SLPC   H6Y 6201   3.234   6.985   9.739 -0.2365 -0.3090  1.4252
   71SLPC   C37 6202   3.084   6.877   9.611 -0.3458  0.4558  0.5950
   71SLPC   H7X 6203   3.013   6.963   9.615 -1.7400 -0.6762  0.6220
   71SLPC   H7Y 6204   3.025   6.784   9.615 -0.0835  0.2775  0.3569
   71SLPC   C38 6205   3.161   6.890   9.473 -0.3651  0.2168 -0.4355
   71SLPC   H8X 6206   3.222   6.983   9.465  0.1171 -0.0668 -0.1428
   71SLPC   H8Y 6207   3.079   6.894   9.399 -0.1742 -2.7597 -0.9543
   71SLPC   C39 6208   3.244   6.755   9.451  0.0844  0.2227  0.4399
   71SLPC   H9X 6209   3.175   6.668   9.450 -0.4874  0.6716  0.3770
   71SLPC   H9Y 6210   3.329   6.728   9.517  1.1762  0.6443 -0.7494
   71SLPC  C310 6211   3.300   6.740   9.307 -0.1186  0.1357  0.2632
   71SLPC  H10X 6212   3.394   6.798   9.290  1.2088 -1.0869  2.8600
   71SLPC  H10Y 6213   3.229   6.788   9.237  0.8330 -1.3162 -1.8140
   71SLPC  C311 6214   3.321   6.600   9.252 -0.0810 -0.0575  0.1674
   71SLPC  H11X 6215   3.222   6.555   9.233  1.4548 -4.4116  1.2238
   71SLPC  H11Y 6216   3.379   6.543   9.328 -0.8988 -0.3552  0.5706
   71SLPC  C312 6217   3.406   6.603   9.122  0.8229 -0.1956 -0.2028
   71SLPC  H12X 6218   3.432   6.500   9.089 -0.9410 -1.4604  2.0551
   71SLPC  H12Y 6219   3.499   6.663   9.134  0.5270  0.8956 -2.7638
   71SLPC  C313 6220   3.335   6.674   9.002 -0.5148  0.3041 -0.5318
   71SLPC  H13X 6221   3.328   6.785   9.013  0.9069  0.4139 -0.5943
   71SLPC  H13Y 6222   3.233   6.631   8.993 -0.2919 -0.1762 -0.7862
   71SLPC  C314 6223   3.409   6.648   8.866 -0.0357 -0.3322 -0.6725
   71SLPC  H14X 6224   3.426   6.539   8.853 -1.4589 -0.6341 -0.1732
   71SLPC  H14Y 6225   3.516   6.677   8.873  1.2185 -4.5013  0.3856
   71SLPC  C315 6226   3.342   6.719   8.744 -0.3332  0.2271  0.6267
   71SLPC  H15X 6227   3.405   6.691   8.657 -3.3975 -2.9488 -0.8110
   71SLPC  H15Y 6228   3.331   6.830   8.748 -0.1561  0.2787 -0.1761
   71SLPC  C316 6229   3.207   6.650   8.708 -0.3732  0.8655  0.1689
   71SLPC  H16X 6230   3.118   6.665   8.773 -2.2353 -0.9171 -1.7794
   71SLPC  H16Y 6231   3.207   6.539   8.709  2.0929  0.7791 -1.3660
   71SLPC  C317 6232   3.165   6.680   8.561 -0.2198 -0.1628 -0.4888
   71SLPC  H17X 6233   3.224   6.613   8.495  3.1108  0.4419  1.6198
   71SLPC  H17Y 6234   3.208   6.782   8.550 -0.0062 -0.1350  0.4636
   71SLPC  C318 6235   3.022   6.688   8.535  0.4571  0.4810  0.1047
   71SLPC  H18X 6236   2.978   6.770   8.597  0.0408 -0.6809  1.3912
   71SLPC  H18Y 6237   2.967   6.594   8.557  0.9534  0.4104  1.1132
   71SLPC  H18Z 6238   3.006   6.710   8.427 -2.3566 -0.0435  0.3339
   72SLPC     N 6239   4.737   5.998  10.516  0.4090  0.0756 -0.4777
   72SLPC   C13 6240   4.719   6.023  10.375  0.3194 -0.3112  1.1401
   72SLPC  H13A 6241   4.751   5.938  10.317 -0.7157 -0.0371  0.1324
   72SLPC  H13B 6242   4.616   6.051  10.358  1.5029  3.4206 -0.8160
   72SLPC  H13C 6243   4.792   6.097  10.346  0.3051 -0.3961  0.8872
   72SLPC   C14 6244   4.886   5.980  10.535 -0.7210  0.3779  0.4640
   72SLPC  H14A 6245   4.938   5.966  10.442 -0.2021  2.1358  0.4664
   72SLPC  H14B 6246   4.924   6.070  10.580 -0.0158  0.3503 -0.0629
   72SLPC  H14C 6247   4.905   5.900  10.605  0.8129 -0.3630 -0.7335
   72SLPC   C15 6248   4.661   5.878  10.566 -0.0227 -0.5807 -0.0920
   72SLPC  H15A 6249   4.555   5.893  10.557  0.3146  1.3940 -1.3974
   72SLPC  H15B 6250   4.698   5.790  10.516 -0.5171  0.4411 -2.4213
   72SLPC  H15C 6251   4.684   5.863  10.670 -0.7049 -0.2518  0.1065
   72SLPC   C12 6252   4.699   6.118  10.595 -0.1151 -0.2835 -0.1160
   72SLPC  H12A 6253   4.592   6.128  10.592  0.0232  2.0446  0.7099
   72SLPC  H12B 6254   4.740   6.200  10.539  1.4390 -1.5727 -0.9522
   72SLPC   C11 6255   4.744   6.115  10.744  0.2170  1.2397 -0.1229
   72SLPC  H11A 6256   4.848   6.154  10.752  1.7743 -2.4770 -0.2607
   72SLPC  H11B 6257   4.743   6.014  10.791  1.7257  0.8305 -0.9089
   72SLPC     P 6258   4.514   6.133  10.865  0.0465  0.5390  0.1850
   72SLPC   O13 6259   4.543   6.021  10.954  0.3812 -0.0220 -0.1843
   72SLPC   O14 6260   4.435   6.247  10.918 -0.1570 -0.0012 -0.8225
   72SLPC   O12 6261   4.650   6.200  10.811  0.5146 -0.1728  0.1467
   72SLPC   O11 6262   4.446   6.078  10.736  0.7051 -0.1405  0.2486
   72SLPC    C1 6263   4.303   6.084  10.731 -0.1465  0.6438  0.3955
   72SLPC    HA 6264   4.257   6.029  10.816  0.8333  1.0142  1.1892
   72SLPC    HB 6265   4.275   6.191  10.731 -0.7397  0.5171 -1.0638
   72SLPC    C2 6266   4.262   6.017  10.594 -0.1126  0.3604  0.3322
   72SLPC    HS 6267   4.151   6.012  10.587  0.0060 -2.4168 -0.8902
   72SLPC   O21 6268   4.312   5.879  10.580 -0.0541  0.7247 -0.0915
   72SLPC   C21 6269   4.243   5.787  10.646  0.0016  0.1734  1.3507
   72SLPC   O22 6270   4.142   5.808  10.720  0.8695 -0.1640  0.5065
   72SLPC   C22 6271   4.301   5.649  10.623  0.1411 -0.0778 -0.5842
   72SLPC   H2R 6272   4.384   5.630  10.694  0.0307 -0.7850 -0.6437
   72SLPC   H2S 6273   4.211   5.587  10.645  0.4823 -0.3401  0.0963
   72SLPC    C3 6274   4.322   6.104  10.482 -0.0681  0.3699 -0.3967
   72SLPC    HX 6275   4.427   6.070  10.477 -0.0941  0.4708 -2.1960
   72SLPC    HY 6276   4.329   6.208  10.520 -0.4695 -0.7763  3.2554
   72SLPC   O31 6277   4.247   6.085  10.362 -0.0474 -0.5743 -0.4253
   72SLPC   C31 6278   4.324   6.051  10.256  0.5109  0.0318  0.8060
   72SLPC   O32 6279   4.447   6.047  10.257  0.4077 -0.2104  0.5842
   72SLPC   C32 6280   4.237   6.053  10.122 -0.1412  1.3562 -0.9562
   72SLPC   H2X 6281   4.268   6.140  10.060 -2.0227  2.5748 -0.3043
   72SLPC   H2Y 6282   4.132   6.068  10.157 -0.0046 -1.3739  0.9633
   72SLPC   C23 6283   4.343   5.617  10.475 -0.2544 -0.0730  0.2200
   72SLPC   H3R 6284   4.426   5.689  10.461 -0.9674  1.0576  1.5454
   72SLPC   H3S 6285   4.268   5.637  10.394 -0.4784 -0.1296  0.4129
   72SLPC   C24 6286   4.416   5.475  10.459 -0.8192  0.2325 -0.1688
   72SLPC   H4R 6287   4.335   5.399  10.473 -0.3627  0.0704  1.9057
   72SLPC   H4S 6288   4.481   5.461  10.547 -2.2560 -0.6219  0.8132
   72SLPC   C25 6289   4.493   5.458  10.328  0.7085 -0.0553 -0.1247
   72SLPC   H5R 6290   4.559   5.371  10.348  2.0945  0.8457 -0.6569
   72SLPC   H5S 6291   4.545   5.554  10.308 -0.5585  1.1447  2.0292
   72SLPC   C26 6292   4.406   5.414  10.210 -0.1644  0.1095 -0.1436
   72SLPC   H6R 6293   4.341   5.494  10.170 -1.2312 -0.4337  0.4418
   72SLPC   H6S 6294   4.341   5.327  10.236 -0.8451  0.8735  0.7442
   72SLPC   C27 6295   4.500   5.375  10.094  0.4772 -1.4274 -0.7217
   72SLPC   H7R 6296   4.591   5.326  10.136  0.0648 -2.0705 -0.5567
   72SLPC   H7S 6297   4.538   5.471  10.055 -0.7958  0.0020  1.3910
   72SLPC   C28 6298   4.431   5.289   9.984  0.1606  0.4791 -0.3218
   72SLPC   H8R 6299   4.328   5.327   9.964 -0.3290 -0.8755 -0.4520
   72SLPC   H8S 6300   4.420   5.183  10.016 -1.5536  0.2234 -1.6096
   72SLPC   C29 6301   4.507   5.304   9.860  0.2066 -0.0419 -0.0249
   72SLPC   H9R 6302   4.606   5.347   9.877  1.3728 -2.6655  0.3056
   72SLPC  C210 6303   4.472   5.266   9.736 -1.0118  0.0911  0.3778
   72SLPC  H10R 6304   4.539   5.292   9.653 -0.2333 -1.4239  0.4970
   72SLPC  C211 6305   4.354   5.193   9.682  0.1769  0.7307 -0.1935
   72SLPC  H11R 6306   4.324   5.125   9.765  2.8124  1.4386  1.4548
   72SLPC  H11S 6307   4.384   5.116   9.608 -2.6316  1.1557 -1.9523
   72SLPC  C212 6308   4.260   5.301   9.635  0.2617 -0.2307 -0.1214
   72SLPC  H12R 6309   4.242   5.384   9.704 -0.5570 -0.4718 -0.0331
   72SLPC  C213 6310   4.205   5.305   9.512  0.3658 -0.7365 -0.4218
   72SLPC  H13R 6311   4.144   5.391   9.482 -0.6464 -1.4557 -0.4809
   72SLPC  C214 6312   4.217   5.204   9.404 -0.2484  1.0527 -0.3150
   72SLPC  H14R 6313   4.260   5.108   9.441  0.7640  1.5990 -0.0325
   72SLPC  H14S 6314   4.287   5.239   9.325 -0.1352  3.6991  0.8596
   72SLPC  C215 6315   4.087   5.173   9.333 -0.1735  0.0829  1.0032
   72SLPC  H15R 6316   4.030   5.267   9.320 -2.0847 -1.1710 -0.0196
   72SLPC  H15S 6317   4.023   5.111   9.399 -2.5474 -0.8098 -1.9492
   72SLPC  C216 6318   4.097   5.109   9.191 -0.1588 -0.8096 -0.2404
   72SLPC  H16R 6319   3.995   5.074   9.166 -0.7312  0.2744  0.4869
   72SLPC  H16S 6320   4.156   5.015   9.198  0.4040 -0.4312  0.2253
   72SLPC  C217 6321   4.150   5.205   9.080 -0.2497 -0.7465 -0.5410
   72SLPC  H17R 6322   4.140   5.164   8.977  0.5891 -1.1430 -0.4759
   72SLPC  H17S 6323   4.259   5.217   9.097 -0.3788 -1.7203  1.3810
   72SLPC  C218 6324   4.088   5.343   9.087  0.5082  0.0502 -0.7034
   72SLPC  H18R 6325   4.084   5.382   8.983  3.8084  2.0384 -0.2372
   72SLPC  H18S 6326   4.148   5.410   9.152  2.5804 -2.5171  0.1692
   72SLPC  H18T 6327   3.983   5.339   9.123  1.1647 -2.7094  1.1693
   72SLPC   C33 6328   4.228   5.921  10.039  0.2033  0.2069  0.1256
   72SLPC   H3X 6329   4.136   5.920   9.976 -0.3725 -0.3532  0.9533
   72SLPC   H3Y 6330   4.217   5.844  10.118  1.4768 -1.3048 -1.1251
   72SLPC   C34 6331   4.356   5.906   9.948 -0.2226  1.0126 -0.8583
   72SLPC   H4X 6332   4.443   5.937  10.010  0.3184  1.8434 -1.9854
   72SLPC   H4Y 6333   4.345   5.975   9.862  1.3564 -0.0311 -1.9628
   72SLPC   C35 6334   4.411   5.774   9.890 -0.0249  0.3911  0.0559
   72SLPC   H5X 6335   4.383   5.696   9.964  1.4169 -0.3446 -0.1335
   72SLPC   H5Y 6336   4.520   5.781   9.872  0.2768 -1.0177  1.1100
   72SLPC   C36 6337   4.348   5.727   9.755  0.3880 -0.3523  0.0308
   72SLPC   H6X 6338   4.237   5.722   9.755  0.3903 -0.5389  0.6279
   72SLPC   H6Y 6339   4.394   5.628   9.733 -0.6220 -1.0394  0.8940
   72SLPC   C37 6340   4.399   5.814   9.633 -0.0176 -0.1487  0.4634
   72SLPC   H7X 6341   4.506   5.833   9.655  0.2947 -0.3985 -0.7405
   72SLPC   H7Y 6342   4.341   5.908   9.620  0.2501 -0.1471 -0.8702
   72SLPC   C38 6343   4.387   5.745   9.497 -0.1976 -0.4283  0.0284
   72SLPC   H8X 6344   4.452   5.655   9.501 -1.2533 -1.2369 -0.6833
   72SLPC   H8Y 6345   4.429   5.817   9.423 -1.6846  0.3402 -0.0918
   72SLPC   C39 6346   4.247   5.689   9.462 -0.0525  0.3400  0.2418
   72SLPC   H9X 6347   4.180   5.775   9.481 -1.3923 -0.2670 -1.3990
   72SLPC   H9Y 6348   4.219   5.616   9.541  1.4862 -0.2688  0.2500
   72SLPC  C310 6349   4.235   5.633   9.315  0.1867 -0.0895 -0.7481
   72SLPC  H10X 6350   4.131   5.626   9.277  1.1993  0.0033 -3.8376
   72SLPC  H10Y 6351   4.282   5.532   9.308  0.6466  0.2025 -2.1853
   72SLPC  C311 6352   4.285   5.737   9.209 -0.0623  0.0868  0.4606
   72SLPC  H11X 6353   4.395   5.718   9.213 -0.1904 -0.4644  1.5723
   72SLPC  H11Y 6354   4.266   5.834   9.259  2.8946 -1.3813  5.0574
   72SLPC  C312 6355   4.209   5.716   9.074 -1.2212  0.1480 -0.1804
   72SLPC  H12X 6356   4.108   5.755   9.098 -0.7200  1.5607 -0.3079
   72SLPC  H12Y 6357   4.218   5.607   9.051  0.5605  0.1020  0.5541
   72SLPC  C313 6358   4.252   5.816   8.958 -0.4357 -0.1466  0.1711
   72SLPC  H13X 6359   4.363   5.808   8.953 -0.2401  2.2150 -0.4363
   72SLPC  H13Y 6360   4.222   5.914   9.002 -0.9156 -0.7126  1.1438
   72SLPC  C314 6361   4.199   5.771   8.826  0.6399 -0.6946 -0.1634
   72SLPC  H14X 6362   4.088   5.781   8.836  0.3216 -1.1080 -2.5573
   72SLPC  H14Y 6363   4.204   5.661   8.812 -0.0409 -0.9144  1.1733
   72SLPC  C315 6364   4.258   5.842   8.700  0.0598  0.0968 -0.4500
   72SLPC  H15X 6365   4.365   5.809   8.701  0.8125  2.2140  2.2701
   72SLPC  H15Y 6366   4.273   5.950   8.717 -0.0492 -0.1563  1.5667
   72SLPC  C316 6367   4.193   5.798   8.571 -0.4598  0.7164  0.4939
   72SLPC  H16X 6368   4.084   5.821   8.577 -0.3245  1.0832  1.7145
   72SLPC  H16Y 6369   4.198   5.688   8.556  1.9775  0.8732 -0.2009
   72SLPC  C317 6370   4.258   5.871   8.454  0.3362  0.2703  0.2687
   72SLPC  H17X 6371   4.272   5.976   8.487 -0.1938 -0.7168  4.1121
   72SLPC  H17Y 6372   4.195   5.883   8.364  0.3426 -0.5576  0.1471
   72SLPC  C318 6373   4.386   5.800   8.405  0.1660 -0.2533  0.5787
   72SLPC  H18X 6374   4.445   5.774   8.496 -0.2607 -0.8945  0.6718
   72SLPC  H18Y 6375   4.446   5.871   8.344 -0.5860 -0.3204 -0.2454
   72SLPC  H18Z 6376   4.364   5.707   8.350 -1.2109  0.7806 -0.6690
   73SLPC     N 6377   4.882   3.987  11.029 -0.0298 -0.1825  0.4288
   73SLPC   C13 6378   4.846   4.132  11.056  0.2655  0.2558  0.3030
   73SLPC  H13A 6379   4.934   4.190  11.029  3.9229 -3.4399  3.0301
   73SLPC  H13B 6380   4.750   4.158  11.013  1.0486 -0.4782 -2.0328
   73SLPC  H13C 6381   4.839   4.144  11.163 -2.5642  0.4521  0.1820
   73SLPC   C14 6382   4.768   3.900  11.082 -0.4016 -0.1237 -0.0033
   73SLPC  H14A 6383   4.771   3.797  11.050  1.1741  0.2856 -1.3345
   73SLPC  H14B 6384   4.775   3.906  11.189 -0.1009 -0.9334  0.0275
   73SLPC  H14C 6385   4.674   3.948  11.057  0.1556  1.2253  0.4268
   73SLPC   C15 6386   5.014   3.944  11.088  0.4122 -0.4476  0.0896
   73SLPC  H15A 6387   5.081   4.021  11.051 -0.6156 -0.5694 -2.1885
   73SLPC  H15B 6388   5.013   3.944  11.196  2.1286  0.9482  0.1660
   73SLPC  H15C 6389   5.050   3.851  11.047 -0.3931 -0.0694 -1.5464
   73SLPC   C12 6390   4.883   3.978  10.872 -0.4702 -0.7864  0.5909
   73SLPC  H12A 6391   4.948   4.054  10.832 -0.2728 -1.1599  0.2012
   73SLPC  H12B 6392   4.784   4.001  10.834 -0.0945  0.2921  0.2079
   73SLPC   C11 6393   4.913   3.836  10.804  0.2720  0.4601  0.0120
   73SLPC  H11A 6394   4.929   3.851  10.695 -0.0240  2.3249  0.1858
   73SLPC  H11B 6395   4.826   3.769  10.823  0.8966 -1.5990 -3.6441
   73SLPC     P 6396   5.038   3.633  10.912 -0.4297 -0.1581  0.0021
   73SLPC   O13 6397   5.185   3.604  10.915 -0.8998  0.4187 -0.0612
   73SLPC   O14 6398   4.969   3.617  11.038  0.0587 -0.0172 -0.5041
   73SLPC   O12 6399   5.029   3.779  10.859 -0.2912 -0.0276  0.1144
   73SLPC   O11 6400   4.979   3.546  10.798 -0.6700 -0.4844  0.2628
   73SLPC    C1 6401   4.874   3.454  10.807 -0.3515 -0.3074 -0.4096
   73SLPC    HA 6402   4.863   3.417  10.911 -2.5320 -1.2784 -0.9342
   73SLPC    HB 6403   4.782   3.507  10.775 -0.4794 -0.5753 -0.4882
   73SLPC    C2 6404   4.895   3.321  10.725 -0.8635 -0.2767 -0.4196
   73SLPC    HS 6405   4.986   3.280  10.774 -1.3169  0.1506  0.8208
   73SLPC   O21 6406   4.922   3.360  10.588 -0.4387  0.6004 -0.0156
   73SLPC   C21 6407   5.029   3.295  10.532  0.3104 -0.1098 -0.0544
   73SLPC   O22 6408   5.106   3.225  10.594 -0.0338  0.1809 -0.1825
   73SLPC   C22 6409   5.024   3.312  10.374 -0.1579  0.5504  0.6248
   73SLPC   H2R 6410   5.129   3.343  10.353  0.3840 -1.3328  0.3647
   73SLPC   H2S 6411   5.011   3.213  10.325  1.1710  0.9810 -0.7077
   73SLPC    C3 6412   4.775   3.217  10.741  0.5523 -0.5359 -0.2218
   73SLPC    HX 6413   4.690   3.279  10.705 -0.8311 -0.7476  2.3988
   73SLPC    HY 6414   4.743   3.196  10.845 -2.3438  0.2644 -0.8582
   73SLPC   O31 6415   4.799   3.102  10.656 -0.5793  0.0037 -0.2795
   73SLPC   C31 6416   4.866   3.010  10.721  0.1377 -0.8445  0.6505
   73SLPC   O32 6417   4.872   3.002  10.845 -0.6368  0.1913  0.0197
   73SLPC   C32 6418   4.914   2.898  10.630 -0.3521  0.1141 -0.1376
   73SLPC   H2X 6419   4.910   2.802  10.686  1.4748  0.7270  1.1360
   73SLPC   H2Y 6420   5.018   2.926  10.601  0.3955 -2.1923  0.0862
   73SLPC   C23 6421   4.926   3.418  10.322  0.1712 -0.3131 -0.0927
   73SLPC   H3R 6422   4.943   3.512  10.379 -0.0182 -0.8731  0.9111
   73SLPC   H3S 6423   4.823   3.377  10.327  0.6298 -1.5734 -0.6969
   73SLPC   C24 6424   4.928   3.443  10.170 -0.3755 -0.1275  0.6204
   73SLPC   H4R 6425   4.844   3.514  10.152 -2.7397 -3.1994 -1.3893
   73SLPC   H4S 6426   4.899   3.350  10.117  0.4599  0.0642 -0.2044
   73SLPC   C25 6427   5.064   3.503  10.125 -0.2719  0.3755 -0.4271
   73SLPC   H5R 6428   5.134   3.419  10.104 -0.7396  0.2429 -1.5204
   73SLPC   H5S 6429   5.111   3.550  10.214  1.2024 -0.2546 -0.8309
   73SLPC   C26 6430   5.065   3.592  10.002 -0.3758 -0.6816 -0.5388
   73SLPC   H6R 6431   5.170   3.623   9.988 -0.6486  0.6170  0.1341
   73SLPC   H6S 6432   5.019   3.691  10.025  1.3628 -0.3164  1.6767
   73SLPC   C27 6433   4.997   3.532   9.885 -0.6788 -0.1293 -0.4775
   73SLPC   H7R 6434   4.890   3.531   9.912 -0.7697  0.4607 -0.7971
   73SLPC   H7S 6435   5.043   3.432   9.867  4.7738  2.1697 -1.4579
   73SLPC   C28 6436   5.003   3.618   9.752 -0.2858  0.6148  0.3079
   73SLPC   H8R 6437   4.972   3.722   9.776 -0.5847  0.5869  0.0536
   73SLPC   H8S 6438   4.927   3.560   9.696 -1.2869  0.8284  1.3856
   73SLPC   C29 6439   5.129   3.624   9.672  0.2079  0.1390 -0.0934
   73SLPC   H9R 6440   5.207   3.673   9.733  0.5801 -0.1734 -0.3131
   73SLPC  C210 6441   5.152   3.594   9.544 -0.6161  0.6053  0.5278
   73SLPC  H10R 6442   5.249   3.606   9.492  0.0907 -1.2499  1.3479
   73SLPC  C211 6443   5.060   3.538   9.442  0.6119  0.1419 -0.3555
   73SLPC  H11R 6444   4.965   3.505   9.488 -0.0465  1.1480 -0.9683
   73SLPC  H11S 6445   5.111   3.452   9.394 -0.3813  0.0040 -1.1859
   73SLPC  C212 6446   5.031   3.637   9.333 -0.2332  0.2435  0.1131
   73SLPC  H12R 6447   5.028   3.738   9.376  1.9388  0.7375 -0.7560
   73SLPC  C213 6448   5.005   3.628   9.195  0.0024  0.7718 -0.6218
   73SLPC  H13R 6449   4.982   3.718   9.137  0.3896  0.3100 -1.5120
   73SLPC  C214 6450   4.986   3.498   9.123 -0.0392 -1.0206  0.6245
   73SLPC  H14R 6451   4.890   3.490   9.066  0.0131 -1.2920  0.5748
   73SLPC  H14S 6452   5.004   3.407   9.184  1.3448 -1.0799  0.1575
   73SLPC  C215 6453   5.088   3.497   9.009 -0.0706 -1.0932 -0.0443
   73SLPC  H15R 6454   5.059   3.577   8.938  1.9465 -0.4273 -0.2000
   73SLPC  H15S 6455   5.066   3.405   8.950  0.6185  0.3509 -2.7574
   73SLPC  C216 6456   5.236   3.495   9.035 -0.2981  0.3855  0.1846
   73SLPC  H16R 6457   5.256   3.416   9.110 -1.3827  0.9944  1.1420
   73SLPC  H16S 6458   5.270   3.591   9.079  1.3014 -0.2397  0.3956
   73SLPC  C217 6459   5.315   3.466   8.907 -0.1640  0.4199  0.3146
   73SLPC  H17R 6460   5.298   3.553   8.840 -1.1204  1.3341  1.7100
   73SLPC  H17S 6461   5.288   3.369   8.859 -0.0264  0.3370  0.4040
   73SLPC  C218 6462   5.463   3.459   8.935 -0.4583  0.0507 -0.3486
   73SLPC  H18R 6463   5.494   3.364   8.984  0.2277  0.2468 -0.3800
   73SLPC  H18S 6464   5.493   3.538   9.007  0.1073  0.6825 -1.2610
   73SLPC  H18T 6465   5.525   3.453   8.843  0.4331 -0.5571  0.2782
   73SLPC   C33 6466   4.819   2.879  10.505  0.0020  0.7977 -1.0470
   73SLPC   H3X 6467   4.711   2.875  10.532 -0.2755  0.9081 -2.1119
   73SLPC   H3Y 6468   4.845   2.781  10.460 -2.1097 -0.8369  0.9970
   73SLPC   C34 6469   4.842   2.981  10.390 -0.3709 -0.0917 -0.8167
   73SLPC   H4X 6470   4.951   3.001  10.386  0.1475 -2.1847  1.1081
   73SLPC   H4Y 6471   4.786   3.073  10.420  1.6694  0.4737  1.5823
   73SLPC   C35 6472   4.809   2.920  10.253 -0.4610 -0.3038 -0.4345
   73SLPC   H5X 6473   4.702   2.925  10.227 -0.7206  1.3216  0.7828
   73SLPC   H5Y 6474   4.849   2.816  10.263  0.4434  0.1971  2.1156
   73SLPC   C36 6475   4.885   2.983  10.138  0.4812 -0.1433 -0.2627
   73SLPC   H6X 6476   4.992   2.954  10.145  0.4609  0.2030  2.3028
   73SLPC   H6Y 6477   4.895   3.093  10.147  2.1802 -0.0283 -2.4099
   73SLPC   C37 6478   4.821   2.938  10.007  0.1796  0.1755 -1.3051
   73SLPC   H7X 6479   4.717   2.976  10.005 -0.4724 -1.4453 -0.4350
   73SLPC   H7Y 6480   4.814   2.828  10.019 -0.5834  0.5421  4.1146
   73SLPC   C38 6481   4.884   2.994   9.882 -0.2838  0.3815 -0.2006
   73SLPC   H8X 6482   4.987   2.957   9.864 -0.9495 -0.9402 -1.5521
   73SLPC   H8Y 6483   4.889   3.102   9.905  0.4190  0.1086  1.0389
   73SLPC   C39 6484   4.804   2.970   9.754  0.6031  0.3384 -0.0632
   73SLPC   H9X 6485   4.701   3.006   9.775 -0.3620 -1.3599 -1.5965
   73SLPC   H9Y 6486   4.810   2.860   9.745  1.1224  0.2324  1.3011
   73SLPC  C310 6487   4.870   3.037   9.639 -0.3573 -0.1275  0.6371
   73SLPC  H10X 6488   4.975   3.002   9.633 -0.3024 -0.4844  2.7111
   73SLPC  H10Y 6489   4.883   3.147   9.644 -0.9011 -0.0803  1.1203
   73SLPC  C311 6490   4.793   3.009   9.514 -0.5037  0.1716 -0.1703
   73SLPC  H11X 6491   4.690   3.049   9.514 -0.1202  1.2882 -2.4754
   73SLPC  H11Y 6492   4.783   2.902   9.485  0.9812  1.0494 -4.7501
   73SLPC  C312 6493   4.857   3.082   9.392 -0.1247 -0.4165 -0.0060
   73SLPC  H12X 6494   4.957   3.035   9.377 -0.4290 -1.5932  1.3294
   73SLPC  H12Y 6495   4.866   3.187   9.425 -0.0505 -0.1398 -0.9029
   73SLPC  C313 6496   4.777   3.061   9.258 -0.4169  0.2646 -0.3545
   73SLPC  H13X 6497   4.669   3.070   9.285 -0.1578 -3.4735  2.6255
   73SLPC  H13Y 6498   4.797   2.955   9.232 -2.8522 -0.3569  0.0256
   73SLPC  C314 6499   4.833   3.149   9.150  0.0812 -0.3382 -0.4996
   73SLPC  H14X 6500   4.943   3.140   9.153 -0.0081 -1.9772 -1.1426
   73SLPC  H14Y 6501   4.807   3.255   9.171 -0.0148 -0.6793  1.2643
   73SLPC  C315 6502   4.768   3.116   9.014 -0.7856  0.4066  0.5942
   73SLPC  H15X 6503   4.659   3.137   9.011 -0.8016  0.3201 -2.6098
   73SLPC  H15Y 6504   4.777   3.013   8.975 -0.4812  0.6628 -0.0365
   73SLPC  C316 6505   4.844   3.199   8.906  0.0693 -0.5461  0.3336
   73SLPC  H16X 6506   4.945   3.154   8.918  1.9267  2.3262 -2.7308
   73SLPC  H16Y 6507   4.839   3.309   8.925  0.5456 -0.6778  1.2963
   73SLPC  C317 6508   4.802   3.173   8.759 -1.2656  0.1054  0.1129
   73SLPC  H17X 6509   4.713   3.229   8.724 -0.8601 -0.6218 -2.2502
   73SLPC  H17Y 6510   4.773   3.066   8.755 -0.1334 -0.2040 -0.2131
   73SLPC  C318 6511   4.912   3.204   8.658  0.2224 -0.8683  0.6697
   73SLPC  H18X 6512   4.872   3.195   8.554  1.3784 -2.6680  0.3388
   73SLPC  H18Y 6513   4.998   3.135   8.657  2.6137  1.9421  0.5308
   73SLPC  H18Z 6514   4.954   3.305   8.678  0.3424 -0.7413 -0.1942
   74SLPC     N 6515   5.580   5.874  10.562 -0.1414  0.0450  0.4313
   74SLPC   C13 6516   5.500   5.859  10.683 -0.4403 -0.1815 -0.1777
   74SLPC  H13A 6517   5.404   5.908  10.683  0.1297  0.9844  1.1106
   74SLPC  H13B 6518   5.482   5.753  10.694  0.1214 -0.2938 -0.2995
   74SLPC  H13C 6519   5.549   5.898  10.771 -0.3828 -1.7353  0.5086
   74SLPC   C14 6520   5.700   5.790  10.587  0.0273 -0.2250 -0.4973
   74SLPC  H14A 6521   5.778   5.808  10.514  0.6712  0.4767  0.3397
   74SLPC  H14B 6522   5.739   5.799  10.687 -4.1538  1.0787  1.1895
   74SLPC  H14C 6523   5.674   5.685  10.584  3.4205 -1.1972 -0.7625
   74SLPC   C15 6524   5.622   6.016  10.567  0.4482 -0.5395  0.2423
   74SLPC  H15A 6525   5.709   6.027  10.631  1.4062 -0.9648 -0.9538
   74SLPC  H15B 6526   5.649   6.054  10.470 -0.6687 -0.2096  0.0429
   74SLPC  H15C 6527   5.537   6.073  10.602 -0.1188 -0.9660 -0.3968
   74SLPC   C12 6528   5.510   5.837  10.436  1.1957 -0.8591 -0.5449
   74SLPC  H12A 6529   5.473   5.735  10.438 -1.6024  0.0684 -1.0476
   74SLPC  H12B 6530   5.594   5.839  10.368  2.2762 -3.0986  0.6005
   74SLPC   C11 6531   5.387   5.912  10.401 -0.5738  0.3329  0.3011
   74SLPC  H11A 6532   5.356   5.883  10.299  1.3141  0.7284 -0.4200
   74SLPC  H11B 6533   5.415   6.019  10.399 -1.7569  0.6441 -0.0321
   74SLPC     P 6534   5.194   5.780  10.516  0.2755  0.6893 -0.6751
   74SLPC   O13 6535   5.148   5.785  10.653  0.8937  0.0029 -0.1506
   74SLPC   O14 6536   5.092   5.783  10.409  0.1347  0.1390  0.0163
   74SLPC   O12 6537   5.285   5.904  10.496  0.0473 -0.5589  0.0234
   74SLPC   O11 6538   5.286   5.662  10.481  0.1392 -0.8542  0.0528
   74SLPC    C1 6539   5.232   5.532  10.468 -0.0448 -0.5860 -0.1030
   74SLPC    HA 6540   5.248   5.483  10.566  0.3363  2.1360  1.3175
   74SLPC    HB 6541   5.126   5.526  10.435 -0.1753 -0.3749  0.2586
   74SLPC    C2 6542   5.317   5.443  10.370  0.1775 -0.2093  0.0660
   74SLPC    HS 6543   5.426   5.445  10.393  0.3993 -0.3868 -0.9004
   74SLPC   O21 6544   5.295   5.486  10.237  0.3783 -0.3919  0.2556
   74SLPC   C21 6545   5.384   5.568  10.185 -0.0640  0.6187 -0.0779
   74SLPC   O22 6546   5.484   5.601  10.245  0.3745 -0.1847 -0.1637
   74SLPC   C22 6547   5.344   5.607  10.040 -0.0390 -0.2816  0.1564
   74SLPC   H2R 6548   5.261   5.544  10.002  0.5091 -1.9642  1.6415
   74SLPC   H2S 6549   5.299   5.707  10.056  0.0143  0.1200 -1.9036
   74SLPC    C3 6550   5.284   5.282  10.378 -0.1773  0.0248  0.5709
   74SLPC    HX 6551   5.173   5.276  10.382 -0.1174 -0.5766  1.7582
   74SLPC    HY 6552   5.313   5.242  10.478 -2.1705 -0.3643  1.0416
   74SLPC   O31 6553   5.349   5.203  10.270  0.7564 -0.2105 -0.5003
   74SLPC   C31 6554   5.277   5.194  10.159 -0.2240  0.7208  0.0175
   74SLPC   O32 6555   5.156   5.207  10.145  0.0379  0.3207  0.1998
   74SLPC   C32 6556   5.382   5.160  10.053 -0.4475  0.2554 -0.0047
   74SLPC   H2X 6557   5.435   5.067  10.084  0.2570  0.5828 -0.2065
   74SLPC   H2Y 6558   5.452   5.246  10.060 -0.0953  0.2111 -2.1745
   74SLPC   C23 6559   5.458   5.624   9.942  0.4986  0.1528 -0.1593
   74SLPC   H3R 6560   5.517   5.530   9.940 -0.0390 -0.2498  1.3289
   74SLPC   H3S 6561   5.520   5.705   9.985 -0.1820  0.0595  1.0495
   74SLPC   C24 6562   5.400   5.660   9.804  0.5764  0.4531  0.1235
   74SLPC   H4R 6563   5.323   5.740   9.811 -0.4499 -0.1099 -3.2084
   74SLPC   H4S 6564   5.347   5.565   9.779  3.0271 -1.1153  0.4858
   74SLPC   C25 6565   5.494   5.672   9.682  0.2989 -0.5416  0.8392
   74SLPC   H5R 6566   5.562   5.584   9.692 -0.9277 -1.7714 -1.0281
   74SLPC   H5S 6567   5.557   5.762   9.700 -0.4745 -0.1534  1.6222
   74SLPC   C26 6568   5.422   5.678   9.547  0.1677 -0.1239 -0.6853
   74SLPC   H6R 6569   5.369   5.775   9.539  0.7386  0.2413 -0.1512
   74SLPC   H6S 6570   5.344   5.599   9.553  0.2610 -0.3001 -1.6316
   74SLPC   C27 6571   5.503   5.649   9.424  0.1147 -0.2015 -0.1542
   74SLPC   H7R 6572   5.565   5.558   9.432 -0.1804 -0.5797 -1.9264
   74SLPC   H7S 6573   5.577   5.732   9.419 -0.2656  0.2236  0.8863
   74SLPC   C28 6574   5.421   5.641   9.292  0.4894  0.5743 -0.1937
   74SLPC   H8R 6575   5.345   5.721   9.278 -0.1406 -0.3974 -2.7740
   74SLPC   H8S 6576   5.369   5.543   9.301  1.6333 -0.1405 -1.1641
   74SLPC   C29 6577   5.504   5.632   9.163  0.8202  0.2445  0.4742
   74SLPC   H9R 6578   5.538   5.533   9.127 -0.4963 -0.6889  1.6888
   74SLPC  C210 6579   5.531   5.732   9.080 -0.0203  0.0671 -0.7316
   74SLPC  H10R 6580   5.595   5.704   8.994 -0.1463 -1.2761 -0.4185
   74SLPC  C211 6581   5.485   5.877   9.104  0.0103 -0.6375 -0.4737
   74SLPC  H11R 6582   5.544   5.931   9.182 -0.2231 -2.8073  1.3309
   74SLPC  H11S 6583   5.375   5.884   9.117 -0.0482  1.8672 -1.6376
   74SLPC  C212 6584   5.514   5.943   8.974 -0.6082 -0.3296  0.0050
   74SLPC  H12R 6585   5.457   5.900   8.890 -3.2355  0.4633  1.2741
   74SLPC  C213 6586   5.619   6.020   8.948  0.6514  1.3179 -0.3928
   74SLPC  H13R 6587   5.628   6.046   8.842 -3.8405 -0.7104 -1.4992
   74SLPC  C214 6588   5.728   6.068   9.038  0.1965 -0.3131 -0.0864
   74SLPC  H14R 6589   5.762   5.987   9.106  1.6179  0.4192  0.0937
   74SLPC  H14S 6590   5.692   6.158   9.092 -0.4437  0.8172 -2.2875
   74SLPC  C215 6591   5.861   6.100   8.968  0.2815 -0.2963 -0.3454
   74SLPC  H15R 6592   5.887   6.009   8.909  0.3921 -0.4256 -0.1011
   74SLPC  H15S 6593   5.933   6.104   9.052 -1.9227  1.9714  1.5847
   74SLPC  C216 6594   5.859   6.235   8.894 -1.1171 -0.3767  0.1160
   74SLPC  H16R 6595   5.826   6.315   8.965 -0.4742 -1.6447  1.9223
   74SLPC  H16S 6596   5.777   6.231   8.819  0.4241  0.3202 -1.6581
   74SLPC  C217 6597   5.992   6.271   8.819 -0.6879 -0.7954  0.2001
   74SLPC  H17R 6598   6.018   6.191   8.746  1.3258 -0.4365  0.4628
   74SLPC  H17S 6599   6.065   6.261   8.902 -0.6833  1.4328  0.5223
   74SLPC  C218 6600   6.003   6.414   8.764 -0.7303  0.5083  0.2659
   74SLPC  H18R 6601   5.938   6.431   8.676  1.1186  1.9716 -0.8980
   74SLPC  H18S 6602   6.100   6.442   8.718 -0.2402 -0.2887  0.7924
   74SLPC  H18T 6603   5.976   6.482   8.848 -0.9404  0.1721  0.4729
   74SLPC   C33 6604   5.323   5.152   9.908 -0.2127 -0.0705 -0.2071
   74SLPC   H3X 6605   5.260   5.240   9.887 -0.1192 -0.2757 -1.3876
   74SLPC   H3Y 6606   5.261   5.061   9.894 -0.5951  0.1950 -0.2587
   74SLPC   C34 6607   5.436   5.148   9.802 -0.1240  0.1073 -0.0822
   74SLPC   H4X 6608   5.395   5.100   9.710  1.4536 -1.7266  0.1174
   74SLPC   H4Y 6609   5.515   5.086   9.850 -1.0968 -2.0936 -1.1677
   74SLPC   C35 6610   5.492   5.290   9.770  0.0147  1.0160  0.0356
   74SLPC   H5X 6611   5.529   5.328   9.867 -0.5097  0.8769  0.2903
   74SLPC   H5Y 6612   5.411   5.354   9.727 -0.5643  0.2631 -0.0165
   74SLPC   C36 6613   5.611   5.285   9.673  0.0447  0.3565 -0.0812
   74SLPC   H6X 6614   5.691   5.222   9.717  0.3040  0.5096 -0.3291
   74SLPC   H6Y 6615   5.648   5.389   9.659  0.7899 -0.1604 -2.3611
   74SLPC   C37 6616   5.572   5.220   9.540 -0.7092  0.9251  0.5307
   74SLPC   H7X 6617   5.483   5.261   9.488 -0.4314  0.5552 -0.2604
   74SLPC   H7Y 6618   5.570   5.110   9.554  1.9335  0.6453 -0.6171
   74SLPC   C38 6619   5.686   5.247   9.434 -0.0637 -0.2601  0.4590
   74SLPC   H8X 6620   5.788   5.246   9.480  0.2429  1.3646 -0.1101
   74SLPC   H8Y 6621   5.683   5.354   9.402 -2.0411 -0.0552  1.1868
   74SLPC   C39 6622   5.678   5.152   9.320  0.7321 -0.5062 -0.3742
   74SLPC   H9X 6623   5.580   5.178   9.276 -1.6330 -1.1880  3.9119
   74SLPC   H9Y 6624   5.673   5.049   9.361  0.7728  0.6297  2.8059
   74SLPC  C310 6625   5.796   5.174   9.223  0.0165  0.3639  0.7536
   74SLPC  H10X 6626   5.796   5.092   9.148 -0.9801  1.8069 -0.9223
   74SLPC  H10Y 6627   5.894   5.177   9.275  1.0398 -0.1360 -1.0717
   74SLPC  C311 6628   5.775   5.303   9.144 -0.0839  0.1819  0.6497
   74SLPC  H11X 6629   5.792   5.396   9.203  0.7813 -0.9500  2.2440
   74SLPC  H11Y 6630   5.674   5.302   9.096  0.6560 -0.5637 -0.9706
   74SLPC  C312 6631   5.871   5.322   9.028  0.1050 -0.2174 -0.7480
   74SLPC  H12X 6632   5.862   5.247   8.948  3.2890 -1.2501 -0.2914
   74SLPC  H12Y 6633   5.971   5.296   9.071 -0.7134 -0.1698  1.3154
   74SLPC  C313 6634   5.862   5.462   8.973 -0.6609 -0.0621 -0.1808
   74SLPC  H13X 6635   5.959   5.480   8.922 -1.1376  1.3666 -0.6193
   74SLPC  H13Y 6636   5.866   5.539   9.053 -0.0006  0.6489 -0.8847
   74SLPC  C314 6637   5.743   5.478   8.880  0.7486  0.4026 -0.3349
   74SLPC  H14X 6638   5.647   5.466   8.934  1.3729  0.8874  0.9209
   74SLPC  H14Y 6639   5.743   5.408   8.794  1.3215  0.8214 -0.6834
   74SLPC  C315 6640   5.762   5.615   8.808  0.0180  1.0793  0.0331
   74SLPC  H15X 6641   5.859   5.614   8.754 -0.1258 -0.2876 -0.2380
   74SLPC  H15Y 6642   5.767   5.691   8.889  0.3358  0.4396  0.6220
   74SLPC  C316 6643   5.644   5.650   8.721  0.3125  0.4111  0.3843
   74SLPC  H16X 6644   5.557   5.665   8.788 -0.2441 -0.2663 -0.1701
   74SLPC  H16Y 6645   5.623   5.571   8.646 -3.5470  1.5094  0.1036
   74SLPC  C317 6646   5.666   5.781   8.640 -0.0209 -0.4402 -0.4304
   74SLPC  H17X 6647   5.758   5.768   8.578 -0.2314 -1.2167 -0.5894
   74SLPC  H17Y 6648   5.687   5.856   8.719  0.6527  2.0516 -2.8255
   74SLPC  C318 6649   5.551   5.815   8.555 -0.1365 -0.3849  0.5705
   74SLPC  H18X 6650   5.534   5.740   8.475  1.0503  0.1808 -0.2331
   74SLPC  H18Y 6651   5.568   5.912   8.503  0.1680 -0.0417  1.2984
   74SLPC  H18Z 6652   5.455   5.813   8.611 -1.1382  0.8421 -1.0325
   75SLPC     N 6653   3.261   1.357   6.470 -0.4443 -0.1557 -0.1556
   75SLPC   C13 6654   3.157   1.253   6.497 -0.6092  0.5612  0.4374
   75SLPC  H13A 6655   3.153   1.165   6.434  0.0324  1.5182 -1.0072
   75SLPC  H13B 6656   3.166   1.220   6.600  1.2791 -0.0213  0.1400
   75SLPC  H13C 6657   3.059   1.297   6.487 -0.2991  1.0531 -0.6151
   75SLPC   C14 6658   3.211   1.494   6.502  0.0142  0.1576  0.5390
   75SLPC  H14A 6659   3.178   1.493   6.605  0.8541 -1.8883  0.8402
   75SLPC  H14B 6660   3.287   1.568   6.486  1.3746 -0.3492  3.9060
   75SLPC  H14C 6661   3.122   1.528   6.451  0.9318  2.8690  0.5793
   75SLPC   C15 6662   3.299   1.348   6.324  0.9981  0.2558 -0.4672
   75SLPC  H15A 6663   3.212   1.361   6.261 -1.0168 -2.3091  1.5932
   75SLPC  H15B 6664   3.369   1.422   6.287 -0.3034  2.9248  2.0246
   75SLPC  H15C 6665   3.338   1.251   6.300 -3.2870 -1.7334 -0.3515
   75SLPC   C12 6666   3.383   1.332   6.564  0.5481 -0.4878  0.8713
   75SLPC  H12A 6667   3.417   1.229   6.561 -0.2771 -0.7850 -3.0102
   75SLPC  H12B 6668   3.360   1.365   6.664  1.5903 -1.2698  1.3924
   75SLPC   C11 6669   3.512   1.424   6.538  0.4232  0.4961  0.6184
   75SLPC  H11A 6670   3.555   1.388   6.443  0.5049  1.7843  0.1375
   75SLPC  H11B 6671   3.592   1.409   6.614 -1.5388 -1.6558  2.3981
   75SLPC     P 6672   3.514   1.672   6.634 -0.6820  0.0293  0.0812
   75SLPC   O13 6673   3.662   1.678   6.664 -0.2240 -0.4452  0.1604
   75SLPC   O14 6674   3.450   1.797   6.588  0.7065 -0.5419  0.7651
   75SLPC   O12 6675   3.488   1.563   6.523  0.5263  0.5868 -0.5548
   75SLPC   O11 6676   3.435   1.605   6.756  0.3684 -0.6064 -0.1087
   75SLPC    C1 6677   3.394   1.702   6.858  0.1075  0.2193 -0.2251
   75SLPC    HA 6678   3.349   1.796   6.821 -0.7558 -0.5181 -1.1063
   75SLPC    HB 6679   3.316   1.660   6.925 -1.1904  2.2517 -0.4053
   75SLPC    C2 6680   3.509   1.733   6.957 -0.1338 -0.3963  0.0791
   75SLPC    HS 6681   3.596   1.782   6.909  1.5114 -1.8256  1.4460
   75SLPC   O21 6682   3.555   1.623   7.041 -0.1251 -0.2794 -0.3357
   75SLPC   C21 6683   3.681   1.617   7.070 -0.1360  0.4610 -0.2261
   75SLPC   O22 6684   3.770   1.690   7.026  0.3280  0.4804 -0.3033
   75SLPC   C22 6685   3.702   1.509   7.169  0.3707  0.0991  0.0518
   75SLPC   H2R 6686   3.658   1.415   7.128  0.8997 -0.3629  0.5309
   75SLPC   H2S 6687   3.813   1.502   7.180  0.5098 -0.4805 -1.4108
   75SLPC    C3 6688   3.449   1.837   7.058 -0.4917  0.0288  0.1519
   75SLPC    HX 6689   3.399   1.765   7.127 -0.3472 -0.7029 -0.4864
   75SLPC    HY 6690   3.375   1.902   7.007  1.6983  0.5168 -2.6319
   75SLPC   O31 6691   3.551   1.907   7.139  0.7442  0.7073  0.2251
   75SLPC   C31 6692   3.596   2.013   7.078  0.0860 -0.0379 -0.5263
   75SLPC   O32 6693   3.551   2.052   6.968  0.0051 -0.2709  0.3260
   75SLPC   C32 6694   3.704   2.090   7.165  0.0455 -0.8895  0.0203
   75SLPC   H2X 6695   3.656   2.107   7.263  1.8545 -2.1353  1.1974
   75SLPC   H2Y 6696   3.726   2.192   7.126  0.4085  0.2667  3.0080
   75SLPC   C23 6697   3.622   1.532   7.302  0.4209 -0.3600  0.2428
   75SLPC   H3R 6698   3.614   1.435   7.355 -1.6050 -0.0715  0.5191
   75SLPC   H3S 6699   3.517   1.563   7.285  0.5480 -0.1736 -0.2118
   75SLPC   C24 6700   3.705   1.626   7.389 -0.6239 -0.0503  0.5914
   75SLPC   H4R 6701   3.714   1.722   7.333 -1.0972  0.7268  1.7988
   75SLPC   H4S 6702   3.809   1.593   7.411 -0.3909 -1.0554 -1.7994
   75SLPC   C25 6703   3.642   1.659   7.528 -0.2418  0.6999  0.6047
   75SLPC   H5R 6704   3.533   1.676   7.510 -0.4941 -0.1391  1.2538
   75SLPC   H5S 6705   3.682   1.757   7.562 -0.4561  1.4704 -1.2231
   75SLPC   C26 6706   3.659   1.546   7.633 -0.4271  0.3329 -0.1753
   75SLPC   H6R 6707   3.768   1.525   7.626 -0.0308  2.5440 -1.5285
   75SLPC   H6S 6708   3.608   1.450   7.608  1.4260 -0.7923  0.1925
   75SLPC   C27 6709   3.638   1.574   7.782  0.0553 -0.4956  0.2518
   75SLPC   H7R 6710   3.529   1.591   7.795 -0.0946 -0.8902 -0.4062
   75SLPC   H7S 6711   3.691   1.669   7.801  0.7710 -0.6565 -0.8315
   75SLPC   C28 6712   3.693   1.472   7.881 -0.6061 -0.0808 -0.4799
   75SLPC   H8R 6713   3.801   1.461   7.857  0.3971  0.8520  3.0534
   75SLPC   H8S 6714   3.644   1.375   7.859  1.2021 -1.0999 -0.2338
   75SLPC   C29 6715   3.676   1.514   8.028  0.1534  0.5805 -0.1277
   75SLPC   H9R 6716   3.595   1.586   8.048  0.3850  0.9669 -0.5392
   75SLPC  C210 6717   3.764   1.491   8.126 -0.0124  0.2985 -0.3469
   75SLPC  H10R 6718   3.755   1.547   8.221  2.8932  0.5292 -0.1171
   75SLPC  C211 6719   3.893   1.406   8.130  0.0277  0.2932 -0.1625
   75SLPC  H11R 6720   3.888   1.332   8.046 -2.3090 -2.4025  2.1383
   75SLPC  H11S 6721   3.878   1.336   8.215 -1.9194  0.0675 -0.6379
   75SLPC  C212 6722   4.013   1.490   8.131 -0.6748 -0.0394  0.2042
   75SLPC  H12R 6723   4.004   1.596   8.101 -0.3612  0.0414  0.3851
   75SLPC  C213 6724   4.141   1.457   8.174  0.5843 -0.3934  0.9907
   75SLPC  H13R 6725   4.217   1.534   8.157  0.4156 -0.8495 -2.9957
   75SLPC  C214 6726   4.193   1.326   8.231  0.4529 -0.3343  0.0968
   75SLPC  H14R 6727   4.300   1.309   8.206  0.4345  1.7882 -1.8094
   75SLPC  H14S 6728   4.138   1.238   8.194  0.0817 -0.4905  0.9907
   75SLPC  C215 6729   4.176   1.330   8.390  0.4805  0.6725 -0.1199
   75SLPC  H15R 6730   4.194   1.230   8.435 -0.6826  0.1638 -0.7328
   75SLPC  H15S 6731   4.070   1.360   8.409  0.1478 -0.4476 -0.1397
   75SLPC  C216 6732   4.269   1.425   8.467 -0.4775 -0.1413 -0.7165
   75SLPC  H16R 6733   4.219   1.525   8.474  0.6358  0.4533 -1.0285
   75SLPC  H16S 6734   4.365   1.438   8.414  1.1541 -1.9776  1.6012
   75SLPC  C217 6735   4.304   1.371   8.603  0.2995  0.4445  0.6035
   75SLPC  H17R 6736   4.353   1.273   8.584 -0.2385  0.2557  0.1451
   75SLPC  H17S 6737   4.205   1.337   8.640  1.8030 -4.1388  0.9976
   75SLPC  C218 6738   4.386   1.462   8.687 -0.2151 -0.0591  0.2615
   75SLPC  H18R 6739   4.367   1.444   8.794  0.2698 -0.4101  0.2919
   75SLPC  H18S 6740   4.350   1.566   8.675  0.1976 -0.1260 -2.1685
   75SLPC  H18T 6741   4.493   1.457   8.656 -0.3500  1.0614 -0.4707
   75SLPC   C33 6742   3.834   2.012   7.186 -0.6859  0.2826 -0.0592
   75SLPC   H3X 6743   3.814   1.903   7.194 -0.0941  0.2678  1.8685
   75SLPC   H3Y 6744   3.905   2.039   7.105 -1.4750  0.7157 -0.6050
   75SLPC   C34 6745   3.908   2.047   7.311 -0.5326 -0.0926 -0.1319
   75SLPC   H4X 6746   3.895   2.155   7.336 -0.4995 -0.2276  0.4818
   75SLPC   H4Y 6747   4.016   2.034   7.290 -0.3946 -1.8336  1.4936
   75SLPC   C35 6748   3.873   1.956   7.428 -0.2748 -0.8411 -0.2317
   75SLPC   H5X 6749   3.887   1.847   7.411 -1.3854 -1.0675  0.2364
   75SLPC   H5Y 6750   3.765   1.973   7.448  0.1284  2.6002 -0.2973
   75SLPC   C36 6751   3.961   1.999   7.557  0.6618  0.7111 -0.3268
   75SLPC   H6X 6752   3.958   2.109   7.570 -1.3764  0.5703  0.8233
   75SLPC   H6Y 6753   4.067   1.972   7.538  0.5285 -2.0059  2.1039
   75SLPC   C37 6754   3.911   1.938   7.692  0.7299 -0.0178  0.0455
   75SLPC   H7X 6755   3.801   1.952   7.689  0.8735  1.3151  0.1584
   75SLPC   H7Y 6756   3.957   2.005   7.768  0.6521 -0.8735  0.8572
   75SLPC   C38 6757   3.931   1.793   7.737 -0.2551  0.0876 -0.1904
   75SLPC   H8X 6758   3.884   1.730   7.658 -0.3677  1.2423 -1.0634
   75SLPC   H8Y 6759   3.878   1.757   7.828 -0.0216  2.1834  0.8211
   75SLPC   C39 6760   4.074   1.742   7.761 -0.0654 -0.7018  0.3027
   75SLPC   H9X 6761   4.143   1.777   7.681  1.5008  1.7823  2.5719
   75SLPC   H9Y 6762   4.081   1.631   7.773 -0.6904 -0.7635  0.0969
   75SLPC  C310 6763   4.133   1.793   7.895 -0.3868 -0.0571  0.7989
   75SLPC  H10X 6764   4.069   1.739   7.967 -1.3385 -0.5543 -0.3779
   75SLPC  H10Y 6765   4.115   1.903   7.896 -0.9533 -0.1285 -0.3953
   75SLPC  C311 6766   4.276   1.747   7.924 -0.0081  0.3477  0.3734
   75SLPC  H11X 6767   4.341   1.786   7.843  0.9652 -1.9442 -0.0279
   75SLPC  H11Y 6768   4.284   1.636   7.921 -0.0065  0.3712 -1.3044
   75SLPC  C312 6769   4.331   1.791   8.058 -0.1853  0.7780 -0.7253
   75SLPC  H12X 6770   4.255   1.772   8.137  0.8778 -3.5571 -0.4754
   75SLPC  H12Y 6771   4.353   1.900   8.063 -1.3550  0.9662  0.9918
   75SLPC  C313 6772   4.456   1.719   8.105  0.1883 -0.5921  0.6367
   75SLPC  H13X 6773   4.525   1.710   8.018 -0.2794  0.2889  0.1647
   75SLPC  H13Y 6774   4.434   1.616   8.142 -0.3227 -0.5905  0.3454
   75SLPC  C314 6775   4.534   1.781   8.223 -0.0912 -0.9097 -0.1388
   75SLPC  H14X 6776   4.564   1.875   8.170  0.5615 -1.8899 -1.5646
   75SLPC  H14Y 6777   4.623   1.721   8.248  2.2924  0.7342 -3.8038
   75SLPC  C315 6778   4.459   1.821   8.347  0.0113  0.7539  0.1900
   75SLPC  H15X 6779   4.444   1.720   8.392  0.4778 -0.3019 -1.8630
   75SLPC  H15Y 6780   4.365   1.869   8.314 -0.9805 -0.7458  0.7257
   75SLPC  C316 6781   4.540   1.901   8.442  0.0317  0.1820 -0.5057
   75SLPC  H16X 6782   4.538   2.008   8.411 -0.2239  0.4352  0.3406
   75SLPC  H16Y 6783   4.644   1.863   8.433  0.1577  0.2518  0.4694
   75SLPC  C317 6784   4.500   1.886   8.589  0.1107 -0.1087 -0.1209
   75SLPC  H17X 6785   4.463   1.783   8.607 -0.7185  0.1917 -0.0699
   75SLPC  H17Y 6786   4.427   1.966   8.613 -0.1409  0.3880 -2.3743
   75SLPC  C318 6787   4.614   1.899   8.692  0.5886 -0.1846  0.4254
   75SLPC  H18X 6788   4.634   2.007   8.708 -1.4561  0.1116  1.3217
   75SLPC  H18Y 6789   4.714   1.862   8.660  1.1631  1.5232  0.1684
   75SLPC  H18Z 6790   4.602   1.853   8.793 -1.9543  0.5332  0.5148
   76SLPC     N 6791   5.029   0.283   6.382 -0.2988 -0.0887 -0.0321
   76SLPC   C13 6792   5.015   0.157   6.312 -0.5598  0.6028 -0.1596
   76SLPC  H13A 6793   5.014   0.085   6.393 -0.1185  0.0849 -0.6032
   76SLPC  H13B 6794   4.931   0.158   6.245 -1.5367  2.4998  1.0253
   76SLPC  H13C 6795   5.107   0.133   6.259  0.1585  2.3711  0.1984
   76SLPC   C14 6796   4.899   0.327   6.444  0.3124  0.1012  0.6946
   76SLPC  H14A 6797   4.864   0.265   6.525  0.5589 -0.6083  0.2709
   76SLPC  H14B 6798   4.908   0.431   6.471 -0.2043  0.2463  0.3297
   76SLPC  H14C 6799   4.815   0.334   6.377 -0.5383 -2.4908  1.3568
   76SLPC   C15 6800   5.045   0.378   6.267  0.1828 -0.2877 -0.0480
   76SLPC  H15A 6801   4.967   0.362   6.194  0.9441  2.0543 -1.4964
   76SLPC  H15B 6802   5.034   0.478   6.306  0.0057 -0.0166 -0.7829
   76SLPC  H15C 6803   5.145   0.380   6.225  1.1625  1.6564  2.1600
   76SLPC   C12 6804   5.143   0.287   6.484  0.3408 -0.6330  0.4633
   76SLPC  H12A 6805   5.126   0.373   6.548  0.3088  0.0477 -0.4443
   76SLPC  H12B 6806   5.241   0.303   6.443  1.1266 -2.8681  1.3283
   76SLPC   C11 6807   5.172   0.158   6.574 -0.1552 -0.0159 -0.4520
   76SLPC  H11A 6808   5.075   0.129   6.620  1.2481 -0.7812  2.2078
   76SLPC  H11B 6809   5.249   0.176   6.652 -1.0159 -0.2131  0.4516
   76SLPC     P 6810   5.356   0.064   6.409 -0.4129 -0.4278  0.1543
   76SLPC   O13 6811   5.339  -0.009   6.284  0.6030 -0.5108 -1.1011
   76SLPC   O14 6812   5.398   0.208   6.407 -0.3728 -0.2597  0.0023
   76SLPC   O12 6813   5.218   0.056   6.482  0.4265  0.2872  0.2854
   76SLPC   O11 6814   5.459  -0.000   6.503  0.1296  1.0274 -0.6277
   76SLPC    C1 6815   5.440  -0.129   6.559 -0.3025  0.2188  0.8596
   76SLPC    HA 6816   5.379  -0.197   6.496  0.7778 -0.5517  0.6097
   76SLPC    HB 6817   5.539  -0.176   6.575 -0.1649  0.1543 -0.1216
   76SLPC    C2 6818   5.372  -0.121   6.707 -0.0551  0.6366 -0.2399
   76SLPC    HS 6819   5.282  -0.056   6.703  0.8000  1.8437 -0.9454
   76SLPC   O21 6820   5.473  -0.065   6.791 -0.5279 -0.1883  0.8803
   76SLPC   C21 6821   5.439  -0.012   6.903 -0.1084 -0.2166  0.5380
   76SLPC   O22 6822   5.324   0.003   6.940 -0.3304  0.2805 -0.2455
   76SLPC   C22 6823   5.558   0.029   6.980 -0.5771  0.0489 -0.0063
   76SLPC   H2R 6824   5.605  -0.055   7.036 -0.5990  1.1707  1.8096
   76SLPC   H2S 6825   5.637   0.066   6.911 -0.4727  0.0775  0.1269
   76SLPC    C3 6826   5.331  -0.261   6.753 -0.5909  0.6896 -0.1135
   76SLPC    HX 6827   5.424  -0.321   6.745  1.1018  2.9667  1.4017
   76SLPC    HY 6828   5.266  -0.313   6.679  2.4348 -0.4929 -2.1147
   76SLPC   O31 6829   5.281  -0.267   6.890 -0.4481 -0.0160  0.0369
   76SLPC   C31 6830   5.152  -0.263   6.908  0.2013  0.0431 -0.2539
   76SLPC   O32 6831   5.068  -0.263   6.823  1.0413  0.0876 -0.5691
   76SLPC   C32 6832   5.119  -0.284   7.069  0.2999 -0.8774 -0.0886
   76SLPC   H2X 6833   5.024  -0.341   7.065 -0.0482 -0.2777 -0.6637
   76SLPC   H2Y 6834   5.100  -0.179   7.099  3.5841  0.2145 -1.3051
   76SLPC   C23 6835   5.528   0.130   7.090  0.0892 -0.2440  0.4999
   76SLPC   H3R 6836   5.450   0.202   7.056 -0.5308 -0.8847  0.5472
   76SLPC   H3S 6837   5.620   0.186   7.117 -0.7507  0.4943  1.9350
   76SLPC   C24 6838   5.481   0.071   7.221 -0.6673 -0.2428 -0.4202
   76SLPC   H4R 6839   5.562   0.004   7.257 -0.8521  0.4075  1.3176
   76SLPC   H4S 6840   5.391   0.008   7.215 -0.4283 -0.8078  1.2759
   76SLPC   C25 6841   5.454   0.177   7.332 -0.0957 -0.3283  0.1401
   76SLPC   H5R 6842   5.384   0.244   7.278 -0.0503  1.4420  2.1532
   76SLPC   H5S 6843   5.556   0.221   7.342  0.2321 -1.0742  0.1034
   76SLPC   C26 6844   5.407   0.131   7.467  0.2898  0.1063 -0.3797
   76SLPC   H6R 6845   5.477   0.054   7.505  1.0386  0.7385 -0.4693
   76SLPC   H6S 6846   5.310   0.082   7.443  1.1098 -1.3907 -0.7191
   76SLPC   C27 6847   5.387   0.230   7.582 -0.2006  0.1958  0.9903
   76SLPC   H7R 6848   5.308   0.304   7.553  0.9398  0.7716 -0.8550
   76SLPC   H7S 6849   5.483   0.286   7.587 -1.1088  1.8143  1.1335
   76SLPC   C28 6850   5.360   0.171   7.726 -0.3595  0.3185 -0.4511
   76SLPC   H8R 6851   5.300   0.253   7.772  0.1464  1.5478 -1.8991
   76SLPC   H8S 6852   5.291   0.084   7.724 -0.3999  0.2758  1.2546
   76SLPC   C29 6853   5.495   0.148   7.791 -0.2517 -0.4875 -0.0165
   76SLPC   H9R 6854   5.577   0.109   7.729  0.9115  3.3845 -1.1730
   76SLPC  C210 6855   5.521   0.170   7.919 -0.4825 -0.1135 -0.2831
   76SLPC  H10R 6856   5.618   0.142   7.962 -1.3017 -1.2589  0.8955
   76SLPC  C211 6857   5.434   0.228   8.029  0.5601 -0.1674  0.0400
   76SLPC  H11R 6858   5.329   0.192   8.022  0.1942  0.9959 -0.8363
   76SLPC  H11S 6859   5.416   0.337   8.013 -0.1009  0.0393  1.9712
   76SLPC  C212 6860   5.471   0.204   8.169 -0.0582  0.2830 -0.4848
   76SLPC  H12R 6861   5.489   0.097   8.188  0.7303  0.0441 -2.3414
   76SLPC  C213 6862   5.473   0.292   8.265  0.0363 -0.4867 -0.2273
   76SLPC  H13R 6863   5.482   0.244   8.363 -0.2281 -2.0163 -0.9209
   76SLPC  C214 6864   5.444   0.436   8.249 -0.4677 -0.3848 -0.2751
   76SLPC  H14R 6865   5.334   0.448   8.256 -0.3189  0.7222  0.4360
   76SLPC  H14S 6866   5.482   0.481   8.155 -2.4359  0.1223 -0.8727
   76SLPC  C215 6867   5.526   0.509   8.367  1.5629 -0.4634  0.7493
   76SLPC  H15R 6868   5.545   0.609   8.322  1.4114 -1.1000 -0.7730
   76SLPC  H15S 6869   5.627   0.468   8.387  2.6501  1.4377 -0.4837
   76SLPC  C216 6870   5.436   0.530   8.490  0.6507 -1.1694 -0.2635
   76SLPC  H16R 6871   5.372   0.442   8.513 -0.2216  0.0037  2.2410
   76SLPC  H16S 6872   5.371   0.619   8.472  1.8200  0.1801  1.7246
   76SLPC  C217 6873   5.515   0.564   8.618 -0.3103  0.7174 -0.2737
   76SLPC  H17R 6874   5.447   0.618   8.686  0.8090 -0.3764  1.7888
   76SLPC  H17S 6875   5.597   0.628   8.578  0.8195 -0.8367 -0.5366
   76SLPC  C218 6876   5.568   0.443   8.689 -0.3580  0.4501 -0.6087
   76SLPC  H18R 6877   5.636   0.480   8.768 -0.1401  1.0983 -1.0861
   76SLPC  H18S 6878   5.632   0.378   8.626 -1.0884 -2.5896  1.5788
   76SLPC  H18T 6879   5.487   0.386   8.738  0.9178 -0.9610 -0.0855
   76SLPC   C33 6880   5.240  -0.337   7.154  0.6158  0.7412  0.7795
   76SLPC   H3X 6881   5.315  -0.255   7.155  0.9175  0.7497  6.4119
   76SLPC   H3Y 6882   5.278  -0.436   7.120 -1.9209 -0.4542  1.1993
   76SLPC   C34 6883   5.211  -0.341   7.300 -0.3184  0.1335 -0.1193
   76SLPC   H4X 6884   5.308  -0.337   7.353  0.2245 -0.1767 -1.0734
   76SLPC   H4Y 6885   5.165  -0.433   7.342  1.1362  0.0965  1.4779
   76SLPC   C35 6886   5.147  -0.216   7.362  0.0195 -0.4064  0.2608
   76SLPC   H5X 6887   5.036  -0.221   7.362  0.0554 -1.6658  1.4193
   76SLPC   H5Y 6888   5.176  -0.127   7.302 -2.0644 -0.9109 -1.6387
   76SLPC   C36 6889   5.180  -0.194   7.515 -0.3460  0.0496  0.5750
   76SLPC   H6X 6890   5.138  -0.093   7.534 -0.6048  0.1866 -0.6601
   76SLPC   H6Y 6891   5.289  -0.177   7.522  0.3500 -2.8407 -1.5357
   76SLPC   C37 6892   5.118  -0.289   7.614  0.1036 -0.2122 -0.0197
   76SLPC   H7X 6893   5.160  -0.388   7.584  0.9433  0.3497 -0.7670
   76SLPC   H7Y 6894   5.008  -0.282   7.599  0.4996  0.7733 -3.1887
   76SLPC   C38 6895   5.157  -0.264   7.760  0.2404  0.7216 -0.1120
   76SLPC   H8X 6896   5.101  -0.324   7.834 -1.4496  0.9434 -1.1533
   76SLPC   H8Y 6897   5.147  -0.154   7.773  1.2035  0.8965 -0.7109
   76SLPC   C39 6898   5.299  -0.315   7.786  0.0339  0.4196  1.0899
   76SLPC   H9X 6899   5.372  -0.299   7.705  1.1476 -1.2360  1.7131
   76SLPC   H9Y 6900   5.300  -0.424   7.806 -1.9047 -0.1640 -1.3635
   76SLPC  C310 6901   5.353  -0.246   7.904 -0.5900 -0.8924  0.2196
   76SLPC  H10X 6902   5.344  -0.136   7.893  1.4766 -0.6687  0.3816
   76SLPC  H10Y 6903   5.460  -0.277   7.908 -0.2793  0.2052  2.7799
   76SLPC  C311 6904   5.291  -0.272   8.040 -0.0322 -0.1099 -0.6331
   76SLPC  H11X 6905   5.295  -0.382   8.055  2.1398  0.0238  0.1205
   76SLPC  H11Y 6906   5.188  -0.233   8.054 -0.2336 -1.3137  1.7018
   76SLPC  C312 6907   5.385  -0.202   8.139 -0.1327  0.3428 -0.4110
   76SLPC  H12X 6908   5.359  -0.095   8.146  2.0454  0.9480 -0.6960
   76SLPC  H12Y 6909   5.482  -0.223   8.088 -1.5001 -1.1163 -2.6135
   76SLPC  C313 6910   5.366  -0.273   8.274 -0.0421  0.5781  0.2263
   76SLPC  H13X 6911   5.451  -0.242   8.339  2.6231 -0.1362 -2.6805
   76SLPC  H13Y 6912   5.374  -0.382   8.258 -0.9840  0.5522 -0.1206
   76SLPC  C314 6913   5.227  -0.237   8.335 -0.4438 -0.0349  0.2435
   76SLPC  H14X 6914   5.144  -0.268   8.269  1.5230  0.0819 -2.4501
   76SLPC  H14Y 6915   5.234  -0.127   8.345  1.3311 -0.0443 -0.4441
   76SLPC  C315 6916   5.216  -0.305   8.469  0.0430  0.3231  0.2881
   76SLPC  H15X 6917   5.311  -0.274   8.518  0.0648  0.0501  0.4156
   76SLPC  H15Y 6918   5.203  -0.414   8.453 -0.2323  0.5712 -1.3638
   76SLPC  C316 6919   5.119  -0.227   8.567 -0.8170  0.1461 -0.7202
   76SLPC  H16X 6920   5.023  -0.219   8.512 -1.5561  0.7381  0.6035
   76SLPC  H16Y 6921   5.155  -0.124   8.588 -1.0942 -0.5143  3.9280
   76SLPC  C317 6922   5.092  -0.315   8.683  0.6187  0.2724  0.2321
   76SLPC  H17X 6923   5.063  -0.417   8.648 -1.9171  1.2043 -0.6455
   76SLPC  H17Y 6924   4.993  -0.283   8.720  1.2351  4.0473 -0.9887
   76SLPC  C318 6925   5.188  -0.307   8.797 -0.1583 -0.2949 -0.9873
   76SLPC  H18X 6926   5.150  -0.228   8.866  1.1382 -1.0060  0.6218
   76SLPC  H18Y 6927   5.295  -0.302   8.770  0.2874 -1.2505  0.4664
   76SLPC  H18Z 6928   5.188  -0.400   8.859 -0.5163  1.0017  1.0601
   77SLPC     N 6929   0.221   5.786   6.618  0.0716 -0.3193  0.2731
   77SLPC   C13 6930   0.178   5.924   6.662  0.1112  0.3767  0.0446
   77SLPC  H13A 6931   0.160   5.913   6.767  1.3299 -1.2833  0.1259
   77SLPC  H13B 6932   0.246   6.008   6.658  1.4201 -0.5355  1.6501
   77SLPC  H13C 6933   0.090   5.959   6.610 -0.0121 -2.0618 -1.5750
   77SLPC   C14 6934   0.293   5.784   6.491 -0.3290  0.0858  0.4467
   77SLPC  H14A 6935   0.315   5.685   6.453 -0.4964  0.0329  0.4850
   77SLPC  H14B 6936   0.233   5.826   6.411  1.0190  0.7029 -0.2723
   77SLPC  H14C 6937   0.381   5.846   6.495  0.4671 -1.0417  0.7007
   77SLPC   C15 6938   0.098   5.704   6.589  0.1994  0.0694 -0.5933
   77SLPC  H15A 6939   0.029   5.761   6.529  0.8338  0.4076 -1.0074
   77SLPC  H15B 6940   0.128   5.615   6.536 -1.8573 -1.1193  0.1588
   77SLPC  H15C 6941   0.055   5.683   6.686  0.4574  1.9001 -0.0448
   77SLPC   C12 6942   0.305   5.721   6.724  0.4975 -0.3799 -0.5749
   77SLPC  H12A 6943   0.349   5.630   6.685 -1.0333 -1.3203 -0.1892
   77SLPC  H12B 6944   0.235   5.685   6.798  1.4763  0.9770  1.0709
   77SLPC   C11 6945   0.412   5.801   6.800  1.0703 -0.2478  0.4441
   77SLPC  H11A 6946   0.457   5.732   6.874  0.0299 -1.3273  0.0929
   77SLPC  H11B 6947   0.344   5.878   6.844  0.1880  0.6321 -2.2383
   77SLPC     P 6948   0.530   6.002   6.700  0.0658  0.1396  0.1390
   77SLPC   O13 6949   0.492   6.066   6.574  0.6886 -0.1732 -0.0708
   77SLPC   O14 6950   0.480   6.060   6.825 -0.2670  0.1809 -0.0697
   77SLPC   O12 6951   0.504   5.849   6.701  0.4032 -0.0524 -0.0994
   77SLPC   O11 6952   0.689   6.010   6.706  0.0214 -0.7732  0.5552
   77SLPC    C1 6953   0.771   5.895   6.697  0.4206  0.0198  0.6765
   77SLPC    HA 6954   0.743   5.836   6.608 -1.3081  1.8296 -0.0674
   77SLPC    HB 6955   0.877   5.921   6.678  1.1191 -0.9983  2.8679
   77SLPC    C2 6956   0.782   5.819   6.831 -0.5084  0.2789 -0.1913
   77SLPC    HS 6957   0.701   5.745   6.847 -0.9984  0.4818 -1.6063
   77SLPC   O21 6958   0.794   5.914   6.933  0.0074 -0.0916  0.4636
   77SLPC   C21 6959   0.722   5.886   7.037 -0.5280  0.7454 -0.0101
   77SLPC   O22 6960   0.639   5.796   7.048 -0.1347  0.7244  0.1015
   77SLPC   C22 6961   0.767   5.972   7.154 -0.3633 -0.4971  0.3566
   77SLPC   H2R 6962   0.877   5.959   7.165 -0.1926  1.0842  0.7441
   77SLPC   H2S 6963   0.746   6.072   7.110  0.8449 -0.7408 -0.8611
   77SLPC    C3 6964   0.913   5.732   6.844  0.1400  0.1204  0.1999
   77SLPC    HX 6965   1.007   5.790   6.833  0.8386 -1.1922 -1.1047
   77SLPC    HY 6966   0.923   5.660   6.760  0.0367  0.6156 -0.2388
   77SLPC   O31 6967   0.905   5.670   6.976  0.1679 -0.1058 -0.0447
   77SLPC   C31 6968   0.838   5.559   6.999  0.3501 -0.0357 -0.4487
   77SLPC   O32 6969   0.778   5.500   6.907 -0.0316  0.1122  0.1313
   77SLPC   C32 6970   0.868   5.527   7.147 -0.5229  0.3767  0.3554
   77SLPC   H2X 6971   0.864   5.622   7.203  2.6396  1.3176 -0.7637
   77SLPC   H2Y 6972   0.971   5.487   7.159 -1.6476 -2.6316  0.9310
   77SLPC   C23 6973   0.695   5.940   7.286  0.7459  0.2113  0.5529
   77SLPC   H3R 6974   0.584   5.941   7.283  0.7044  3.1953  0.6199
   77SLPC   H3S 6975   0.716   6.022   7.358 -1.8105  0.7767  0.7505
   77SLPC   C24 6976   0.739   5.810   7.353 -0.1810  0.6121 -0.0530
   77SLPC   H4R 6977   0.849   5.805   7.339 -0.2751  1.9866 -1.4957
   77SLPC   H4S 6978   0.699   5.720   7.302 -2.9111  1.5177  0.3232
   77SLPC   C25 6979   0.701   5.809   7.502 -0.2924 -0.0648 -0.4596
   77SLPC   H5R 6980   0.608   5.869   7.514  0.4029  0.9872 -0.1494
   77SLPC   H5S 6981   0.784   5.858   7.556 -0.8358  0.5926 -0.2031
   77SLPC   C26 6982   0.674   5.674   7.569  0.0831  0.0781  0.7943
   77SLPC   H6R 6983   0.764   5.611   7.581 -0.4492 -1.2574 -1.4893
   77SLPC   H6S 6984   0.611   5.605   7.507 -0.0180 -0.4833  1.5074
   77SLPC   C27 6985   0.608   5.694   7.714 -0.9560  0.2156  0.1953
   77SLPC   H7R 6986   0.505   5.736   7.722 -1.4046 -1.0800  1.9901
   77SLPC   H7S 6987   0.691   5.754   7.757  1.4538 -0.7767 -2.7310
   77SLPC   C28 6988   0.622   5.559   7.794 -0.0064 -0.8980 -0.8277
   77SLPC   H8R 6989   0.602   5.573   7.903 -0.6773 -0.2637 -1.0278
   77SLPC   H8S 6990   0.727   5.522   7.787  0.9204  1.6462 -1.4790
   77SLPC   C29 6991   0.528   5.450   7.755  0.4691  0.5399 -0.4907
   77SLPC   H9R 6992   0.548   5.415   7.653  1.0836 -0.0861 -0.1697
   77SLPC  C210 6993   0.430   5.384   7.823 -0.1356  0.2199 -0.1877
   77SLPC  H10R 6994   0.374   5.307   7.768  2.0238 -1.1791 -0.5217
   77SLPC  C211 6995   0.380   5.418   7.957 -0.3719  0.3323  0.1287
   77SLPC  H11R 6996   0.274   5.383   7.958 -0.0785 -0.6876 -1.1302
   77SLPC  H11S 6997   0.374   5.528   7.963  3.4939  0.6582  0.3741
   77SLPC  C212 6998   0.447   5.360   8.082 -0.0142  0.8725 -0.1234
   77SLPC  H12R 6999   0.548   5.320   8.067 -1.5187 -3.7857  0.4985
   77SLPC  C213 7000   0.400   5.353   8.211 -0.2158  0.1972  0.2069
   77SLPC  H13R 7001   0.459   5.304   8.289 -0.9495 -1.7575 -0.3931
   77SLPC  C214 7002   0.268   5.407   8.256 -0.3786  0.1027  0.6927
   77SLPC  H14R 7003   0.205   5.319   8.284  3.4476 -3.5241 -1.0246
   77SLPC  H14S 7004   0.222   5.465   8.174  0.0725  0.8465  0.9608
   77SLPC  C215 7005   0.273   5.516   8.369  0.8206  0.3067 -0.7062
   77SLPC  H15R 7006   0.163   5.528   8.368  0.6193 -1.2102  0.1525
   77SLPC  H15S 7007   0.334   5.605   8.339 -0.4782  0.4683 -3.1002
   77SLPC  C216 7008   0.304   5.456   8.501 -0.6522 -0.4248 -1.3546
   77SLPC  H16R 7009   0.411   5.425   8.497  0.0382  1.8596 -2.5561
   77SLPC  H16S 7010   0.250   5.360   8.512  0.1258 -0.7417 -0.1383
   77SLPC  C217 7011   0.261   5.562   8.610 -0.6100 -0.1547  0.1300
   77SLPC  H17R 7012   0.307   5.660   8.585  2.6887 -1.8565 -1.1360
   77SLPC  H17S 7013   0.307   5.538   8.708  0.5625  1.4091 -0.0051
   77SLPC  C218 7014   0.106   5.579   8.615  0.4320  0.4667 -0.3146
   77SLPC  H18R 7015   0.072   5.640   8.702  0.2770  0.9639 -0.7254
   77SLPC  H18S 7016   0.063   5.480   8.643  1.5102 -0.1418 -0.7394
   77SLPC  H18T 7017   0.058   5.618   8.523  2.9036  0.4010 -1.7161
   77SLPC   C33 7018   0.766   5.438   7.211 -0.7299  0.5444  0.6391
   77SLPC   H3X 7019   0.766   5.344   7.153  1.0168  1.0768 -0.2893
   77SLPC   H3Y 7020   0.665   5.486   7.214 -1.1067 -0.1626 -0.4027
   77SLPC   C34 7021   0.799   5.390   7.348 -0.6339  0.1665  0.0021
   77SLPC   H4X 7022   0.783   5.487   7.400  0.5360  1.1003 -1.3451
   77SLPC   H4Y 7023   0.903   5.353   7.349 -0.5488  0.4070  0.9891
   77SLPC   C35 7024   0.701   5.282   7.416 -0.0611 -0.4044 -0.6438
   77SLPC   H5X 7025   0.692   5.199   7.343 -2.3739  0.1020 -1.0199
   77SLPC   H5Y 7026   0.600   5.327   7.426  0.0620 -0.3786  0.5924
   77SLPC   C36 7027   0.742   5.230   7.561 -0.7391  0.3189  0.6037
   77SLPC   H6X 7028   0.766   5.317   7.625  1.3097  1.5025 -1.6261
   77SLPC   H6Y 7029   0.838   5.176   7.544 -1.7350 -1.0261 -1.0293
   77SLPC   C37 7030   0.643   5.130   7.611 -0.0191 -0.2725 -0.0525
   77SLPC   H7X 7031   0.606   5.066   7.528 -0.6162  0.7393 -0.5891
   77SLPC   H7Y 7032   0.554   5.187   7.649  0.9399  1.4894 -0.3451
   77SLPC   C38 7033   0.697   5.050   7.730 -0.0772  0.1212  0.2961
   77SLPC   H8X 7034   0.748   5.124   7.794  0.2630  1.3302 -1.3034
   77SLPC   H8Y 7035   0.772   4.982   7.684 -2.0880 -1.7879 -0.3377
   77SLPC   C39 7036   0.590   4.962   7.797 -0.4404 -1.0776  0.3941
   77SLPC   H9X 7037   0.545   4.904   7.714 -2.1632  0.2402  0.3619
   77SLPC   H9Y 7038   0.520   5.043   7.826  1.3999  0.9460 -0.4944
   77SLPC  C310 7039   0.633   4.874   7.913 -0.0782 -0.2252 -0.2062
   77SLPC  H10X 7040   0.704   4.795   7.882  1.7731  1.2728  0.0318
   77SLPC  H10Y 7041   0.540   4.820   7.940  0.2835 -1.1994 -0.8667
   77SLPC  C311 7042   0.690   4.947   8.035  0.1451 -0.3939  0.5824
   77SLPC  H11X 7043   0.615   5.022   8.071 -0.7775 -1.6296  1.3165
   77SLPC  H11Y 7044   0.776   5.005   7.995  0.8110 -0.9508  1.1846
   77SLPC  C312 7045   0.724   4.869   8.157 -0.1474 -0.1869  0.2986
   77SLPC  H12X 7046   0.816   4.807   8.141 -1.1663 -1.6709 -0.0068
   77SLPC  H12Y 7047   0.644   4.803   8.197  1.6099 -0.8121  3.0843
   77SLPC  C313 7048   0.762   4.958   8.280 -0.3410  0.0389 -0.2708
   77SLPC  H13X 7049   0.681   5.028   8.309 -0.7515  0.5211 -2.3899
   77SLPC  H13Y 7050   0.847   5.026   8.254 -0.3807  0.3083  0.2945
   77SLPC  C314 7051   0.810   4.891   8.416  0.1589  0.2689  0.0528
   77SLPC  H14X 7052   0.897   4.826   8.394  0.3496  1.2232 -2.3974
   77SLPC  H14Y 7053   0.729   4.826   8.453  0.7891 -1.2485 -1.1333
   77SLPC  C315 7054   0.858   4.988   8.527 -0.0371 -0.0730  0.5937
   77SLPC  H15X 7055   0.825   4.954   8.627 -1.9145 -1.3174 -0.3821
   77SLPC  H15Y 7056   0.818   5.088   8.498 -0.4366 -0.1321  0.9368
   77SLPC  C316 7057   1.011   5.006   8.518  0.9147  0.3020 -0.0142
   77SLPC  H16X 7058   1.036   5.038   8.415 -0.0462  1.4352  0.0827
   77SLPC  H16Y 7059   1.060   4.908   8.534  0.0930 -0.2649 -0.9072
   77SLPC  C317 7060   1.070   5.092   8.625  0.1818  0.4268 -0.1467
   77SLPC  H17X 7061   1.014   5.187   8.638  0.1201  0.2639  0.9270
   77SLPC  H17Y 7062   1.173   5.120   8.598 -0.1458  0.8771 -0.9653
   77SLPC  C318 7063   1.069   5.042   8.767 -0.1798 -0.1926  0.1664
   77SLPC  H18X 7064   1.094   4.934   8.767 -0.1754 -0.2970  3.4778
   77SLPC  H18Y 7065   0.969   5.061   8.811 -1.2137 -0.9503 -1.7554
   77SLPC  H18Z 7066   1.138   5.098   8.834 -0.3292  0.2781 -0.0688
   78SLPC     N 7067   3.803   1.265   6.119  0.4147 -0.2107  0.4420
   78SLPC   C13 7068   3.893   1.379   6.071 -0.2357  0.9596  0.4707
   78SLPC  H13A 7069   3.872   1.466   6.133 -3.0801  1.3630 -0.8822
   78SLPC  H13B 7070   3.995   1.345   6.071 -0.6240 -0.6039 -2.9883
   78SLPC  H13C 7071   3.866   1.401   5.969  0.0546  0.2010  0.2212
   78SLPC   C14 7072   3.832   1.136   6.047 -0.4056 -0.1164  0.8428
   78SLPC  H14A 7073   3.940   1.123   6.042 -0.3680  0.3895  0.2616
   78SLPC  H14B 7074   3.797   1.050   6.102  0.9732 -1.5992 -0.4523
   78SLPC  H14C 7075   3.794   1.132   5.946  0.1610 -0.8736  0.6436
   78SLPC   C15 7076   3.661   1.308   6.081  0.3429  0.1826 -0.6036
   78SLPC  H15A 7077   3.594   1.225   6.096 -1.4312  1.7283  0.5011
   78SLPC  H15B 7078   3.625   1.388   6.144  3.1342  2.2068 -1.3660
   78SLPC  H15C 7079   3.654   1.334   5.976 -4.2153 -0.3626 -0.6441
   78SLPC   C12 7080   3.818   1.254   6.267 -0.3329  1.1641  0.2743
   78SLPC  H12A 7081   3.777   1.345   6.309 -1.0726  0.9055  0.1303
   78SLPC  H12B 7082   3.924   1.243   6.284 -0.2290 -1.4869 -1.5573
   78SLPC   C11 7083   3.745   1.135   6.329  0.5881  0.5152  0.5161
   78SLPC  H11A 7084   3.649   1.124   6.273 -0.9381  2.6357  2.5138
   78SLPC  H11B 7085   3.716   1.145   6.436 -1.6621 -3.4643  0.5099
   78SLPC     P 7086   3.792   0.886   6.397  0.0182 -0.2018 -0.0534
   78SLPC   O13 7087   3.653   0.835   6.368  0.0213 -0.2101 -0.0278
   78SLPC   O14 7088   3.896   0.785   6.367 -0.1121  0.0062 -0.1562
   78SLPC   O12 7089   3.820   1.015   6.315  0.2130 -0.1264  0.5653
   78SLPC   O11 7090   3.790   0.930   6.549 -0.3764  0.0810  0.0728
   78SLPC    C1 7091   3.772   0.821   6.640 -0.4155 -0.1152 -0.0479
   78SLPC    HA 7092   3.664   0.795   6.642  0.1217 -2.6363 -0.5934
   78SLPC    HB 7093   3.825   0.730   6.605 -0.6219 -0.0467 -0.5422
   78SLPC    C2 7094   3.814   0.855   6.783 -0.0997 -0.3168 -0.1542
   78SLPC    HS 7095   3.742   0.931   6.821  0.2995  0.0846 -0.1842
   78SLPC   O21 7096   3.949   0.916   6.784  0.6572  0.3433  0.6445
   78SLPC   C21 7097   3.960   1.011   6.867 -0.1271 -0.2626  0.7093
   78SLPC   O22 7098   3.870   1.064   6.930 -0.1806 -0.2916 -0.4404
   78SLPC   C22 7099   4.105   1.052   6.853  0.5071 -0.7036 -0.0627
   78SLPC   H2R 7100   4.133   1.053   6.745  0.2757 -0.1774 -0.1210
   78SLPC   H2S 7101   4.099   1.157   6.888  0.8899 -0.6531 -0.1375
   78SLPC    C3 7102   3.824   0.728   6.865 -0.0433 -0.2256  0.1900
   78SLPC    HX 7103   3.866   0.648   6.799  1.0956 -0.1613  0.8135
   78SLPC    HY 7104   3.718   0.700   6.882  0.2514 -0.3793  1.8875
   78SLPC   O31 7105   3.902   0.746   6.984 -0.4993 -0.6933 -0.0806
   78SLPC   C31 7106   3.859   0.667   7.092  0.1765  0.1884 -0.2550
   78SLPC   O32 7107   3.777   0.578   7.077  0.3329 -0.2933 -0.3639
   78SLPC   C32 7108   3.933   0.702   7.222  0.3210  0.0344  0.4415
   78SLPC   H2X 7109   3.966   0.807   7.204  0.3683  0.1626  1.2308
   78SLPC   H2Y 7110   4.012   0.628   7.249 -1.9183 -2.3512  0.7716
   78SLPC   C23 7111   4.192   0.977   6.945 -0.9054 -0.1272 -0.3509
   78SLPC   H3R 7112   4.296   0.982   6.904 -1.3420 -0.6425 -1.5856
   78SLPC   H3S 7113   4.170   0.868   6.944  0.9170 -0.5375 -0.4673
   78SLPC   C24 7114   4.196   1.023   7.102  0.5085  0.4419 -0.6106
   78SLPC   H4R 7115   4.091   1.021   7.138  0.6596  3.9780  0.4322
   78SLPC   H4S 7116   4.238   1.126   7.107 -1.3864  1.2830 -1.2588
   78SLPC   C25 7117   4.288   0.937   7.188 -0.6931  0.1609  0.1587
   78SLPC   H5R 7118   4.387   0.945   7.138  0.2304  0.9871  2.0272
   78SLPC   H5S 7119   4.262   0.830   7.173  0.8103 -0.5652  2.2309
   78SLPC   C26 7120   4.288   0.972   7.336 -0.8080  0.5164 -0.1476
   78SLPC   H6R 7121   4.185   0.965   7.378 -0.9946  0.6564 -0.5846
   78SLPC   H6S 7122   4.330   1.074   7.345  3.4580 -1.0695  0.5013
   78SLPC   C27 7123   4.373   0.868   7.419 -0.4262 -0.9969  0.0374
   78SLPC   H7R 7124   4.475   0.881   7.378 -1.1721 -0.8913 -1.9027
   78SLPC   H7S 7125   4.334   0.766   7.398 -2.7060 -0.2027  0.0850
   78SLPC   C28 7126   4.366   0.899   7.568 -0.0281 -0.8833 -0.1496
   78SLPC   H8R 7127   4.413   0.811   7.616 -1.2727 -1.0490  0.8180
   78SLPC   H8S 7128   4.260   0.904   7.602  0.6237 -3.1655  2.5335
   78SLPC   C29 7129   4.441   1.028   7.605  0.0904  0.4602 -0.1835
   78SLPC   H9R 7130   4.521   1.071   7.543 -0.7113  0.2007 -1.4389
   78SLPC  C210 7131   4.416   1.093   7.720  0.4660  0.2576 -0.2164
   78SLPC  H10R 7132   4.463   1.191   7.737 -1.6312  1.5862 -1.5760
   78SLPC  C211 7133   4.325   1.051   7.832  0.2258  0.2918 -0.8672
   78SLPC  H11R 7134   4.388   0.993   7.903 -2.6053 -0.8379  0.9139
   78SLPC  H11S 7135   4.247   0.980   7.799 -1.3758  0.9202  1.3140
   78SLPC  C212 7136   4.246   1.161   7.892 -0.2645  0.1526  0.0436
   78SLPC  H12R 7137   4.279   1.196   7.991 -0.0961  2.3046 -0.7272
   78SLPC  C213 7138   4.134   1.215   7.838 -0.1286 -0.0372 -0.3454
   78SLPC  H13R 7139   4.080   1.288   7.900 -1.5512 -1.4477  0.1464
   78SLPC  C214 7140   4.069   1.169   7.714  0.4910  0.7415 -0.6138
   78SLPC  H14R 7141   3.994   1.088   7.730  0.4949  0.8551  0.0234
   78SLPC  H14S 7142   4.131   1.118   7.638 -0.0878  0.1874 -0.7243
   78SLPC  C215 7143   3.993   1.278   7.641  0.6483 -0.1402  0.4332
   78SLPC  H15R 7144   4.068   1.343   7.591 -0.3935 -0.2207 -1.3275
   78SLPC  H15S 7145   3.935   1.347   7.706 -2.0024 -1.1209 -0.7344
   78SLPC  C216 7146   3.889   1.223   7.540  0.4262  0.4530  0.3008
   78SLPC  H16R 7147   3.842   1.309   7.487 -0.0194  0.7329  1.1223
   78SLPC  H16S 7148   3.808   1.165   7.591 -1.1531  0.1490 -2.3274
   78SLPC  C217 7149   3.945   1.116   7.439  0.1593 -0.0742 -0.4374
   78SLPC  H17R 7150   3.959   1.018   7.488 -1.7071 -0.7325 -1.1031
   78SLPC  H17S 7151   4.046   1.148   7.406 -0.0731  1.8871  0.5727
   78SLPC  C218 7152   3.846   1.084   7.325  0.8695 -0.4698  0.1370
   78SLPC  H18R 7153   3.894   1.007   7.261  1.6094 -0.4705  0.6837
   78SLPC  H18S 7154   3.824   1.176   7.268 -0.6785 -1.4966 -1.0341
   78SLPC  H18T 7155   3.751   1.053   7.375  0.6775  2.2012  1.5812
   78SLPC   C33 7156   3.840   0.699   7.342  0.4160 -0.0051 -0.4538
   78SLPC   H3X 7157   3.803   0.595   7.347  1.7365 -0.4328  1.8053
   78SLPC   H3Y 7158   3.757   0.772   7.326  0.2372 -0.6457 -2.9183
   78SLPC   C34 7159   3.911   0.723   7.473  0.7661  0.5758 -0.3783
   78SLPC   H4X 7160   3.984   0.806   7.460 -1.1548  2.2618 -0.8716
   78SLPC   H4Y 7161   3.963   0.631   7.506  0.1337  0.1271 -0.6253
   78SLPC   C35 7162   3.819   0.748   7.593  0.5725  0.8870 -0.3404
   78SLPC   H5X 7163   3.723   0.692   7.589 -0.4748  2.6616 -2.6057
   78SLPC   H5Y 7164   3.800   0.856   7.574  0.2894  1.1654  1.3503
   78SLPC   C36 7165   3.886   0.737   7.727  0.0727 -0.2381 -0.1469
   78SLPC   H6X 7166   3.980   0.793   7.710 -0.3689 -0.1038 -2.4737
   78SLPC   H6Y 7167   3.898   0.629   7.749  1.8909  0.6158  4.0236
   78SLPC   C37 7168   3.814   0.804   7.844 -0.0357 -0.1772 -0.2304
   78SLPC   H7X 7169   3.709   0.767   7.847 -0.1171 -0.1859 -2.0824
   78SLPC   H7Y 7170   3.813   0.912   7.817 -2.1804 -0.8199 -3.2783
   78SLPC   C38 7171   3.865   0.786   7.987 -0.5308 -0.8647 -0.0002
   78SLPC   H8X 7172   3.868   0.678   8.012  1.5458 -0.5690  1.2851
   78SLPC   H8Y 7173   3.791   0.830   8.058  0.2061 -0.9951  0.8750
   78SLPC   C39 7174   4.007   0.833   8.013  0.1802  0.7114 -0.1423
   78SLPC   H9X 7175   4.004   0.943   8.026 -1.6281  0.6973 -0.1235
   78SLPC   H9Y 7176   4.079   0.818   7.930  2.5106 -1.6803  2.1288
   78SLPC  C310 7177   4.042   0.773   8.151  0.4577 -0.0625  0.2900
   78SLPC  H10X 7178   4.024   0.664   8.135 -0.6966  0.2978 -1.1626
   78SLPC  H10Y 7179   3.965   0.805   8.225 -0.8981  0.1969 -1.1789
   78SLPC  C311 7180   4.181   0.798   8.209  0.4232 -0.6286 -0.2424
   78SLPC  H11X 7181   4.251   0.758   8.133 -0.2987 -0.8530 -0.8087
   78SLPC  H11Y 7182   4.202   0.732   8.296 -3.5125  1.0008  2.2176
   78SLPC  C312 7183   4.236   0.943   8.235 -0.4078 -0.1614  0.6495
   78SLPC  H12X 7184   4.178   0.976   8.324 -0.5344  0.3992  0.3599
   78SLPC  H12Y 7185   4.221   1.009   8.147  1.1409 -3.3448 -2.2366
   78SLPC  C313 7186   4.383   0.934   8.285  0.4213  0.5693 -0.0300
   78SLPC  H13X 7187   4.414   1.040   8.286  0.1440  0.6529 -0.2669
   78SLPC  H13Y 7188   4.449   0.872   8.220 -0.9738 -0.7050 -0.2807
   78SLPC  C314 7189   4.394   0.904   8.439  0.3623  0.0635  0.0629
   78SLPC  H14X 7190   4.377   0.794   8.445  0.0718 -0.2385 -3.9567
   78SLPC  H14Y 7191   4.307   0.954   8.486  0.7241  1.2447 -0.4766
   78SLPC  C315 7192   4.522   0.939   8.503 -0.5779 -0.1554 -0.0320
   78SLPC  H15X 7193   4.548   1.047   8.493  0.1488 -0.5290 -2.9998
   78SLPC  H15Y 7194   4.607   0.887   8.453 -0.4681 -0.9229  0.9278
   78SLPC  C316 7195   4.539   0.922   8.654  0.1669 -0.1008  0.6379
   78SLPC  H16X 7196   4.645   0.950   8.674  0.3662 -0.5166  0.1860
   78SLPC  H16Y 7197   4.537   0.814   8.682 -2.3352 -0.4600 -0.6471
   78SLPC  C317 7198   4.441   1.000   8.738 -0.3504  0.3738 -0.1055
   78SLPC  H17X 7199   4.338   0.958   8.729 -0.8587  1.2740  1.1541
   78SLPC  H17Y 7200   4.440   1.101   8.690  1.3237 -0.5930 -2.3275
   78SLPC  C318 7201   4.491   1.013   8.887 -0.0401 -0.2626  0.5617
   78SLPC  H18X 7202   4.413   1.065   8.947 -0.3261 -0.3380  0.2585
   78SLPC  H18Y 7203   4.582   1.077   8.897 -1.7854  2.4330  0.3057
   78SLPC  H18Z 7204   4.506   0.909   8.921  0.5730 -0.0996  0.7973
   79SLPC     N 7205   1.403   3.446   6.259 -0.0629  0.0159  0.3448
   79SLPC   C13 7206   1.458   3.579   6.206  0.0845  0.3828  0.3417
   79SLPC  H13A 7207   1.379   3.634   6.157  1.0646  0.5664 -1.0885
   79SLPC  H13B 7208   1.513   3.641   6.275  0.6975  2.1695 -1.6479
   79SLPC  H13C 7209   1.526   3.558   6.124  0.0469 -1.4318  0.7379
   79SLPC   C14 7210   1.525   3.364   6.303  0.8358 -0.1325  0.2524
   79SLPC  H14A 7211   1.498   3.260   6.308  1.9227 -0.5219 -1.1003
   79SLPC  H14B 7212   1.589   3.376   6.216 -1.9651 -0.2346 -1.9693
   79SLPC  H14C 7213   1.561   3.390   6.401 -0.1800  1.7794  0.1741
   79SLPC   C15 7214   1.334   3.381   6.141 -0.6637 -0.1075  0.3597
   79SLPC  H15A 7215   1.239   3.425   6.115  0.1438  0.2310 -2.3829
   79SLPC  H15B 7216   1.401   3.383   6.056 -0.9862 -0.9396  0.0717
   79SLPC  H15C 7217   1.321   3.278   6.171 -1.1717 -0.3991 -0.7918
   79SLPC   C12 7218   1.307   3.472   6.366  0.2437  0.2650  0.3914
   79SLPC  H12A 7219   1.228   3.530   6.323  1.1727  0.3626 -1.2668
   79SLPC  H12B 7220   1.349   3.540   6.438  0.7812 -1.3583  1.6793
   79SLPC   C11 7221   1.252   3.345   6.438 -0.2002 -0.1019 -0.6379
   79SLPC  H11A 7222   1.188   3.390   6.517  1.1147  0.2677  0.2574
   79SLPC  H11B 7223   1.334   3.287   6.486  1.3346  0.5471 -2.3519
   79SLPC     P 7224   1.024   3.264   6.335  0.1187 -0.1300 -0.0301
   79SLPC   O13 7225   0.960   3.346   6.437  0.3752  0.4069  0.0371
   79SLPC   O14 7226   1.009   3.304   6.194  0.1505 -0.3216  0.6294
   79SLPC   O12 7227   1.179   3.257   6.358  0.0409 -0.2991  0.2756
   79SLPC   O11 7228   0.977   3.113   6.343  0.5101 -0.0453 -0.3804
   79SLPC    C1 7229   1.037   3.013   6.269 -0.0412  0.3509  0.1954
   79SLPC    HA 7230   0.973   2.968   6.189  1.1866 -3.0940  0.9506
   79SLPC    HB 7231   1.123   3.047   6.207  1.5600  0.4967  2.3953
   79SLPC    C2 7232   1.073   2.899   6.364  0.2367 -0.2537  0.5590
   79SLPC    HS 7233   0.978   2.873   6.414 -1.3008  0.4229 -1.8467
   79SLPC   O21 7234   1.180   2.938   6.452  0.3631 -0.6008 -0.3869
   79SLPC   C21 7235   1.146   2.951   6.581 -0.0959 -0.0933  0.5522
   79SLPC   O22 7236   1.034   2.926   6.617  0.0485 -0.8966  0.7042
   79SLPC   C22 7237   1.265   2.993   6.667 -0.6075 -0.1055 -0.5461
   79SLPC   H2R 7238   1.340   2.912   6.683 -0.4778  0.4101  1.7097
   79SLPC   H2S 7239   1.319   3.067   6.605  1.0506  0.2653  1.2410
   79SLPC    C3 7240   1.128   2.780   6.273 -0.2015  0.2912 -0.2296
   79SLPC    HX 7241   1.210   2.823   6.212 -0.3406 -2.3190 -2.4608
   79SLPC    HY 7242   1.049   2.748   6.201 -1.3830  0.0495  1.1189
   79SLPC   O31 7243   1.194   2.668   6.339  0.2166  0.0520  0.5656
   79SLPC   C31 7244   1.117   2.572   6.382  1.1982  0.6805  0.1965
   79SLPC   O32 7245   0.997   2.569   6.361 -0.0258  0.0806  0.5425
   79SLPC   C32 7246   1.206   2.464   6.446  0.4212  0.2366 -0.0004
   79SLPC   H2X 7247   1.272   2.431   6.363 -0.2540  1.4724 -1.0661
   79SLPC   H2Y 7248   1.146   2.373   6.464  0.3453  0.4711  1.0168
   79SLPC   C23 7249   1.210   3.056   6.791 -0.3616 -0.3004  1.1536
   79SLPC   H3R 7250   1.300   3.070   6.855  0.2792  0.0060  0.1997
   79SLPC   H3S 7251   1.147   2.979   6.841  0.7572 -2.1787 -0.1769
   79SLPC   C24 7252   1.138   3.188   6.774  0.1056  0.0668 -0.1181
   79SLPC   H4R 7253   1.050   3.170   6.708 -1.2046  2.9824  0.6607
   79SLPC   H4S 7254   1.213   3.260   6.734 -0.0956  0.8910  0.9466
   79SLPC   C25 7255   1.089   3.243   6.907 -0.3500 -0.4556 -0.4641
   79SLPC   H5R 7256   1.094   3.354   6.902 -1.8042 -0.3222  0.4513
   79SLPC   H5S 7257   1.159   3.201   6.983 -0.8991 -0.4411  0.0510
   79SLPC   C26 7258   0.953   3.190   6.938  0.6102  0.0227 -0.1226
   79SLPC   H6R 7259   0.953   3.082   6.963  2.0650  0.0438  0.0379
   79SLPC   H6S 7260   0.879   3.186   6.855  0.7190 -1.0498 -0.1822
   79SLPC   C27 7261   0.871   3.274   7.040 -0.7812 -0.9174 -0.0537
   79SLPC   H7R 7262   0.885   3.380   7.009 -0.8914 -0.9745 -0.2979
   79SLPC   H7S 7263   0.919   3.278   7.141 -0.8066 -0.3375 -0.0621
   79SLPC   C28 7264   0.724   3.241   7.059  0.2930 -0.3494  0.1070
   79SLPC   H8R 7265   0.653   3.240   6.974  0.6815 -0.9424 -0.2191
   79SLPC   H8S 7266   0.683   3.313   7.132 -2.7485 -0.3970 -1.4114
   79SLPC   C29 7267   0.739   3.102   7.111  1.1995  0.7987 -0.3543
   79SLPC   H9R 7268   0.779   3.026   7.042 -0.4221 -1.1327  0.7462
   79SLPC  C210 7269   0.714   3.062   7.241 -0.1315  0.2023  0.5351
   79SLPC  H10R 7270   0.732   2.958   7.271 -0.0453 -0.2785 -1.1047
   79SLPC  C211 7271   0.680   3.156   7.356 -0.2943  0.4389 -0.1843
   79SLPC  H11R 7272   0.665   3.086   7.442 -0.0160 -1.3805 -1.5698
   79SLPC  H11S 7273   0.583   3.209   7.343  0.3616  1.1753 -2.3362
   79SLPC  C212 7274   0.793   3.255   7.402  0.0285  0.6745  0.1396
   79SLPC  H12R 7275   0.871   3.282   7.330  0.7473  2.5799  1.5383
   79SLPC  C213 7276   0.788   3.327   7.518  0.0193 -0.4169 -0.4483
   79SLPC  H13R 7277   0.872   3.395   7.542 -0.9220  0.5105  0.2830
   79SLPC  C214 7278   0.676   3.329   7.622 -0.3117  0.4809 -0.3031
   79SLPC  H14R 7279   0.584   3.327   7.559 -0.0599  1.4839 -0.7327
   79SLPC  H14S 7280   0.670   3.428   7.673 -1.2554 -1.8152  4.6079
   79SLPC  C215 7281   0.674   3.231   7.739 -0.0089 -0.1094 -0.1353
   79SLPC  H15R 7282   0.684   3.138   7.679 -1.5814 -0.2191 -0.2670
   79SLPC  H15S 7283   0.573   3.225   7.786  0.6591  0.8950  1.5164
   79SLPC  C216 7284   0.790   3.257   7.843 -0.3185  0.3826  1.1439
   79SLPC  H16R 7285   0.870   3.316   7.793  0.0716 -1.6722 -0.7704
   79SLPC  H16S 7286   0.837   3.165   7.884  1.2335  0.6720  0.0641
   79SLPC  C217 7287   0.745   3.328   7.963  0.0014  0.5707  0.3436
   79SLPC  H17R 7288   0.655   3.279   8.005  0.0295  1.3609  1.3788
   79SLPC  H17S 7289   0.719   3.434   7.942  1.0806  0.9262  0.7347
   79SLPC  C218 7290   0.856   3.327   8.072 -0.0501 -0.2700  0.5372
   79SLPC  H18R 7291   0.822   3.369   8.168 -0.6485 -0.7664  0.5526
   79SLPC  H18S 7292   0.940   3.384   8.029 -0.9953  0.1598 -0.8093
   79SLPC  H18T 7293   0.889   3.222   8.089  0.9990 -0.2778 -1.2709
   79SLPC   C33 7294   1.272   2.509   6.573  0.1597  0.4107  0.2283
   79SLPC   H3X 7295   1.319   2.609   6.558 -1.5710  1.3163  0.6770
   79SLPC   H3Y 7296   1.364   2.449   6.594  1.3964  2.2986  0.4357
   79SLPC   C34 7297   1.177   2.519   6.696 -0.3057 -0.2370  0.3027
   79SLPC   H4X 7298   1.142   2.422   6.737 -0.5318 -0.6189 -0.7528
   79SLPC   H4Y 7299   1.082   2.568   6.666 -1.4994 -2.1729  0.7595
   79SLPC   C35 7300   1.247   2.599   6.816  0.2725 -0.0324  0.0429
   79SLPC   H5X 7301   1.313   2.670   6.762 -1.7226  2.1138  0.2506
   79SLPC   H5Y 7302   1.310   2.519   6.861 -2.0791 -3.5563 -2.3591
   79SLPC   C36 7303   1.142   2.658   6.920 -0.9567  0.0062  0.4215
   79SLPC   H6X 7304   1.096   2.574   6.975  0.3315 -0.0529  1.4685
   79SLPC   H6Y 7305   1.064   2.717   6.868 -0.5058  0.7049  0.5201
   79SLPC   C37 7306   1.225   2.757   7.013 -0.1878  0.0109  0.5494
   79SLPC   H7X 7307   1.293   2.824   6.955  1.0145 -0.1942  1.6890
   79SLPC   H7Y 7308   1.278   2.701   7.092 -0.1618  0.1527  0.6331
   79SLPC   C38 7309   1.127   2.847   7.101 -0.7440 -0.1486 -0.0494
   79SLPC   H8X 7310   1.087   2.798   7.193  0.5040  1.8439  1.6623
   79SLPC   H8Y 7311   1.041   2.885   7.041 -0.5886 -0.0341 -0.2015
   79SLPC   C39 7312   1.213   2.954   7.169 -0.2522  0.6318 -0.1937
   79SLPC   H9X 7313   1.250   3.022   7.090  1.3014 -0.5960 -0.5793
   79SLPC   H9Y 7314   1.295   2.926   7.239 -1.8072 -0.6956  1.1791
   79SLPC  C310 7315   1.129   3.048   7.257 -0.1819  0.5626 -0.1918
   79SLPC  H10X 7316   1.040   3.089   7.205 -0.3194  1.5680  0.8045
   79SLPC  H10Y 7317   1.180   3.142   7.286  1.4197 -0.2796 -0.1318
   79SLPC  C311 7318   1.072   2.984   7.377 -0.0065 -0.4954  0.0245
   79SLPC  H11X 7319   1.130   2.890   7.394 -1.1889 -1.0941  0.9022
   79SLPC  H11Y 7320   0.965   2.961   7.360 -0.2356 -0.6901  1.5113
   79SLPC  C312 7321   1.090   3.075   7.500  0.4611 -0.5841 -0.6419
   79SLPC  H12X 7322   1.049   3.178   7.492  1.5275  0.0009  1.0732
   79SLPC  H12Y 7323   1.200   3.088   7.511  0.0290  1.1256  3.7785
   79SLPC  C313 7324   1.039   3.001   7.623  0.0620  0.3940  0.2006
   79SLPC  H13X 7325   1.054   2.891   7.613 -2.2793  0.0510 -0.0641
   79SLPC  H13Y 7326   0.929   3.016   7.630 -0.2870 -1.5945 -0.2592
   79SLPC  C314 7327   1.100   3.058   7.752  0.3920 -0.0765 -0.7995
   79SLPC  H14X 7328   1.049   3.156   7.759  0.3622 -0.1239 -0.3253
   79SLPC  H14Y 7329   1.208   3.084   7.748 -0.0167  1.6258 -2.2722
   79SLPC  C315 7330   1.074   2.966   7.870  0.3560  0.0168 -0.3002
   79SLPC  H15X 7331   1.132   2.873   7.855  2.1612  1.1959 -0.9391
   79SLPC  H15Y 7332   0.964   2.950   7.861  0.1367  1.9898 -1.9579
   79SLPC  C316 7333   1.115   3.036   7.999 -0.4223  1.1119  0.1815
   79SLPC  H16X 7334   1.084   3.143   8.003 -0.5268  1.0614  0.7946
   79SLPC  H16Y 7335   1.223   3.016   8.013 -0.4736  0.9295  0.3104
   79SLPC  C317 7336   1.043   2.966   8.112 -0.6114  0.1612  0.1232
   79SLPC  H17X 7337   1.033   2.860   8.080  0.3992 -0.7495  2.6593
   79SLPC  H17Y 7338   0.938   3.001   8.099 -0.3858  0.1069 -2.3084
   79SLPC  C318 7339   1.107   2.980   8.248  0.1714 -0.5505  0.3457
   79SLPC  H18X 7340   1.200   2.920   8.244  0.3370 -0.2253 -1.0661
   79SLPC  H18Y 7341   1.032   2.940   8.320 -0.5157  0.4132  0.1976
   79SLPC  H18Z 7342   1.131   3.087   8.265  2.2045 -1.0171  0.5799
   80SLPC     N 7343   1.815   0.867   6.227  0.0175 -0.2361 -0.0525
   80SLPC   C13 7344   1.711   0.900   6.124 -0.0924  0.3078 -0.4937
   80SLPC  H13A 7345   1.626   0.951   6.169  0.3187 -1.4022  2.4720
   80SLPC  H13B 7346   1.739   0.972   6.049 -0.7256  1.7635  0.6151
   80SLPC  H13C 7347   1.688   0.807   6.074 -0.8381  0.3560 -0.2512
   80SLPC   C14 7348   1.847   1.001   6.298 -0.1248  0.0440  0.2418
   80SLPC  H14A 7349   1.767   1.025   6.367 -0.0701 -1.3670  0.8289
   80SLPC  H14B 7350   1.934   0.994   6.361 -0.2215 -0.2854  0.3438
   80SLPC  H14C 7351   1.861   1.072   6.218  1.6035  0.2462  0.6765
   80SLPC   C15 7352   1.937   0.831   6.153 -0.0251  0.2525  0.4210
   80SLPC  H15A 7353   2.025   0.812   6.213  1.3637  0.5720 -1.4278
   80SLPC  H15B 7354   1.912   0.759   6.077  0.6078 -0.7921  1.1720
   80SLPC  H15C 7355   1.973   0.920   6.104  0.3691  0.6062  1.3274
   80SLPC   C12 7356   1.772   0.763   6.324  0.7328  0.6097  0.0728
   80SLPC  H12A 7357   1.761   0.666   6.278 -1.8360 -0.0204  1.7642
   80SLPC  H12B 7358   1.672   0.791   6.354 -0.3760  0.1440 -2.8944
   80SLPC   C11 7359   1.841   0.739   6.465 -0.3945 -0.1670  0.1203
   80SLPC  H11A 7360   1.778   0.672   6.528 -2.2640  0.8689 -0.5658
   80SLPC  H11B 7361   1.860   0.832   6.523  0.2080 -0.8241  0.9897
   80SLPC     P 7362   2.098   0.717   6.473  0.1282  0.3423  0.2705
   80SLPC   O13 7363   2.154   0.758   6.343 -0.2401 -0.4875 -0.7492
   80SLPC   O14 7364   2.104   0.817   6.583  0.2492 -0.2468  0.1360
   80SLPC   O12 7365   1.956   0.665   6.448 -0.1614  0.3686  0.4647
   80SLPC   O11 7366   2.169   0.587   6.523  0.3838  0.5888 -0.0973
   80SLPC    C1 7367   2.104   0.469   6.565 -0.0321 -0.2700 -0.1104
   80SLPC    HA 7368   2.044   0.421   6.485 -0.4528 -0.7546  0.4825
   80SLPC    HB 7369   2.182   0.394   6.590  1.3551  1.1619 -0.0435
   80SLPC    C2 7370   2.015   0.485   6.693  0.5328 -0.6016 -0.6246
   80SLPC    HS 7371   1.943   0.569   6.685 -3.5072 -3.4365  1.9771
   80SLPC   O21 7372   2.103   0.520   6.803 -0.4734  0.1459  0.2488
   80SLPC   C21 7373   2.045   0.566   6.916 -0.4656  0.4187 -0.7227
   80SLPC   O22 7374   1.930   0.600   6.927 -0.8485  0.0654  0.6931
   80SLPC   C22 7375   2.147   0.571   7.039 -0.2475  0.4162  0.4709
   80SLPC   H2R 7376   2.198   0.472   7.044  1.4594  1.2886  1.4247
   80SLPC   H2S 7377   2.230   0.637   7.005 -0.6264  0.1486 -1.0216
   80SLPC    C3 7378   1.923   0.365   6.731 -0.8866 -0.6460  0.1746
   80SLPC    HX 7379   1.861   0.332   6.646  1.3042  0.2773 -1.8952
   80SLPC    HY 7380   1.848   0.417   6.795 -1.5891  0.8416 -1.7376
   80SLPC   O31 7381   1.999   0.256   6.780 -0.1995  0.1545 -0.9812
   80SLPC   C31 7382   1.999   0.235   6.910 -0.3285  0.1786 -0.3554
   80SLPC   O32 7383   1.933   0.301   6.986  0.1159 -0.3554 -0.2242
   80SLPC   C32 7384   2.099   0.128   6.937 -0.6397  0.7422 -0.1734
   80SLPC   H2X 7385   2.202   0.167   6.925 -0.4793  0.5125  0.4258
   80SLPC   H2Y 7386   2.088   0.048   6.861  1.0081 -1.1727  1.5082
   80SLPC   C23 7387   2.091   0.613   7.178 -0.1574 -0.0633  0.7693
   80SLPC   H3R 7388   1.982   0.593   7.184 -0.1342 -0.0387  1.3088
   80SLPC   H3S 7389   2.116   0.721   7.185 -1.7530  0.4424 -0.6743
   80SLPC   C24 7390   2.143   0.534   7.302  0.2060 -0.1626  0.2669
   80SLPC   H4R 7391   2.253   0.522   7.305  0.3930  1.2835 -0.0001
   80SLPC   H4S 7392   2.091   0.436   7.302  2.6609 -1.6359 -2.6999
   80SLPC   C25 7393   2.125   0.610   7.439  0.3570  0.4351  0.7692
   80SLPC   H5R 7394   2.016   0.630   7.445  0.5195  1.8188 -0.4511
   80SLPC   H5S 7395   2.178   0.707   7.443  0.3530  0.4442  0.5791
   80SLPC   C26 7396   2.165   0.524   7.554 -0.0975 -0.1966 -0.0498
   80SLPC   H6R 7397   2.276   0.516   7.547 -0.1878 -0.4466 -1.6434
   80SLPC   H6S 7398   2.118   0.423   7.554 -0.6212  0.0194 -1.5745
   80SLPC   C27 7399   2.131   0.588   7.689  0.3443 -0.0371  0.1130
   80SLPC   H7R 7400   2.026   0.622   7.696  0.1055 -0.8840  0.7960
   80SLPC   H7S 7401   2.194   0.676   7.714  1.0611 -0.5888  0.2853
   80SLPC   C28 7402   2.151   0.475   7.798  0.6322 -0.6673 -0.4356
   80SLPC   H8R 7403   2.078   0.395   7.771 -1.8266  1.2883  0.0355
   80SLPC   H8S 7404   2.103   0.518   7.889 -2.1945  1.2478 -2.6447
   80SLPC   C29 7405   2.285   0.422   7.829  0.4301  0.2582 -0.1413
   80SLPC   H9R 7406   2.314   0.332   7.773  0.7579 -0.3779  1.0167
   80SLPC  C210 7407   2.358   0.451   7.939 -0.0901  0.4054 -0.4482
   80SLPC  H10R 7408   2.452   0.394   7.944 -0.1225  0.3040 -0.9468
   80SLPC  C211 7409   2.331   0.552   8.050  0.4889  0.4245  0.0479
   80SLPC  H11R 7410   2.292   0.646   8.006  0.7756  1.7388  2.4395
   80SLPC  H11S 7411   2.427   0.582   8.096  0.6896  0.3863 -0.3408
   80SLPC  C212 7412   2.244   0.490   8.157  0.2035  0.2123  1.2727
   80SLPC  H12R 7413   2.143   0.464   8.124  1.6050 -1.8401 -1.8704
   80SLPC  C213 7414   2.268   0.465   8.284 -0.5262 -0.5441  0.9663
   80SLPC  H13R 7415   2.192   0.424   8.352 -3.1036  1.0774 -0.7692
   80SLPC  C214 7416   2.404   0.479   8.341  0.4521 -0.7175  0.2404
   80SLPC  H14R 7417   2.441   0.580   8.315  0.5443 -0.9560 -0.5766
   80SLPC  H14S 7418   2.469   0.402   8.294 -1.0553 -1.4071 -0.7951
   80SLPC  C215 7419   2.408   0.452   8.493  0.6505  0.0412 -0.1758
   80SLPC  H15R 7420   2.515   0.446   8.523 -0.3761  0.2367  4.1626
   80SLPC  H15S 7421   2.361   0.356   8.522 -0.3167  0.6845  0.4150
   80SLPC  C216 7422   2.347   0.563   8.575  0.0975 -0.7521 -0.2630
   80SLPC  H16R 7423   2.240   0.561   8.543 -0.4412  4.2980  0.4134
   80SLPC  H16S 7424   2.400   0.652   8.535 -1.1128 -0.1298 -0.5329
   80SLPC  C217 7425   2.365   0.548   8.727 -0.2172  0.4430 -0.2669
   80SLPC  H17R 7426   2.470   0.519   8.752 -1.4426 -4.0537  0.5600
   80SLPC  H17S 7427   2.324   0.450   8.761 -1.1323  1.2005  0.8869
   80SLPC  C218 7428   2.317   0.660   8.815  0.0195 -0.0711  0.5923
   80SLPC  H18R 7429   2.313   0.619   8.918  1.3074 -0.8335  0.3668
   80SLPC  H18S 7430   2.213   0.676   8.780 -0.0433 -0.4345  0.6069
   80SLPC  H18T 7431   2.381   0.748   8.790  0.9749 -0.8544  0.2233
   80SLPC   C33 7432   2.086   0.063   7.081  0.1447  0.6857  0.0860
   80SLPC   H3X 7433   2.154  -0.026   7.083 -1.0097 -0.2748 -1.2168
   80SLPC   H3Y 7434   1.984   0.025   7.105 -0.5222  2.9198  1.0020
   80SLPC   C34 7435   2.158   0.141   7.188 -0.1172 -0.1169 -0.1449
   80SLPC   H4X 7436   2.114   0.243   7.186 -2.2697 -1.0009 -1.4742
   80SLPC   H4Y 7437   2.264   0.152   7.155 -0.5940  0.3679 -1.5804
   80SLPC   C35 7438   2.143   0.074   7.325  0.1091  0.4970 -0.1078
   80SLPC   H5X 7439   2.203   0.122   7.405 -0.2380 -0.0045  0.4600
   80SLPC   H5Y 7440   2.185  -0.029   7.317 -0.4644  0.1995  0.6308
   80SLPC   C36 7441   1.999   0.080   7.371  0.3971 -0.2801 -0.2617
   80SLPC   H6X 7442   1.933   0.020   7.303 -2.2756  0.3180  1.6518
   80SLPC   H6Y 7443   1.966   0.185   7.361 -0.9921 -0.6115  0.5707
   80SLPC   C37 7444   1.975   0.019   7.512  0.0255  0.4771  0.6534
   80SLPC   H7X 7445   2.036  -0.073   7.523  2.7655  1.8586 -1.6796
   80SLPC   H7Y 7446   1.865   0.001   7.511 -0.3470  2.4248  1.2069
   80SLPC   C38 7447   1.996   0.122   7.628 -0.6322 -0.2904 -0.1101
   80SLPC   H8X 7448   1.969   0.224   7.592 -0.2904 -0.2970 -0.4024
   80SLPC   H8Y 7449   2.107   0.121   7.640 -0.3001  0.8919 -2.4159
   80SLPC   C39 7450   1.924   0.081   7.755 -0.4991  0.0523  0.2385
   80SLPC   H9X 7451   1.934  -0.029   7.769 -1.6203 -0.2655 -1.1809
   80SLPC   H9Y 7452   1.818   0.091   7.723 -0.3079 -1.5096 -0.9949
   80SLPC  C310 7453   1.963   0.143   7.885 -0.3335  0.5445  0.2264
   80SLPC  H10X 7454   1.955   0.252   7.867 -0.6859  0.4662 -0.1096
   80SLPC  H10Y 7455   2.072   0.140   7.907 -0.4398  1.6948  0.9474
   80SLPC  C311 7456   1.882   0.090   8.001 -0.9950 -0.8854  0.0429
   80SLPC  H11X 7457   1.894  -0.020   8.013  0.3355 -0.8035 -0.3689
   80SLPC  H11Y 7458   1.777   0.122   7.989 -0.9488 -0.6458  0.2847
   80SLPC  C312 7459   1.931   0.152   8.132  0.0335 -0.4611  0.6924
   80SLPC  H12X 7460   1.940   0.262   8.122  0.1172 -0.4555  0.8280
   80SLPC  H12Y 7461   2.031   0.110   8.157 -0.4328 -0.9506  1.8120
   80SLPC  C313 7462   1.837   0.122   8.246  0.2606  0.3880 -0.4354
   80SLPC  H13X 7463   1.729   0.123   8.219 -0.0565 -3.6945  0.0206
   80SLPC  H13Y 7464   1.851   0.199   8.324 -1.6457 -0.4549  0.8004
   80SLPC  C314 7465   1.861  -0.009   8.314 -0.2364 -0.7258 -0.3468
   80SLPC  H14X 7466   1.969  -0.021   8.334  0.0561 -0.6376 -1.7949
   80SLPC  H14Y 7467   1.852  -0.093   8.242  2.3613 -0.7574 -0.7150
   80SLPC  C315 7468   1.781  -0.024   8.437 -0.1619  0.0399 -0.2523
   80SLPC  H15X 7469   1.673  -0.027   8.413 -0.4731 -3.4004  1.0163
   80SLPC  H15Y 7470   1.806   0.063   8.501  1.4125  1.1367 -2.2164
   80SLPC  C316 7471   1.800  -0.158   8.508  0.2316  0.3980  0.6549
   80SLPC  H16X 7472   1.905  -0.154   8.545  0.6652 -2.0462 -0.1303
   80SLPC  H16Y 7473   1.788  -0.241   8.436 -1.5652  1.6760 -0.5896
   80SLPC  C317 7474   1.710  -0.174   8.628 -0.4000 -0.2221 -0.3041
   80SLPC  H17X 7475   1.610  -0.170   8.579  0.3766 -0.5335 -1.9851
   80SLPC  H17Y 7476   1.717  -0.090   8.700  0.6094 -0.0784 -0.5521
   80SLPC  C318 7477   1.734  -0.311   8.693 -0.3763 -0.0938  0.3545
   80SLPC  H18X 7478   1.844  -0.323   8.699 -0.3986 -0.2299  0.4966
   80SLPC  H18Y 7479   1.700  -0.396   8.631 -1.1409  0.6610 -0.2936
   80SLPC  H18Z 7480   1.691  -0.318   8.796  1.3063 -2.3992  0.9670
   81SAPS     N 7481   2.701   1.865  11.544  0.4297  0.2634 -0.3062
   81SAPS   HN1 7482   2.652   1.955  11.558 -0.0281  0.1072 -0.8376
   81SAPS   HN2 7483   2.697   1.804  11.628 -1.7379 -1.2436 -1.3975
   81SAPS   HN3 7484   2.803   1.875  11.529  0.3695  0.5759 -0.5091
   81SAPS   C12 7485   2.634   1.775  11.436  0.2100  0.0658  0.6639
   81SAPS  H12A 7486   2.673   1.674  11.437  0.4847  0.1660  0.1678
   81SAPS   C13 7487   2.479   1.780  11.456  0.4899 -0.5435 -0.2344
   81SAPS  O13A 7488   2.421   1.851  11.547 -0.0022  0.1711  0.1542
   81SAPS  O13B 7489   2.409   1.728  11.363 -0.0685  0.1213  0.0285
   81SAPS   C11 7490   2.657   1.822  11.291 -0.3741 -0.9887  0.4109
   81SAPS  H11A 7491   2.620   1.927  11.290  0.2085 -0.7805  0.7357
   81SAPS  H11B 7492   2.602   1.759  11.218 -0.6470  0.3584 -0.5807
   81SAPS     P 7493   2.868   1.885  11.127  0.0726  0.1059 -0.3862
   81SAPS   O13 7494   2.895   2.031  11.131  0.6818  0.5320 -0.6318
   81SAPS   O14 7495   2.983   1.797  11.104 -1.0641  0.2557  0.0098
   81SAPS   O12 7496   2.792   1.835  11.257  0.2210 -0.1330 -0.0602
   81SAPS   O11 7497   2.755   1.862  11.012 -0.0114  0.2446  0.0406
   81SAPS    C1 7498   2.754   1.752  10.918 -0.2153 -0.0185 -0.0150
   81SAPS    HA 7499   2.850   1.697  10.908 -0.4301 -0.4174  0.1165
   81SAPS    HB 7500   2.687   1.668  10.947 -1.9810  0.9912 -1.0106
   81SAPS    C2 7501   2.692   1.805  10.779 -0.1483  0.7873 -1.0780
   81SAPS    HS 7502   2.695   1.717  10.711 -0.7246 -0.2913  0.2553
   81SAPS   O21 7503   2.763   1.917  10.722 -0.2712 -0.4601 -1.0379
   81SAPS   C21 7504   2.894   1.911  10.706 -0.0766  0.0826 -0.7414
   81SAPS   O22 7505   2.964   1.814  10.695  0.0847  0.0180  0.3442
   81SAPS   C22 7506   2.945   2.061  10.709 -0.3324 -0.1385 -1.4437
   81SAPS   H2R 7507   2.894   2.115  10.790 -1.4696 -0.7636 -1.7260
   81SAPS   H2S 7508   3.053   2.061  10.737 -0.7524 -2.3860  0.4972
   81SAPS    C3 7509   2.541   1.849  10.805  0.7024  0.2401  0.6903
   81SAPS    HX 7510   2.548   1.917  10.892 -1.3210  0.6734  0.5832
   81SAPS    HY 7511   2.483   1.767  10.851  1.2809 -0.5769 -0.0051
   81SAPS   O31 7512   2.475   1.899  10.683  0.1017 -0.0395  0.0196
   81SAPS   C31 7513   2.442   1.803  10.606 -0.0055  0.3517  0.0610
   81SAPS   O32 7514   2.457   1.685  10.634 -0.2456 -0.5868 -0.0289
   81SAPS   C32 7515   2.383   1.861  10.477  0.4557  0.5689 -0.0590
   81SAPS   H2X 7516   2.459   1.927  10.432 -0.0218  2.2227  1.4763
   81SAPS   H2Y 7517   2.293   1.922  10.500 -0.6164 -1.5300  1.7033
   81SAPS   C23 7518   2.925   2.136  10.573 -0.9479  0.8461  0.1808
   81SAPS   H3R 7519   2.953   2.241  10.593  0.8840  0.7664 -1.6491
   81SAPS   H3S 7520   2.822   2.126  10.534 -0.8277  2.3855 -0.5917
   81SAPS   C24 7521   3.008   2.080  10.457  0.5649 -0.0851 -0.6171
   81SAPS   H4R 7522   3.115   2.081  10.486  0.9791  2.5931 -1.9317
   81SAPS   H4S 7523   3.010   2.162  10.382 -0.2661  2.0883  1.6255
   81SAPS   C25 7524   2.974   1.954  10.388 -0.4900  0.1548 -0.3964
   81SAPS   H5R 7525   3.010   1.862  10.437 -2.1892 -0.6654 -0.6149
   81SAPS   C26 7526   2.899   1.947  10.276 -0.3351 -0.4155 -0.3999
   81SAPS   H6R 7527   2.859   1.850  10.243 -1.4865  0.0256 -0.3405
   81SAPS   C27 7528   2.847   2.067  10.198  0.2257  0.3440 -0.3867
   81SAPS   H7R 7529   2.911   2.083  10.109  0.3424 -0.0368 -0.3730
   81SAPS   H7S 7530   2.842   2.158  10.261 -4.3724 -1.2454  1.9834
   81SAPS   C28 7531   2.704   2.046  10.160 -0.1783  0.6598 -0.2876
   81SAPS   H8R 7532   2.627   2.063  10.237 -0.7065 -1.0249 -0.4137
   81SAPS   C29 7533   2.657   1.997  10.047 -0.0468  0.0971 -0.2261
   81SAPS   H9R 7534   2.549   1.986  10.029 -0.4178  0.6967  1.4471
   81SAPS  C210 7535   2.745   1.958   9.929  0.8823 -0.6511  0.4089
   81SAPS  H10R 7536   2.709   1.856   9.902  0.8904 -0.3690 -0.7146
   81SAPS  H10S 7537   2.852   1.950   9.955  1.6990  2.3353 -1.5070
   81SAPS  C211 7538   2.734   2.066   9.821  0.7052  0.0424 -0.3338
   81SAPS  H11R 7539   2.753   2.167   9.858 -2.3260 -0.8236  4.3724
   81SAPS  C212 7540   2.706   2.044   9.689  0.2159  0.2688  0.2686
   81SAPS  H12R 7541   2.701   2.136   9.628 -0.5626 -0.2019 -0.3915
   81SAPS  C213 7542   2.680   1.910   9.627  0.4320 -0.3521  0.0837
   81SAPS  H13R 7543   2.596   1.931   9.557  0.1273  1.7390  1.0291
   81SAPS  H13S 7544   2.642   1.837   9.702 -0.1964  0.3012  0.4038
   81SAPS  C214 7545   2.804   1.851   9.560 -0.0257  0.8972  0.0067
   81SAPS  H14R 7546   2.873   1.803   9.631 -0.4463 -0.9900 -0.7992
   81SAPS  C215 7547   2.816   1.824   9.423 -0.1549 -0.2956  0.1984
   81SAPS  H15R 7548   2.916   1.797   9.385  0.4979  0.4360  1.3427
   81SAPS  C216 7549   2.720   1.861   9.308 -0.1740  0.4594 -0.0330
   81SAPS  H16R 7550   2.692   1.968   9.322 -0.4484  0.3827  0.0058
   81SAPS  H16S 7551   2.621   1.812   9.316 -0.8886  1.7465 -0.7133
   81SAPS  C217 7552   2.759   1.858   9.164 -0.6765 -0.9424  1.0128
   81SAPS  H17R 7553   2.766   1.747   9.153  0.9434 -1.0556  2.5915
   81SAPS  H17S 7554   2.862   1.899   9.161 -0.7731 -0.7495 -0.1129
   81SAPS  C218 7555   2.666   1.929   9.065  0.4633  0.0786 -0.0635
   81SAPS  H18R 7556   2.646   2.030   9.107 -0.3164  0.6233 -1.6751
   81SAPS  H18S 7557   2.568   1.878   9.054  0.3377  0.2533  0.2273
   81SAPS  C219 7558   2.739   1.954   8.933  0.4666  0.2152 -0.1960
   81SAPS  H19R 7559   2.748   1.858   8.878  1.0296  0.4199 -0.4742
   81SAPS  H19S 7560   2.839   1.991   8.963  1.4939 -2.9977  0.6143
   81SAPS  C220 7561   2.663   2.053   8.834 -0.1298 -0.0395  0.2417
   81SAPS  H20R 7562   2.562   2.009   8.821 -0.2838  0.2398  0.4619
   81SAPS  H20S 7563   2.702   2.041   8.731 -0.7702  0.2584 -0.0390
   81SAPS  H20T 7564   2.669   2.157   8.873  0.7851 -0.7824  2.2296
   81SAPS   C33 7565   2.353   1.746  10.372 -0.0296  0.0792 -0.3979
   81SAPS   H3X 7566   2.262   1.687  10.400  0.9353 -0.0811  2.8120
   81SAPS   H3Y 7567   2.437   1.674  10.360 -0.1002  0.2215 -1.8868
   81SAPS   C34 7568   2.345   1.805  10.231 -0.0302 -0.2283  0.8701
   81SAPS   H4X 7569   2.439   1.864  10.222 -0.2161  0.3985  2.5038
   81SAPS   H4Y 7570   2.262   1.879  10.222  0.2145  0.0444  0.8271
   81SAPS   C35 7571   2.320   1.711  10.112 -0.0056 -0.3454  0.3409
   81SAPS   H5X 7572   2.233   1.648  10.142 -0.7496 -0.4969 -1.9272
   81SAPS   H5Y 7573   2.404   1.640  10.101  0.5594  0.5781 -1.7604
   81SAPS   C36 7574   2.297   1.787   9.982 -1.3716 -0.5487 -0.2026
   81SAPS   H6X 7575   2.394   1.828   9.948 -1.5430  2.8564  2.7729
   81SAPS   H6Y 7576   2.231   1.875  10.000  1.2579  1.1369  1.9475
   81SAPS   C37 7577   2.240   1.695   9.875  0.2190 -1.3550  0.6523
   81SAPS   H7X 7578   2.133   1.666   9.885 -0.6847  0.9427 -1.4828
   81SAPS   H7Y 7579   2.302   1.605   9.852  0.8412 -0.5978 -0.7465
   81SAPS   C38 7580   2.236   1.778   9.742 -0.1141  0.2002 -0.0137
   81SAPS   H8X 7581   2.338   1.821   9.738 -0.2592  0.6043  0.5128
   81SAPS   H8Y 7582   2.165   1.863   9.746 -1.2337 -0.5843 -2.0179
   81SAPS   C39 7583   2.221   1.704   9.607  0.3057 -0.1933  0.0781
   81SAPS   H9X 7584   2.114   1.677   9.601  0.2050  0.0119  0.8454
   81SAPS   H9Y 7585   2.286   1.615   9.596  1.5358  0.2795  2.5357
   81SAPS  C310 7586   2.256   1.797   9.484 -0.4318 -0.6561 -0.0558
   81SAPS  H10X 7587   2.359   1.834   9.499 -0.4198 -0.6104 -0.2469
   81SAPS  H10Y 7588   2.191   1.887   9.493 -0.1451 -0.3373 -1.0337
   81SAPS  C311 7589   2.250   1.728   9.346  0.1573  0.6776  0.0663
   81SAPS  H11X 7590   2.237   1.618   9.353  1.4950  0.5847  1.5558
   81SAPS  H11Y 7591   2.342   1.751   9.289 -0.6655  1.1606 -1.1235
   81SAPS  C312 7592   2.132   1.768   9.258 -0.4849 -0.3648  0.4876
   81SAPS  H12X 7593   2.139   1.879   9.260  0.9185 -0.4516  2.0341
   81SAPS  H12Y 7594   2.041   1.724   9.304 -1.3567 -0.7739 -1.5114
   81SAPS  C313 7595   2.143   1.724   9.105  0.2433  0.0490  0.1919
   81SAPS  H13X 7596   2.149   1.614   9.096  0.8403  0.1793 -1.2831
   81SAPS  H13Y 7597   2.238   1.771   9.073 -1.1652  1.9791 -1.5149
   81SAPS  C314 7598   2.021   1.771   9.018  0.0552 -0.8588 -0.0548
   81SAPS  H14X 7599   2.017   1.882   9.013  0.4383 -0.8132  0.5556
   81SAPS  H14Y 7600   1.922   1.734   9.051 -0.9138  1.2834 -0.3602
   81SAPS  C315 7601   2.035   1.723   8.873  0.3015 -0.9107 -1.0371
   81SAPS  H15X 7602   2.030   1.612   8.871 -0.6252 -0.9864  1.7494
   81SAPS  H15Y 7603   2.139   1.743   8.837 -0.2246  0.2747 -1.9527
   81SAPS  C316 7604   1.932   1.781   8.771  0.1986 -0.2613  0.3906
   81SAPS  H16X 7605   1.955   1.887   8.751 -3.5463  0.5944  0.0662
   81SAPS  H16Y 7606   1.827   1.783   8.806 -0.7904  2.4148 -2.3791
   81SAPS  C317 7607   1.935   1.705   8.638  0.3536 -0.2643  0.2189
   81SAPS  H17X 7608   1.851   1.735   8.571  1.5666  0.9568 -0.8293
   81SAPS  H17Y 7609   1.920   1.601   8.672  1.4410 -0.4030  0.3128
   81SAPS  C318 7610   2.068   1.725   8.561 -0.5985  0.2735  0.5346
   81SAPS  H18X 7611   2.077   1.635   8.497 -0.1929  0.5381  0.2191
   81SAPS  H18Y 7612   2.162   1.716   8.620 -0.0439 -2.5093 -0.6382
   81SAPS  H18Z 7613   2.061   1.816   8.498 -0.5686  0.8834  1.3899
   82SAPS     N 7614   0.494   1.955  11.324 -0.0845  0.3833 -0.7998
   82SAPS   HN1 7615   0.442   1.899  11.254 -0.7812 -0.6599  0.4881
   82SAPS   HN2 7616   0.573   1.902  11.367 -0.6069  1.5346  1.7826
   82SAPS   HN3 7617   0.420   1.970  11.395  0.5190  0.4846 -0.1743
   82SAPS   C12 7618   0.541   2.094  11.277 -0.1011 -0.7553  0.4568
   82SAPS  H12A 7619   0.453   2.154  11.258  0.5597  0.6411  1.6302
   82SAPS   C13 7620   0.630   2.174  11.374 -0.1116  0.4339 -0.5216
   82SAPS  O13A 7621   0.678   2.118  11.474  0.6166  0.5755 -0.2070
   82SAPS  O13B 7622   0.680   2.281  11.334 -0.4697  1.2408 -0.6243
   82SAPS   C11 7623   0.611   2.080  11.136 -0.0771 -0.8568 -0.4036
   82SAPS  H11A 7624   0.628   2.180  11.091 -3.0150 -0.6064 -1.1703
   82SAPS  H11B 7625   0.542   2.030  11.065  0.0583 -1.3552 -0.1947
   82SAPS     P 7626   0.764   1.865  11.130 -0.0987 -0.0879 -0.2098
   82SAPS   O13 7627   0.908   1.849  11.111 -0.4376 -0.1935  0.0117
   82SAPS   O14 7628   0.706   1.800  11.254 -0.2340 -1.1674 -0.4299
   82SAPS   O12 7629   0.745   2.020  11.144 -0.0417  0.3175  0.2830
   82SAPS   O11 7630   0.676   1.834  11.004 -0.0914  0.6385  0.3113
   82SAPS    C1 7631   0.649   1.694  10.982  0.0667 -0.2107  0.2531
   82SAPS    HA 7632   0.743   1.636  10.981  0.5677  0.5655 -0.9429
   82SAPS    HB 7633   0.588   1.653  11.064  1.8336 -3.7399 -0.0359
   82SAPS    C2 7634   0.558   1.674  10.864 -0.6188 -1.1698 -0.1751
   82SAPS    HS 7635   0.533   1.566  10.848  1.9629 -1.7277 -1.0220
   82SAPS   O21 7636   0.623   1.717  10.745  0.9367  0.1671  0.5763
   82SAPS   C21 7637   0.714   1.633  10.694  0.4996  0.1945 -0.7011
   82SAPS   O22 7638   0.733   1.518  10.733  0.4260  0.4636 -0.3529
   82SAPS   C22 7639   0.788   1.694  10.575 -0.7003  0.1127 -0.0235
   82SAPS   H2R 7640   0.713   1.748  10.514 -2.0362 -1.7436 -0.1264
   82SAPS   H2S 7641   0.869   1.759  10.614  1.0521 -0.7411 -2.0387
   82SAPS    C3 7642   0.434   1.758  10.880  0.5285 -0.8868  0.1388
   82SAPS    HX 7643   0.461   1.858  10.921  0.5856  0.1274 -2.1878
   82SAPS    HY 7644   0.369   1.719  10.961 -0.0986 -0.3085 -0.0777
   82SAPS   O31 7645   0.362   1.762  10.766  0.4596  0.1233  0.4412
   82SAPS   C31 7646   0.379   1.855  10.678 -0.6093 -0.2263  0.1928
   82SAPS   O32 7647   0.442   1.955  10.692 -0.5830  0.2967  0.8309
   82SAPS   C32 7648   0.313   1.831  10.546  0.2002  0.4493 -0.0811
   82SAPS   H2X 7649   0.256   1.923  10.519  2.6829  2.1804  0.2034
   82SAPS   H2Y 7650   0.246   1.743  10.550 -1.8946  1.9311 -1.0958
   82SAPS   C23 7651   0.843   1.578  10.486  0.3157 -0.1570 -0.7340
   82SAPS   H3R 7652   0.770   1.497  10.464  1.5152 -1.1423 -1.1959
   82SAPS   H3S 7653   0.915   1.520  10.548 -0.1916  0.3811  0.3925
   82SAPS   C24 7654   0.912   1.622  10.356 -0.0713 -0.5863 -0.3961
   82SAPS   H4R 7655   0.931   1.525  10.306 -1.5335 -0.5637 -1.0459
   82SAPS   H4S 7656   1.006   1.673  10.385  0.7922 -2.4502  0.2298
   82SAPS   C25 7657   0.832   1.714  10.269  0.0923  0.2148 -0.4446
   82SAPS   H5R 7658   0.750   1.766  10.320  1.4330 -0.4954  2.6710
   82SAPS   C26 7659   0.844   1.711  10.136  0.6172 -0.5194  0.0794
   82SAPS   H6R 7660   0.777   1.780  10.083 -0.8746 -0.3230  2.1041
   82SAPS   C27 7661   0.952   1.640  10.058  1.1430  0.4590 -0.4427
   82SAPS   H7R 7662   0.918   1.535  10.043  3.6708 -0.7318  1.3716
   82SAPS   H7S 7663   1.042   1.615  10.118  0.6832 -0.4628 -0.1215
   82SAPS   C28 7664   0.990   1.704   9.923  0.5726  0.1847 -0.6256
   82SAPS   H8R 7665   1.056   1.790   9.938  1.1753 -0.3016 -0.4311
   82SAPS   C29 7666   0.967   1.660   9.804 -0.1097  0.9010 -0.2967
   82SAPS   H9R 7667   1.010   1.718   9.721 -1.2956  2.4250  0.0989
   82SAPS  C210 7668   0.903   1.531   9.766  0.9121  0.1111 -0.3330
   82SAPS  H10R 7669   0.811   1.547   9.706  1.1183  4.6921  0.2169
   82SAPS  H10S 7670   0.877   1.467   9.852 -3.3474  3.9014  1.6110
   82SAPS  C211 7671   1.003   1.456   9.675  0.4737 -0.2429  0.1352
   82SAPS  H11R 7672   1.094   1.429   9.732  0.6786 -0.4465 -0.2812
   82SAPS  C212 7673   0.991   1.441   9.543 -0.2234 -1.0034  0.2342
   82SAPS  H12R 7674   1.068   1.395   9.480 -0.2909 -2.5212  1.2228
   82SAPS  C213 7675   0.873   1.498   9.463 -1.2060 -0.4886 -0.7481
   82SAPS  H13R 7676   0.900   1.604   9.443 -0.4497 -0.4353  0.4751
   82SAPS  H13S 7677   0.780   1.497   9.524 -0.4069  0.5494  0.5471
   82SAPS  C214 7678   0.841   1.435   9.328  0.2178  0.2700 -0.3458
   82SAPS  H14R 7679   0.912   1.354   9.306  0.9848  0.7566  0.2642
   82SAPS  C215 7680   0.764   1.483   9.229  0.3510 -0.0284 -0.2544
   82SAPS  H15R 7681   0.746   1.418   9.142  0.3603 -0.7034  0.2415
   82SAPS  C216 7682   0.677   1.609   9.228  0.5844  0.3985  0.0942
   82SAPS  H16R 7683   0.648   1.647   9.328 -1.5232  1.1960 -0.7693
   82SAPS  H16S 7684   0.581   1.589   9.177  1.5150  0.9952 -2.0285
   82SAPS  C217 7685   0.758   1.726   9.159 -0.0968 -1.1272 -0.4546
   82SAPS  H17R 7686   0.864   1.722   9.193  0.0007 -1.1264 -0.7577
   82SAPS  H17S 7687   0.712   1.822   9.191 -1.2338 -1.2632 -1.6076
   82SAPS  C218 7688   0.748   1.725   9.006  0.4745  0.7592 -0.1107
   82SAPS  H18R 7689   0.643   1.707   8.976  0.0454  0.3275  1.5381
   82SAPS  H18S 7690   0.810   1.641   8.965  0.8646  0.2135  1.5026
   82SAPS  C219 7691   0.800   1.855   8.944 -0.6002  0.0810  0.1755
   82SAPS  H19R 7692   0.895   1.879   8.997 -0.3473 -0.7893  0.1395
   82SAPS  H19S 7693   0.729   1.934   8.975 -3.2806 -1.0910 -2.4675
   82SAPS  C220 7694   0.805   1.851   8.789 -0.0043  0.0197  0.2408
   82SAPS  H20R 7695   0.707   1.828   8.742 -2.0803  0.6629  3.9224
   82SAPS  H20S 7696   0.881   1.773   8.766 -1.4202 -0.9127 -1.5941
   82SAPS  H20T 7697   0.844   1.950   8.757 -1.1137  0.6493  0.7937
   82SAPS   C33 7698   0.406   1.805  10.429 -0.8101  0.3168 -0.2338
   82SAPS   H3X 7699   0.428   1.697  10.422  0.9346  0.6944 -1.1858
   82SAPS   H3Y 7700   0.507   1.851  10.436  0.7538 -2.8890  0.1169
   82SAPS   C34 7701   0.338   1.840  10.290 -0.7043  0.2860  0.2842
   82SAPS   H4X 7702   0.280   1.934  10.302  1.5713  1.5652  2.1298
   82SAPS   H4Y 7703   0.263   1.765  10.259  0.6162 -1.0610  0.2145
   82SAPS   C35 7704   0.442   1.862  10.177  0.2302  0.1850  0.3423
   82SAPS   H5X 7705   0.495   1.765  10.163 -1.5588 -0.7565 -0.1115
   82SAPS   H5Y 7706   0.518   1.934  10.214  1.1483 -1.5237  2.0099
   82SAPS   C36 7707   0.391   1.911  10.043 -0.2621  0.2302  0.1631
   82SAPS   H6X 7708   0.481   1.894   9.980 -0.5626 -1.9926  0.2444
   82SAPS   H6Y 7709   0.371   2.020  10.035  0.3905  0.4062  0.8605
   82SAPS   C37 7710   0.284   1.828   9.980 -0.3134  0.4924  0.5607
   82SAPS   H7X 7711   0.185   1.838  10.030  0.6065 -0.4487  2.6962
   82SAPS   H7Y 7712   0.313   1.723   9.999 -2.1689 -0.4733 -1.4419
   82SAPS   C38 7713   0.263   1.847   9.833 -0.5941  0.7700  0.5416
   82SAPS   H8X 7714   0.223   1.947   9.806 -1.1649  0.7484  1.2991
   82SAPS   H8Y 7715   0.193   1.770   9.795  1.7417 -2.1782  1.8415
   82SAPS   C39 7716   0.382   1.829   9.733 -0.2927  0.2477 -0.0557
   82SAPS   H9X 7717   0.436   1.745   9.781  0.0102 -0.0858 -0.9644
   82SAPS   H9Y 7718   0.445   1.920   9.741  2.2241 -1.5205  1.9019
   82SAPS  C310 7719   0.334   1.801   9.589 -0.2668  0.0572  0.3183
   82SAPS  H10X 7720   0.244   1.862   9.573  1.0407  1.8900 -0.3883
   82SAPS  H10Y 7721   0.301   1.695   9.589 -0.2264  0.0443  0.1891
   82SAPS  C311 7722   0.440   1.812   9.479 -0.5941 -0.0391  0.4827
   82SAPS  H11X 7723   0.527   1.752   9.512 -1.4886 -0.9272  1.2523
   82SAPS  H11Y 7724   0.476   1.918   9.473 -0.1953 -0.0815  1.8118
   82SAPS  C312 7725   0.395   1.759   9.344 -0.8483  0.2801 -0.4197
   82SAPS  H12X 7726   0.420   1.652   9.332  0.8608  0.5674  0.2717
   82SAPS  H12Y 7727   0.460   1.813   9.272  1.3650  1.0529  1.9911
   82SAPS  C313 7728   0.249   1.785   9.299  0.6714 -0.0375 -0.3642
   82SAPS  H13X 7729   0.227   1.888   9.334  0.4056 -0.8086  1.9073
   82SAPS  H13Y 7730   0.177   1.716   9.349  1.2479 -0.4406 -0.0837
   82SAPS  C314 7731   0.225   1.794   9.142  0.1320  0.5014 -0.2815
   82SAPS  H14X 7732   0.264   1.894   9.115 -0.4028  0.8915  0.3466
   82SAPS  H14Y 7733   0.116   1.790   9.120 -0.1061 -0.0499  0.9078
   82SAPS  C315 7734   0.297   1.680   9.063 -0.2126 -0.0756  1.0549
   82SAPS  H15X 7735   0.257   1.585   9.103  1.9507 -2.5606 -2.1657
   82SAPS  H15Y 7736   0.405   1.683   9.090 -0.2118  0.6701  0.9904
   82SAPS  C316 7737   0.288   1.696   8.898 -0.7804 -0.3944 -0.1328
   82SAPS  H16X 7738   0.341   1.788   8.865 -1.4612  0.0434 -0.0161
   82SAPS  H16Y 7739   0.182   1.720   8.875 -0.5665  0.7727  0.0206
   82SAPS  C317 7740   0.357   1.583   8.816 -0.2405 -0.2745  0.0760
   82SAPS  H17X 7741   0.320   1.482   8.843 -1.4918  0.4095  1.0392
   82SAPS  H17Y 7742   0.466   1.584   8.837 -0.4318  0.4700  1.1264
   82SAPS  C318 7743   0.330   1.611   8.671 -0.5606 -0.0064  0.0949
   82SAPS  H18X 7744   0.358   1.526   8.606 -2.7134 -1.1426  0.5599
   82SAPS  H18Y 7745   0.389   1.699   8.638  0.3581 -0.2138  1.1196
   82SAPS  H18Z 7746   0.223   1.619   8.642 -0.6410 -3.5555 -1.0178
   83SAPS     N 7747   3.425   3.461  11.236 -0.1286 -0.0948 -0.6274
   83SAPS   HN1 7748   3.509   3.504  11.192  0.9250  1.4272  2.5094
   83SAPS   HN2 7749   3.449   3.360  11.229  1.5330  0.2965 -1.0397
   83SAPS   HN3 7750   3.337   3.487  11.188 -0.9950 -1.4954  0.1485
   83SAPS   C12 7751   3.408   3.511  11.371 -0.4523  0.1816  0.0648
   83SAPS  H12A 7752   3.302   3.499  11.390 -0.9300  2.2045 -1.0917
   83SAPS   C13 7753   3.498   3.433  11.473  0.4884 -0.0436  0.6346
   83SAPS  O13A 7754   3.604   3.368  11.434 -0.3081  0.4624  0.0406
   83SAPS  O13B 7755   3.467   3.446  11.590 -0.1108  0.0995  0.1467
   83SAPS   C11 7756   3.452   3.656  11.368 -0.5279 -0.0866  0.2043
   83SAPS  H11A 7757   3.560   3.657  11.345 -0.6696 -0.6513 -0.5258
   83SAPS  H11B 7758   3.433   3.695  11.471 -0.7428 -1.0551  0.5384
   83SAPS     P 7759   3.419   3.885  11.244 -0.5421 -0.0023 -0.3419
   83SAPS   O13 7760   3.366   3.957  11.366  0.0440 -0.5804  0.5746
   83SAPS   O14 7761   3.566   3.882  11.222 -0.4509  0.0623 -0.3375
   83SAPS   O12 7762   3.380   3.737  11.273  0.0103  0.0639 -0.1948
   83SAPS   O11 7763   3.347   3.933  11.114 -0.1781  0.3467  0.2955
   83SAPS    C1 7764   3.215   3.910  11.080 -0.0740 -0.0459 -0.0163
   83SAPS    HA 7765   3.151   3.887  11.169 -0.6199 -0.2601 -0.4581
   83SAPS    HB 7766   3.161   3.992  11.028 -0.4879  0.2858  0.9069
   83SAPS    C2 7767   3.195   3.787  10.976 -0.8600 -0.2623 -0.9952
   83SAPS    HS 7768   3.244   3.693  11.008  0.8297  0.5888 -1.0152
   83SAPS   O21 7769   3.238   3.823  10.845 -0.1581 -0.1629 -0.0944
   83SAPS   C21 7770   3.335   3.749  10.797  0.4647  0.3981  0.7190
   83SAPS   O22 7771   3.387   3.653  10.844 -0.3595 -0.6241  0.2106
   83SAPS   C22 7772   3.377   3.814  10.665  0.4879  0.0764  0.3334
   83SAPS   H2R 7773   3.284   3.840  10.610  2.8668  3.2170 -2.6043
   83SAPS   H2S 7774   3.426   3.912  10.683  0.0697  0.5926 -1.2052
   83SAPS    C3 7775   3.047   3.749  10.972  0.0051 -0.1639  0.1912
   83SAPS    HX 7776   2.974   3.832  10.962  0.4272  0.4376  1.7426
   83SAPS    HY 7777   3.025   3.703  11.071  0.0235 -0.5625  0.0128
   83SAPS   O31 7778   3.030   3.642  10.876  0.0964  0.2737 -0.0071
   83SAPS   C31 7779   2.963   3.680  10.763 -0.2914  0.2350  0.1933
   83SAPS   O32 7780   2.920   3.791  10.737  0.1168 -0.0139  0.5319
   83SAPS   C32 7781   2.961   3.566  10.664  0.3983 -0.0408 -0.3501
   83SAPS   H2X 7782   2.907   3.481  10.711  0.9811 -1.1502 -1.6251
   83SAPS   H2Y 7783   3.069   3.550  10.644  1.0610  2.2078  1.0790
   83SAPS   C23 7784   3.474   3.729  10.577  0.2500  1.4454  0.1124
   83SAPS   H3R 7785   3.420   3.639  10.542  1.1764  0.9263 -0.0206
   83SAPS   H3S 7786   3.548   3.688  10.649 -3.2113 -1.0788  2.5787
   83SAPS   C24 7787   3.546   3.798  10.461 -1.1228  0.2093 -0.4472
   83SAPS   H4R 7788   3.637   3.740  10.438 -0.2286  0.7075  1.5773
   83SAPS   H4S 7789   3.604   3.875  10.517 -2.3395  0.5478  0.3997
   83SAPS   C25 7790   3.473   3.864  10.340  0.6181  0.3302  0.9468
   83SAPS   H5R 7791   3.368   3.894  10.358  0.5039 -0.0528  0.9327
   83SAPS   C26 7792   3.524   3.889  10.222  0.2019 -0.7555  0.0757
   83SAPS   H6R 7793   3.467   3.958  10.157  2.9346  1.5095 -0.1120
   83SAPS   C27 7794   3.662   3.862  10.181 -0.4390 -0.4790 -0.4326
   83SAPS   H7R 7795   3.667   3.837  10.073 -0.5611 -0.2973 -0.4804
   83SAPS   H7S 7796   3.708   3.775  10.232  2.5870  0.7715 -0.8226
   83SAPS   C28 7797   3.759   3.976  10.208  0.6270  0.0375  0.8802
   83SAPS   H8R 7798   3.793   3.975  10.313  0.7623 -2.5062  0.8873
   83SAPS   C29 7799   3.805   4.053  10.111 -0.5146 -0.2883 -0.0671
   83SAPS   H9R 7800   3.865   4.141  10.136 -1.5493  0.5660 -0.4845
   83SAPS  C210 7801   3.782   4.043   9.958  0.1702 -0.1282  0.7386
   83SAPS  H10R 7802   3.764   4.145   9.919  2.9562  0.8617  1.8252
   83SAPS  H10S 7803   3.688   3.988   9.934  1.3767 -2.0088  0.0810
   83SAPS  C211 7804   3.894   3.985   9.873  0.0659 -0.3561 -0.0366
   83SAPS  H11R 7805   3.993   4.021   9.905  0.4350  0.3664 -1.8564
   83SAPS  C212 7806   3.899   3.906   9.769  0.1689 -0.4911 -0.4725
   83SAPS  H12R 7807   3.996   3.866   9.735  0.4937 -1.2311  1.2541
   83SAPS  C213 7808   3.784   3.835   9.698  0.2087  0.4791  0.0055
   83SAPS  H13R 7809   3.688   3.888   9.718  0.4095  1.1888 -0.8754
   83SAPS  H13S 7810   3.775   3.728   9.728 -3.2628  0.7857  0.5560
   83SAPS  C214 7811   3.802   3.845   9.552  0.7096 -0.2388  0.1480
   83SAPS  H14R 7812   3.904   3.839   9.511  0.0628  0.3521 -1.6411
   83SAPS  C215 7813   3.719   3.856   9.450 -0.8113  0.1283  0.0649
   83SAPS  H15R 7814   3.761   3.863   9.349 -0.8941  0.7011  0.0703
   83SAPS  C216 7815   3.568   3.863   9.461 -0.4376 -0.6242 -0.4512
   83SAPS  H16R 7816   3.522   3.942   9.398 -0.2167 -0.5431 -0.5109
   83SAPS  H16S 7817   3.530   3.895   9.561 -1.6920 -0.7291 -0.8780
   83SAPS  C217 7818   3.504   3.729   9.426 -0.0420  0.0965  1.0583
   83SAPS  H17R 7819   3.394   3.718   9.440 -0.1365  0.8146  0.8996
   83SAPS  H17S 7820   3.551   3.656   9.496  1.1966  2.0481  2.3405
   83SAPS  C218 7821   3.532   3.687   9.281  0.2654 -0.0464  0.3776
   83SAPS  H18R 7822   3.641   3.674   9.261 -0.0242 -0.3818 -1.0670
   83SAPS  H18S 7823   3.495   3.764   9.209  0.4035 -0.8398 -0.5718
   83SAPS  C219 7824   3.460   3.561   9.231 -0.0720 -0.0887  0.5467
   83SAPS  H19R 7825   3.350   3.574   9.245 -0.8363 -1.9759 -2.7093
   83SAPS  H19S 7826   3.500   3.469   9.279 -0.4558 -0.8670 -0.5872
   83SAPS  C220 7827   3.489   3.544   9.078 -0.1873  0.3823  0.1207
   83SAPS  H20R 7828   3.597   3.535   9.053 -0.6445 -0.4820 -1.7487
   83SAPS  H20S 7829   3.460   3.632   9.017 -0.1658  1.1720  1.2258
   83SAPS  H20T 7830   3.434   3.457   9.036  2.9612 -1.4138 -0.5653
   83SAPS   C33 7831   2.890   3.607  10.539 -0.2003  0.4791  0.3269
   83SAPS   H3X 7832   2.795   3.663  10.554  0.1903  1.0150  0.8600
   83SAPS   H3Y 7833   2.862   3.514  10.486 -1.6758  1.4171 -0.6114
   83SAPS   C34 7834   2.987   3.695  10.446 -0.3352  0.7310  0.1907
   83SAPS   H4X 7835   3.064   3.743  10.510  0.9833 -1.4789  0.3585
   83SAPS   H4Y 7836   2.935   3.764  10.375 -1.5870  0.2825  0.6496
   83SAPS   C35 7837   3.048   3.599  10.349 -0.2351  0.3707  0.5747
   83SAPS   H5X 7838   2.966   3.570  10.279  1.2395  0.2877 -1.1864
   83SAPS   H5Y 7839   3.080   3.503  10.394 -0.7408 -0.9929 -1.7733
   83SAPS   C36 7840   3.163   3.652  10.262 -0.6748  0.6796  0.6486
   83SAPS   H6X 7841   3.223   3.713  10.332 -0.4806 -0.7736  1.8075
   83SAPS   H6Y 7842   3.114   3.722  10.191  0.3267  0.3899 -0.3507
   83SAPS   C37 7843   3.246   3.554  10.174 -0.3822  0.1783 -0.7932
   83SAPS   H7X 7844   3.328   3.606  10.120  1.6029  1.0265  2.7742
   83SAPS   H7Y 7845   3.179   3.511  10.096  0.8337 -0.5339 -1.4671
   83SAPS   C38 7846   3.315   3.442  10.253  0.3454 -0.1373  0.1378
   83SAPS   H8X 7847   3.235   3.377  10.294  0.9881 -0.8272  0.3288
   83SAPS   H8Y 7848   3.373   3.480  10.339 -0.0559 -0.6183  0.6309
   83SAPS   C39 7849   3.417   3.365  10.164  0.8853 -0.5332 -0.3629
   83SAPS   H9X 7850   3.511   3.424  10.168  1.0562 -0.8256  0.0228
   83SAPS   H9Y 7851   3.377   3.357  10.061 -1.0978 -1.3141  0.4250
   83SAPS  C310 7852   3.446   3.225  10.221 -0.1744  0.0201 -0.8660
   83SAPS  H10X 7853   3.354   3.164  10.235  0.3442 -0.5941 -0.0398
   83SAPS  H10Y 7854   3.490   3.220  10.322  3.1323 -1.5671 -2.2458
   83SAPS  C311 7855   3.538   3.146  10.131 -0.0600 -0.0458 -0.4456
   83SAPS  H11X 7856   3.577   3.048  10.167  0.6270  0.4200  0.0971
   83SAPS  H11Y 7857   3.630   3.205  10.112 -0.8025  0.7519 -1.6801
   83SAPS  C312 7858   3.480   3.123   9.985 -0.2985 -0.2342 -0.4475
   83SAPS  H12X 7859   3.475   3.219   9.930 -2.1050 -0.9234 -1.5678
   83SAPS  H12Y 7860   3.376   3.084   9.993 -0.5001  0.4053  0.1125
   83SAPS  C313 7861   3.569   3.025   9.910 -0.0654  0.0887 -0.0781
   83SAPS  H13X 7862   3.527   2.925   9.937 -1.0206  0.2954 -0.7498
   83SAPS  H13Y 7863   3.672   3.016   9.951 -0.7941  0.3628  1.9336
   83SAPS  C314 7864   3.582   3.048   9.754  0.5871  0.1298  0.7834
   83SAPS  H14X 7865   3.582   3.158   9.742 -2.9818  0.1551 -0.0917
   83SAPS  H14Y 7866   3.489   3.006   9.711  0.4119 -1.0724  2.2393
   83SAPS  C315 7867   3.715   2.989   9.695 -0.2078  0.3179  0.0912
   83SAPS  H15X 7868   3.710   2.978   9.585  2.0282 -0.6654  0.0396
   83SAPS  H15Y 7869   3.725   2.888   9.740  0.6326  1.4788  2.6905
   83SAPS  C316 7870   3.844   3.068   9.736  0.2260  0.1791 -0.3905
   83SAPS  H16X 7871   3.937   3.014   9.707 -0.3872 -1.0784 -0.0656
   83SAPS  H16Y 7872   3.839   3.069   9.847  0.0497  1.1839 -0.3928
   83SAPS  C317 7873   3.842   3.211   9.692 -0.2095  0.2482 -0.2036
   83SAPS  H17X 7874   3.933   3.258   9.735  0.2348 -0.6083 -0.1911
   83SAPS  H17Y 7875   3.762   3.277   9.734  0.2599  0.3814  0.4947
   83SAPS  C318 7876   3.857   3.219   9.538 -0.7537  0.1932 -0.1650
   83SAPS  H18X 7877   3.767   3.165   9.499 -0.9767 -1.2030  2.0913
   83SAPS  H18Y 7878   3.946   3.169   9.494  0.5069  0.3806  2.0179
   83SAPS  H18Z 7879   3.859   3.327   9.512  2.5201  0.3011  0.1174
   84SAPS     N 7880   4.673   2.244  11.634 -0.1828 -0.0349  0.6358
   84SAPS   HN1 7881   4.728   2.242  11.722 -0.7104 -1.4906  0.9773
   84SAPS   HN2 7882   4.728   2.290  11.559  0.9753  1.2965  2.2475
   84SAPS   HN3 7883   4.574   2.275  11.639  0.2266  1.4690 -0.0634
   84SAPS   C12 7884   4.666   2.101  11.589 -0.1057 -0.2530 -0.0492
   84SAPS  H12A 7885   4.723   2.090  11.498  0.4294  0.1299  0.2287
   84SAPS   C13 7886   4.741   2.000  11.681 -0.2179  0.0402  0.1858
   84SAPS  O13A 7887   4.806   2.039  11.780 -0.0897 -0.2409  0.3123
   84SAPS  O13B 7888   4.749   1.882  11.636 -0.4152 -0.0009  0.2704
   84SAPS   C11 7889   4.516   2.060  11.569 -0.7684 -0.0562 -0.0519
   84SAPS  H11A 7890   4.466   2.059  11.668  0.2438 -1.3347  0.4868
   84SAPS  H11B 7891   4.501   1.960  11.522  1.6191  0.1171 -1.3649
   84SAPS     P 7892   4.359   2.130  11.371  0.1926  0.0071 -0.0643
   84SAPS   O13 7893   4.227   2.079  11.422  0.0160  0.0559 -0.0492
   84SAPS   O14 7894   4.359   2.247  11.285  0.0725  0.1944  0.4304
   84SAPS   O12 7895   4.452   2.155  11.487 -0.1066 -0.2244  0.6162
   84SAPS   O11 7896   4.421   2.012  11.290  0.1782  0.1636  0.6629
   84SAPS    C1 7897   4.549   2.013  11.218  0.0174  0.5675 -0.9728
   84SAPS    HA 7898   4.603   2.110  11.232 -1.0681  0.9763  0.6281
   84SAPS    HB 7899   4.620   1.946  11.272  0.5359  2.7184  1.2327
   84SAPS    C2 7900   4.534   1.989  11.066 -0.2746 -0.3242  0.3736
   84SAPS    HS 7901   4.639   1.999  11.030 -0.1403 -0.7923  0.6324
   84SAPS   O21 7902   4.428   2.074  11.009 -0.2302  0.2539  0.2866
   84SAPS   C21 7903   4.457   2.208  11.008 -0.1846 -0.0733 -0.0658
   84SAPS   O22 7904   4.559   2.261  11.053  0.4217 -0.1013 -0.6917
   84SAPS   C22 7905   4.344   2.276  10.927 -0.0982 -0.5630 -0.5399
   84SAPS   H2R 7906   4.247   2.284  10.982 -1.9987 -3.1164 -3.1935
   84SAPS   H2S 7907   4.375   2.380  10.903 -0.7380  0.1789  1.5882
   84SAPS    C3 7908   4.486   1.840  11.041  0.5884 -1.9052 -0.6126
   84SAPS    HX 7909   4.399   1.846  11.111  0.8479 -0.1163 -0.3951
   84SAPS    HY 7910   4.559   1.767  11.081  1.5170 -0.4357  0.5015
   84SAPS   O31 7911   4.433   1.822  10.909  0.0436 -0.3144 -0.2053
   84SAPS   C31 7912   4.520   1.810  10.808 -0.5331  0.0994 -1.2272
   84SAPS   O32 7913   4.642   1.816  10.819  0.0236  0.1972 -0.1127
   84SAPS   C32 7914   4.441   1.815  10.675  0.3329 -0.0155 -0.0997
   84SAPS   H2X 7915   4.355   1.885  10.686  1.3421  1.1691  0.5344
   84SAPS   H2Y 7916   4.404   1.711  10.666  0.2032 -0.0886  1.0811
   84SAPS   C23 7917   4.326   2.216  10.786  0.3905  0.2782 -0.8432
   84SAPS   H3R 7918   4.237   2.262  10.738  1.3827  2.7834 -0.4272
   84SAPS   H3S 7919   4.302   2.108  10.799 -1.4881  0.8412  0.8964
   84SAPS   C24 7920   4.439   2.234  10.682  0.6325  0.2482  0.1277
   84SAPS   H4R 7921   4.413   2.182  10.587  0.9429  1.7479 -0.8028
   84SAPS   H4S 7922   4.535   2.198  10.724  1.9793  2.2180 -1.0705
   84SAPS   C25 7923   4.453   2.377  10.647  0.4584 -0.2581 -0.2846
   84SAPS   H5R 7924   4.526   2.439  10.702 -0.6157  0.4722  0.3456
   84SAPS   C26 7925   4.366   2.443  10.563 -0.4624 -0.0597  0.5087
   84SAPS   H6R 7926   4.378   2.552  10.557  1.0110 -0.1933  0.6733
   84SAPS   C27 7927   4.256   2.385  10.483  0.0331  0.4788 -0.1557
   84SAPS   H7R 7928   4.171   2.456  10.471 -1.9872 -1.8842 -0.7268
   84SAPS   H7S 7929   4.218   2.304  10.549  0.2321  0.1305 -0.4662
   84SAPS   C28 7930   4.300   2.333  10.345  0.4181 -0.1965  0.1832
   84SAPS   H8R 7931   4.394   2.275  10.354  2.0684  1.9546 -1.8497
   84SAPS   C29 7932   4.225   2.336  10.233 -0.3925 -0.3730 -0.7760
   84SAPS   H9R 7933   4.264   2.282  10.145 -0.6760 -2.4671  0.3188
   84SAPS  C210 7934   4.101   2.407  10.218  0.1262  0.6897  0.2475
   84SAPS  H10R 7935   4.125   2.510  10.182 -0.6924  0.3338 -1.4383
   84SAPS  H10S 7936   4.031   2.417  10.304  0.0015 -0.9586  0.3630
   84SAPS  C211 7937   4.019   2.335  10.113  0.1163 -0.0717  0.6074
   84SAPS  H11R 7938   3.970   2.239  10.131 -3.1659  0.5660 -3.3534
   84SAPS  C212 7939   3.994   2.383   9.992  0.0507  1.3606  0.6837
   84SAPS  H12R 7940   3.926   2.322   9.930  0.0204  0.0607  1.9514
   84SAPS  C213 7941   4.037   2.511   9.919  0.7154  0.4022  0.2665
   84SAPS  H13R 7942   4.084   2.586   9.986  0.2913  2.0989 -1.2395
   84SAPS  H13S 7943   3.943   2.558   9.883  0.1978 -0.4709  0.4294
   84SAPS  C214 7944   4.129   2.465   9.809 -0.1250 -0.2523 -0.1154
   84SAPS  H14R 7945   4.233   2.462   9.845 -1.0075 -1.8349  2.6189
   84SAPS  C215 7946   4.095   2.428   9.687 -0.9179  1.1412  0.1840
   84SAPS  H15R 7947   4.177   2.391   9.624 -1.5841 -0.6053  0.2873
   84SAPS  C216 7948   3.954   2.436   9.625 -0.4411 -0.5270 -0.5966
   84SAPS  H16R 7949   3.877   2.476   9.695 -0.5886 -3.1045  0.8654
   84SAPS  H16S 7950   3.909   2.336   9.607  0.9784 -1.5683  1.2922
   84SAPS  C217 7951   3.950   2.509   9.494  0.4031 -0.6268  0.1200
   84SAPS  H17R 7952   3.847   2.495   9.457  0.4891  0.3244 -0.5482
   84SAPS  H17S 7953   4.016   2.475   9.411 -0.4199 -0.0117 -0.8157
   84SAPS  C218 7954   3.969   2.660   9.511 -0.3142 -0.0313  0.2208
   84SAPS  H18R 7955   4.072   2.671   9.550 -0.8539 -2.4942  2.5964
   84SAPS  H18S 7956   3.897   2.704   9.583 -1.1280 -1.1222  0.1000
   84SAPS  C219 7957   3.959   2.735   9.378 -0.8706 -0.2055 -0.7176
   84SAPS  H19R 7958   3.889   2.682   9.309 -2.3509  0.1207  0.4646
   84SAPS  H19S 7959   4.057   2.717   9.329 -0.0276 -2.1727  1.5351
   84SAPS  C220 7960   3.916   2.880   9.392 -0.6691  0.0195  0.0076
   84SAPS  H20R 7961   3.918   2.943   9.300  1.8882  1.5697  1.0130
   84SAPS  H20S 7962   3.969   2.945   9.465 -4.2235  2.5842  0.5586
   84SAPS  H20T 7963   3.816   2.883   9.439 -1.3947  0.8367 -1.5295
   84SAPS   C33 7964   4.530   1.861  10.553 -0.0422  0.0397  0.0903
   84SAPS   H3X 7965   4.625   1.806  10.537 -1.3372 -1.4773 -3.2230
   84SAPS   H3Y 7966   4.554   1.969  10.569  0.6971 -0.2004  0.6059
   84SAPS   C34 7967   4.445   1.859  10.429 -0.0648  0.5580  0.2269
   84SAPS   H4X 7968   4.347   1.907  10.449 -0.0993  1.0788 -1.1085
   84SAPS   H4Y 7969   4.426   1.755  10.393 -0.2986  0.9837 -0.9216
   84SAPS   C35 7970   4.511   1.941  10.319  0.1140  0.1507  0.2697
   84SAPS   H5X 7971   4.610   1.892  10.307 -0.3208 -1.0583  1.4181
   84SAPS   H5Y 7972   4.530   2.042  10.361  2.4207 -1.1543  2.6614
   84SAPS   C36 7973   4.415   1.951  10.194 -0.1934 -0.0386 -0.0855
   84SAPS   H6X 7974   4.332   2.023  10.210 -0.6576 -0.6278  0.1779
   84SAPS   H6Y 7975   4.372   1.851  10.172 -0.2339 -0.2215  0.7748
   84SAPS   C37 7976   4.495   2.003  10.072  0.4147 -0.1095 -0.9065
   84SAPS   H7X 7977   4.578   1.936  10.040  0.8547  0.1009 -0.2355
   84SAPS   H7Y 7978   4.538   2.100  10.105 -0.8217 -0.3377  1.6109
   84SAPS   C38 7979   4.398   2.034   9.959 -0.9556 -0.2445 -0.9450
   84SAPS   H8X 7980   4.325   2.105  10.003  0.8615  1.8317 -1.0996
   84SAPS   H8Y 7981   4.342   1.940   9.941 -0.0113 -1.1500  0.5202
   84SAPS   C39 7982   4.465   2.091   9.830  0.0477 -0.4697  0.0708
   84SAPS   H9X 7983   4.536   2.013   9.794  2.8657  1.7516  0.4413
   84SAPS   H9Y 7984   4.533   2.176   9.852 -0.0350 -0.3201 -0.2460
   84SAPS  C310 7985   4.358   2.133   9.725  0.3663  0.5453 -0.3682
   84SAPS  H10X 7986   4.336   2.240   9.748 -1.2369  0.1615  0.0369
   84SAPS  H10Y 7987   4.269   2.067   9.714  2.2727 -2.1422 -0.5653
   84SAPS  C311 7988   4.418   2.132   9.583  0.0206  0.2082 -0.5217
   84SAPS  H11X 7989   4.453   2.028   9.567  1.0819  0.0682  2.0774
   84SAPS  H11Y 7990   4.512   2.191   9.575  1.7576 -2.5630 -2.1786
   84SAPS  C312 7991   4.318   2.183   9.481 -0.1376  0.0738  0.1661
   84SAPS  H12X 7992   4.310   2.287   9.519  2.3488  0.9148 -1.3307
   84SAPS  H12Y 7993   4.220   2.135   9.500  1.1192 -3.2821 -1.1319
   84SAPS  C313 7994   4.363   2.193   9.337  0.6113 -0.2912  0.1296
   84SAPS  H13X 7995   4.381   2.095   9.287 -0.1651  0.2077 -1.1532
   84SAPS  H13Y 7996   4.461   2.246   9.342 -0.2724  1.3448  1.1190
   84SAPS  C314 7997   4.267   2.280   9.252 -0.0811  0.5476  0.4903
   84SAPS  H14X 7998   4.234   2.378   9.293 -2.7226 -0.3598  0.6864
   84SAPS  H14Y 7999   4.183   2.208   9.254 -0.6739  1.2084  2.5099
   84SAPS  C315 8000   4.318   2.301   9.106  0.1380 -0.2513 -0.2717
   84SAPS  H15X 8001   4.320   2.198   9.063  0.3528 -0.2866 -0.1773
   84SAPS  H15Y 8002   4.423   2.336   9.097  0.1432  0.1982  1.3886
   84SAPS  C316 8003   4.223   2.400   9.032 -0.3962  0.2636  0.5454
   84SAPS  H16X 8004   4.267   2.406   8.931  0.2060 -0.3316  0.7631
   84SAPS  H16Y 8005   4.244   2.505   9.061  1.1473  1.0407 -2.9677
   84SAPS  C317 8006   4.075   2.358   9.021  1.0412 -0.3592  0.4699
   84SAPS  H17X 8007   4.027   2.358   9.122  0.9485  0.6687  0.4384
   84SAPS  H17Y 8008   4.075   2.258   8.973 -0.9860  0.2542 -0.9169
   84SAPS  C318 8009   3.997   2.444   8.921  0.2316 -0.8196 -0.4860
   84SAPS  H18X 8010   4.035   2.441   8.817  0.6628  2.2982 -0.5272
   84SAPS  H18Y 8011   4.023   2.548   8.949 -3.1494  0.1233 -0.3841
   84SAPS  H18Z 8012   3.886   2.436   8.916  0.0536  1.0839 -5.7797
   85SAPS     N 8013   1.862   4.407  11.377  0.5355 -0.7802 -0.6330
   85SAPS   HN1 8014   1.894   4.411  11.476  2.9168 -0.5395 -1.3535
   85SAPS   HN2 8015   1.828   4.501  11.348 -0.1942 -0.3556  1.4215
   85SAPS   HN3 8016   1.771   4.360  11.394  1.5831 -3.3545 -1.6671
   85SAPS   C12 8017   1.950   4.345  11.279 -0.0480  0.3351  0.0651
   85SAPS  H12A 8018   1.999   4.425  11.224  0.0253  0.0981 -0.2204
   85SAPS   C13 8019   2.071   4.267  11.337 -0.3361  0.4386  0.6979
   85SAPS  O13A 8020   2.082   4.246  11.458  0.4521  0.8323  0.3714
   85SAPS  O13B 8021   2.164   4.225  11.255 -0.1950 -0.7274  0.3317
   85SAPS   C11 8022   1.866   4.262  11.183 -0.1452  0.8237 -0.2903
   85SAPS  H11A 8023   1.850   4.159  11.223 -0.5864  1.1054  0.2576
   85SAPS  H11B 8024   1.920   4.238  11.089 -0.9526 -0.2873 -0.4867
   85SAPS     P 8025   1.652   4.293  11.033  0.1393  0.4015  0.5387
   85SAPS   O13 8026   1.616   4.152  11.031  0.2936  0.1647  0.1672
   85SAPS   O14 8027   1.537   4.389  11.034 -0.1148  0.1498 -0.3748
   85SAPS   O12 8028   1.737   4.322  11.163  0.2099 -0.4346 -0.4579
   85SAPS   O11 8029   1.760   4.326  10.929 -0.3682 -0.0167  0.1080
   85SAPS    C1 8030   1.845   4.449  10.942  0.3130  0.7847  0.1181
   85SAPS    HA 8031   1.834   4.501  11.040  1.9601  0.9760  0.2270
   85SAPS    HB 8032   1.952   4.418  10.941  0.4769  1.3287  0.2911
   85SAPS    C2 8033   1.833   4.543  10.825 -0.7634 -0.4359  0.0285
   85SAPS    HS 8034   1.734   4.591  10.837  0.3319  1.7569  0.9554
   85SAPS   O21 8035   1.840   4.475  10.702  0.7774 -0.0244 -0.8581
   85SAPS   C21 8036   1.784   4.540  10.600  0.3349 -0.2269 -0.4923
   85SAPS   O22 8037   1.728   4.650  10.611  0.0868 -0.1757  0.4797
   85SAPS   C22 8038   1.803   4.461  10.465 -0.2553  0.5483  0.1130
   85SAPS   H2R 8039   1.911   4.433  10.463 -0.3891  0.0653 -1.3691
   85SAPS   H2S 8040   1.739   4.370  10.472  1.2743 -0.5206  0.7192
   85SAPS    C3 8041   1.934   4.658  10.818 -0.1829 -0.3369 -0.2828
   85SAPS    HX 8042   1.929   4.717  10.912 -0.9934 -1.6596  0.5347
   85SAPS    HY 8043   1.896   4.733  10.745 -3.2834 -0.8700  0.6283
   85SAPS   O31 8044   2.065   4.606  10.788 -0.6830  0.2184 -0.2066
   85SAPS   C31 8045   2.151   4.595  10.896  0.6780  0.5351 -0.2806
   85SAPS   O32 8046   2.122   4.625  11.011 -0.8719 -0.4303 -0.0342
   85SAPS   C32 8047   2.288   4.565  10.841  0.4278 -0.4029 -1.1832
   85SAPS   H2X 8048   2.280   4.492  10.759 -0.9238  1.0032 -2.3800
   85SAPS   H2Y 8049   2.339   4.539  10.936 -0.8397  3.1469  0.6917
   85SAPS   C23 8050   1.773   4.559  10.351  0.0645 -0.5638 -0.0618
   85SAPS   H3R 8051   1.845   4.643  10.359  1.2066 -1.2069 -2.5733
   85SAPS   H3S 8052   1.665   4.585  10.353  0.5608  1.5935  1.6848
   85SAPS   C24 8053   1.810   4.497  10.211 -0.0956 -0.0819 -0.5777
   85SAPS   H4R 8054   1.767   4.395  10.205 -1.3926  0.2916  1.4352
   85SAPS   H4S 8055   1.921   4.500  10.205  0.1214 -3.3236 -0.0887
   85SAPS   C25 8056   1.756   4.571  10.091  0.5389 -0.4389 -0.1042
   85SAPS   H5R 8057   1.709   4.670  10.099 -0.0183 -0.6018 -1.0765
   85SAPS   C26 8058   1.752   4.522   9.970 -0.1078  0.1229  0.2854
   85SAPS   H6R 8059   1.719   4.596   9.897 -0.1591  3.3840  3.3612
   85SAPS   C27 8060   1.808   4.386   9.924 -0.8382 -0.1293  0.4802
   85SAPS   H7R 8061   1.746   4.295   9.938  0.0926 -0.8767 -0.1090
   85SAPS   H7S 8062   1.884   4.352   9.997 -0.0388 -0.9728 -0.7136
   85SAPS   C28 8063   1.870   4.390   9.784  0.1889  0.3804 -0.7992
   85SAPS   H8R 8064   1.977   4.416   9.783  0.6969 -1.5185 -1.4827
   85SAPS   C29 8065   1.813   4.342   9.672 -0.1744 -0.2414  0.5780
   85SAPS   H9R 8066   1.861   4.350   9.573 -1.0950 -1.2921  0.0274
   85SAPS  C210 8067   1.675   4.283   9.657 -0.6488 -0.3071 -1.0052
   85SAPS  H10R 8068   1.618   4.354   9.594  1.8444  1.4768 -1.4338
   85SAPS  H10S 8069   1.625   4.270   9.755  2.4744 -0.2306  0.7324
   85SAPS  C211 8070   1.687   4.151   9.588 -0.6816 -0.3889  0.4578
   85SAPS  H11R 8071   1.667   4.068   9.657 -0.3672 -0.3379  0.6115
   85SAPS  C212 8072   1.718   4.134   9.452 -0.5512 -0.5330 -0.4450
   85SAPS  H12R 8073   1.725   4.029   9.421 -0.5028 -1.1010  1.3542
   85SAPS  C213 8074   1.740   4.253   9.359  0.9467 -0.0147  0.1821
   85SAPS  H13R 8075   1.848   4.260   9.333  0.3055  1.5199 -2.5646
   85SAPS  H13S 8076   1.710   4.346   9.411  2.6716  1.6323 -1.5845
   85SAPS  C214 8077   1.651   4.259   9.234  0.0456  0.1039  0.1730
   85SAPS  H14R 8078   1.565   4.191   9.230 -0.9320  1.0816  2.7081
   85SAPS  C215 8079   1.673   4.335   9.127 -0.1467  0.3192 -0.1714
   85SAPS  H15R 8080   1.601   4.329   9.044  0.7279 -0.9932 -0.8555
   85SAPS  C216 8081   1.791   4.430   9.112  0.2961 -0.4886  0.6214
   85SAPS  H16R 8082   1.880   4.381   9.158  0.7008 -0.2495  0.1052
   85SAPS  H16S 8083   1.770   4.528   9.160  1.0768 -0.6026  1.2183
   85SAPS  C217 8084   1.838   4.444   8.967 -0.1201  0.0928  0.7407
   85SAPS  H17R 8085   1.921   4.517   8.966  0.1524 -0.1562  2.2535
   85SAPS  H17S 8086   1.757   4.490   8.906  0.0715 -0.9050 -0.2762
   85SAPS  C218 8087   1.876   4.305   8.903 -0.3399  0.2511  0.2632
   85SAPS  H18R 8088   1.776   4.255   8.900 -0.4451  0.4938 -0.4299
   85SAPS  H18S 8089   1.942   4.260   8.980 -2.5841 -0.1415  2.0759
   85SAPS  C219 8090   1.955   4.310   8.773 -0.2640  0.4836  0.1180
   85SAPS  H19R 8091   1.938   4.210   8.729  1.8344  0.4423 -0.7153
   85SAPS  H19S 8092   2.063   4.332   8.784 -0.8692  3.0004  2.0268
   85SAPS  C220 8093   1.903   4.416   8.673  0.3841 -0.5231 -0.1721
   85SAPS  H20R 8094   1.961   4.412   8.579  1.2971  0.0311  0.3413
   85SAPS  H20S 8095   1.916   4.513   8.727  0.5528 -0.7405  0.1807
   85SAPS  H20T 8096   1.799   4.397   8.641 -0.5205  1.9842  0.9954
   85SAPS   C33 8097   2.368   4.684  10.792 -0.3816 -0.3134  0.4271
   85SAPS   H3X 8098   2.465   4.640  10.761 -1.3068 -1.5120 -0.9573
   85SAPS   H3Y 8099   2.382   4.755  10.876 -2.8429  1.9659 -0.9238
   85SAPS   C34 8100   2.303   4.757  10.667  0.0567 -0.4088 -0.3142
   85SAPS   H4X 8101   2.376   4.837  10.641 -0.4541  0.4832  0.8980
   85SAPS   H4Y 8102   2.209   4.807  10.701  0.8616  1.2112 -0.3726
   85SAPS   C35 8103   2.276   4.678  10.541  0.1225  1.1380  0.5052
   85SAPS   H5X 8104   2.228   4.581  10.568  2.3818  0.1530  1.1632
   85SAPS   H5Y 8105   2.374   4.655  10.495 -0.1576 -1.9696  1.2405
   85SAPS   C36 8106   2.189   4.758  10.438 -0.1898 -0.2224  0.5132
   85SAPS   H6X 8107   2.245   4.853  10.427 -0.8350 -0.0486 -1.5373
   85SAPS   H6Y 8108   2.087   4.780  10.474 -1.0034 -2.3924 -0.2608
   85SAPS   C37 8109   2.177   4.694  10.297  0.3073 -0.0958  0.1187
   85SAPS   H7X 8110   2.124   4.597  10.301 -0.3015 -0.1622 -4.5265
   85SAPS   H7Y 8111   2.280   4.673  10.262 -0.1438 -0.8799 -0.7736
   85SAPS   C38 8112   2.111   4.781  10.186 -0.4737  0.2330  0.4876
   85SAPS   H8X 8113   2.165   4.877  10.171 -1.5906  0.8424  0.3036
   85SAPS   H8Y 8114   2.009   4.812  10.217 -0.7796 -0.2731 -0.0146
   85SAPS   C39 8115   2.106   4.708  10.046  0.2833 -0.3816 -0.1892
   85SAPS   H9X 8116   2.046   4.771   9.977 -1.1554 -0.5535  0.8573
   85SAPS   H9Y 8117   2.058   4.609  10.062 -2.5317  0.6501 -1.6419
   85SAPS  C310 8118   2.241   4.669   9.985 -0.0335 -0.0234  0.2500
   85SAPS  H10X 8119   2.311   4.627  10.059 -0.6036 -0.8340  0.3473
   85SAPS  H10Y 8120   2.288   4.764   9.953  1.3454 -1.1181 -1.1548
   85SAPS  C311 8121   2.230   4.574   9.862 -0.6742 -0.0397  0.0040
   85SAPS  H11X 8122   2.150   4.612   9.795  0.4085  1.0830 -0.6730
   85SAPS  H11Y 8123   2.203   4.471   9.893  1.7241 -0.9960 -0.9130
   85SAPS  C312 8124   2.355   4.568   9.778  0.0704  0.1467  0.7927
   85SAPS  H12X 8125   2.428   4.499   9.826 -1.1204 -3.2811 -1.8444
   85SAPS  H12Y 8126   2.400   4.668   9.761  0.2973 -0.0113  0.4461
   85SAPS  C313 8127   2.331   4.510   9.635 -0.0002  0.5932  0.6588
   85SAPS  H13X 8128   2.278   4.584   9.571  1.1796  1.6838  0.8992
   85SAPS  H13Y 8129   2.261   4.423   9.632 -1.1480  1.4599 -2.7522
   85SAPS  C314 8130   2.467   4.486   9.566 -0.1732  0.1328 -0.0217
   85SAPS  H14X 8131   2.547   4.466   9.641 -0.7301  0.6492  0.7329
   85SAPS  H14Y 8132   2.493   4.577   9.507  0.6419  0.1632  0.3685
   85SAPS  C315 8133   2.467   4.371   9.463  0.5021 -0.3079 -0.1578
   85SAPS  H15X 8134   2.364   4.364   9.423  1.3089  0.4599 -2.5328
   85SAPS  H15Y 8135   2.487   4.280   9.524 -1.7478 -0.1183  0.9518
   85SAPS  C316 8136   2.589   4.386   9.371 -0.2646  0.3343  0.0904
   85SAPS  H16X 8137   2.683   4.426   9.416  0.6489 -1.6837  0.0922
   85SAPS  H16Y 8138   2.548   4.449   9.288 -0.8498  1.5918  1.3000
   85SAPS  C317 8139   2.625   4.250   9.304 -0.4753  0.3739 -0.0661
   85SAPS  H17X 8140   2.537   4.222   9.243  1.0630  2.6291 -3.6143
   85SAPS  H17Y 8141   2.649   4.179   9.387 -2.4037 -0.6918 -0.3680
   85SAPS  C318 8142   2.747   4.261   9.210  0.5642  0.7832  0.0881
   85SAPS  H18X 8143   2.840   4.286   9.267  0.6134 -0.0560  0.3978
   85SAPS  H18Y 8144   2.738   4.332   9.126 -0.2684 -1.2354 -1.6224
   85SAPS  H18Z 8145   2.762   4.161   9.163  1.0596  1.5814 -1.5325
   86SAPS     N 8146   4.091   4.251  11.132  0.0867 -0.2065 -0.9197
   86SAPS   HN1 8147   4.172   4.316  11.142  0.2120 -0.7129  2.7538
   86SAPS   HN2 8148   4.044   4.255  11.040 -0.3565 -0.5113 -0.7126
   86SAPS   HN3 8149   4.021   4.274  11.205  0.9362 -1.1110  0.2273
   86SAPS   C12 8150   4.157   4.112  11.152 -0.2106 -0.1562 -0.6416
   86SAPS  H12A 8151   4.235   4.124  11.226 -2.8830  3.1104  1.9638
   86SAPS   C13 8152   4.048   4.001  11.189 -1.0995 -1.1038  0.2439
   86SAPS  O13A 8153   3.928   4.024  11.166  0.1566  0.0683  0.3244
   86SAPS  O13B 8154   4.096   3.893  11.228  0.5359 -0.4005  0.1907
   86SAPS   C11 8155   4.221   4.074  11.018 -0.2069  0.3710 -0.1835
   86SAPS  H11A 8156   4.149   4.069  10.933  1.4929 -0.9747 -1.6423
   86SAPS  H11B 8157   4.260   3.972  11.035 -1.4378 -0.0087  0.4928
   86SAPS     P 8158   4.481   4.114  11.028  0.1594 -0.0587 -0.0466
   86SAPS   O13 8159   4.563   4.233  11.063  0.0968  0.5905  0.5813
   86SAPS   O14 8160   4.470   4.015  11.138 -0.5017  0.0598  0.5588
   86SAPS   O12 8161   4.330   4.157  10.989 -0.0375 -0.0881  0.1049
   86SAPS   O11 8162   4.549   4.048  10.899  0.2058  0.1047 -0.0777
   86SAPS    C1 8163   4.479   4.055  10.775  0.1017  0.3793  0.2381
   86SAPS    HA 8164   4.398   3.980  10.768  1.5492 -1.2074 -0.2486
   86SAPS    HB 8165   4.435   4.154  10.748  1.0654  0.4624 -1.1762
   86SAPS    C2 8166   4.570   4.032  10.653  0.3023  0.0189  0.2218
   86SAPS    HS 8167   4.666   4.084  10.671 -0.6034  1.1668  1.9872
   86SAPS   O21 8168   4.497   4.078  10.535  0.3940  0.1535  0.3412
   86SAPS   C21 8169   4.566   4.125  10.437 -0.3517  0.8251  0.1122
   86SAPS   O22 8170   4.688   4.127  10.432  0.1022 -0.4800  0.1638
   86SAPS   C22 8171   4.465   4.175  10.326  0.2903 -0.4403 -0.3723
   86SAPS   H2R 8172   4.395   4.094  10.297  0.8291 -1.7485  1.8298
   86SAPS   H2S 8173   4.405   4.250  10.383  2.2657 -0.2504  1.5700
   86SAPS    C3 8174   4.599   3.876  10.633  0.0272 -0.0857 -0.6261
   86SAPS    HX 8175   4.517   3.826  10.578  0.6083 -2.4136  0.4662
   86SAPS    HY 8176   4.586   3.832  10.734 -2.1410  0.4501 -0.6412
   86SAPS   O31 8177   4.727   3.846  10.577 -0.7166  0.2133  0.4263
   86SAPS   C31 8178   4.734   3.824  10.447  0.2269 -1.2196  0.2207
   86SAPS   O32 8179   4.635   3.815  10.373  0.1481  0.0272 -0.1898
   86SAPS   C32 8180   4.882   3.815  10.402  0.2880 -0.4202 -0.2878
   86SAPS   H2X 8181   4.922   3.723  10.450 -0.2825 -0.7579 -0.4497
   86SAPS   H2Y 8182   4.946   3.898  10.441 -0.3597  1.2939 -2.5933
   86SAPS   C23 8183   4.520   4.239  10.198 -0.5933 -0.5160  0.3784
   86SAPS   H3R 8184   4.586   4.186  10.126  1.3652 -1.6639  2.8863
   86SAPS   H3S 8185   4.592   4.319  10.224  0.3559 -0.9329 -0.8950
   86SAPS   C24 8186   4.413   4.314  10.111 -0.1676 -0.9475 -0.1347
   86SAPS   H4R 8187   4.467   4.390  10.050  0.5812 -0.0155  1.6125
   86SAPS   H4S 8188   4.345   4.370  10.179  0.8591 -1.0290  0.9876
   86SAPS   C25 8189   4.321   4.220  10.036  0.1546  0.3520  0.6184
   86SAPS   H5R 8190   4.248   4.161  10.094 -0.5978  0.4639 -0.2069
   86SAPS   C26 8191   4.319   4.212   9.897 -0.0063  0.5088 -0.2364
   86SAPS   H6R 8192   4.246   4.153   9.840 -1.8651  2.6730 -0.2192
   86SAPS   C27 8193   4.405   4.290   9.806  0.3862 -0.6490  0.1233
   86SAPS   H7R 8194   4.506   4.301   9.851 -0.7350 -0.1506  2.6474
   86SAPS   H7S 8195   4.356   4.389   9.795  1.8227 -0.1099 -2.1204
   86SAPS   C28 8196   4.435   4.224   9.677 -0.0950  0.2240 -0.4350
   86SAPS   H8R 8197   4.524   4.161   9.688 -0.3146  0.1181  1.0756
   86SAPS   C29 8198   4.351   4.197   9.575  0.2759 -0.0829  0.5986
   86SAPS   H9R 8199   4.393   4.136   9.494 -1.8585 -0.9523  0.0989
   86SAPS  C210 8200   4.201   4.234   9.549 -0.2487 -0.0249  0.6068
   86SAPS  H10R 8201   4.167   4.305   9.628  0.2539  0.7418  0.1419
   86SAPS  H10S 8202   4.136   4.145   9.564 -0.1441 -0.0534  0.9051
   86SAPS  C211 8203   4.175   4.307   9.423  0.9503  0.1369  0.6957
   86SAPS  H11R 8204   4.174   4.416   9.430 -0.5287  0.2498 -0.6869
   86SAPS  C212 8205   4.154   4.239   9.308  0.3600 -0.4223  0.0017
   86SAPS  H12R 8206   4.116   4.301   9.226  2.4222  2.4257  1.0322
   86SAPS  C213 8207   4.162   4.090   9.276 -0.1257 -0.0359  0.0022
   86SAPS  H13R 8208   4.170   4.038   9.375  1.1947 -0.0557 -0.0908
   86SAPS  H13S 8209   4.252   4.074   9.213 -0.5286 -0.1789 -0.5423
   86SAPS  C214 8210   4.041   4.032   9.206  0.1859 -0.3684  0.1175
   86SAPS  H14R 8211   3.948   4.050   9.263 -0.3635 -1.2801 -0.4632
   86SAPS  C215 8212   4.029   3.968   9.089  0.2036 -0.4748 -0.9712
   86SAPS  H15R 8213   3.928   3.944   9.053 -1.0214  1.0710  1.1449
   86SAPS  C216 8214   4.150   3.935   9.003  0.4551 -0.0754  0.9263
   86SAPS  H16R 8215   4.148   3.831   8.963 -1.0628  0.6249 -0.9756
   86SAPS  H16S 8216   4.248   3.940   9.056  0.0788  1.5959  1.5212
   86SAPS  C217 8217   4.162   4.016   8.869  0.1399  0.4474  0.3415
   86SAPS  H17R 8218   4.161   4.122   8.904 -3.0560 -0.1766  2.5505
   86SAPS  H17S 8219   4.070   4.001   8.808  1.7774  0.3323 -2.2946
   86SAPS  C218 8220   4.271   3.985   8.764 -0.0814 -0.2037  0.1021
   86SAPS  H18R 8221   4.351   3.943   8.830  0.1661  1.7374  1.1028
   86SAPS  H18S 8222   4.306   4.084   8.730  0.5010 -0.9708 -1.6541
   86SAPS  C219 8223   4.229   3.903   8.646 -0.2568  0.3948  0.3050
   86SAPS  H19R 8224   4.135   3.942   8.602 -0.6821  0.8037  1.5325
   86SAPS  H19S 8225   4.200   3.799   8.671  3.4136 -1.2468 -1.4846
   86SAPS  C220 8226   4.342   3.896   8.542  0.1924  0.3605  0.3179
   86SAPS  H20R 8227   4.432   3.843   8.581 -0.5267 -2.2486 -1.3180
   86SAPS  H20S 8228   4.380   3.995   8.511  0.7904  0.0302 -0.0409
   86SAPS  H20T 8229   4.315   3.839   8.450  0.5874  0.8126 -0.0813
   86SAPS   C33 8230   4.899   3.829  10.252 -0.6152 -0.1076  0.3828
   86SAPS   H3X 8231   4.828   3.760  10.202 -2.6000  1.9274  0.2821
   86SAPS   H3Y 8232   5.000   3.787  10.228 -0.0766 -1.1791  3.8576
   86SAPS   C34 8233   4.881   3.969  10.198  0.6657 -0.0960  0.1788
   86SAPS   H4X 8234   4.922   4.047  10.266 -1.7194  1.0339  0.4183
   86SAPS   H4Y 8235   4.772   3.985  10.187  0.3838 -3.0027 -2.6219
   86SAPS   C35 8236   4.946   3.979  10.057 -0.0527 -0.0094 -0.5606
   86SAPS   H5X 8237   4.916   3.890   9.998  1.0714 -1.9403  1.6128
   86SAPS   H5Y 8238   5.055   3.963  10.072 -0.2847  0.8854  3.0235
   86SAPS   C36 8239   4.920   4.114   9.988 -0.4970 -0.0066  0.2995
   86SAPS   H6X 8240   4.978   4.198  10.031  2.3608 -0.4554 -2.3717
   86SAPS   H6Y 8241   4.812   4.140   9.999 -0.2200  1.2249  0.2236
   86SAPS   C37 8242   4.952   4.104   9.834 -0.0216 -0.1958  0.1261
   86SAPS   H7X 8243   4.872   4.163   9.784  0.4445 -0.3745 -0.8440
   86SAPS   H7Y 8244   4.943   3.996   9.807 -0.1965 -0.2815  0.5175
   86SAPS   C38 8245   5.096   4.156   9.809  0.9945  0.0461 -0.6989
   86SAPS   H8X 8246   5.155   4.071   9.849 -0.6289 -0.8891 -0.2003
   86SAPS   H8Y 8247   5.110   4.243   9.877 -2.2095 -0.4617  0.8413
   86SAPS   C39 8248   5.132   4.194   9.672  0.2512  0.1884  0.1556
   86SAPS   H9X 8249   5.241   4.210   9.688  0.0525  1.4478  0.3325
   86SAPS   H9Y 8250   5.089   4.291   9.638  0.3722  0.5395  0.9799
   86SAPS  C310 8251   5.100   4.087   9.563  0.0436  0.1123 -0.3469
   86SAPS  H10X 8252   4.990   4.082   9.548  0.3184 -0.8285 -2.4030
   86SAPS  H10Y 8253   5.135   3.983   9.581  1.7096  0.3599 -1.9027
   86SAPS  C311 8254   5.165   4.124   9.427 -0.6935 -0.0283  0.0605
   86SAPS  H11X 8255   5.276   4.134   9.433 -0.6678  0.2063 -0.7090
   86SAPS  H11Y 8256   5.126   4.221   9.389  0.1351  0.3319  0.1098
   86SAPS  C312 8257   5.149   4.018   9.312 -1.0378  0.1310  0.6599
   86SAPS  H12X 8258   5.039   4.014   9.300 -0.7677 -0.1715 -2.2407
   86SAPS  H12Y 8259   5.188   3.919   9.347 -1.1481 -1.8038 -3.9747
   86SAPS  C313 8260   5.211   4.047   9.175 -0.5121  0.3213  0.4590
   86SAPS  H13X 8261   5.319   4.069   9.193 -0.5648  0.3589  0.7364
   86SAPS  H13Y 8262   5.157   4.139   9.144  1.7577  0.6528 -3.0645
   86SAPS  C314 8263   5.190   3.940   9.067  0.4532 -0.7201 -0.4618
   86SAPS  H14X 8264   5.082   3.915   9.065  0.4894 -1.3932  2.0940
   86SAPS  H14Y 8265   5.240   3.846   9.097 -0.9889 -1.4857 -0.3419
   86SAPS  C315 8266   5.244   3.969   8.931  0.3435  0.1902  0.4901
   86SAPS  H15X 8267   5.312   4.056   8.939 -2.6595  2.5923  2.2750
   86SAPS  H15Y 8268   5.157   4.002   8.870 -2.4622 -2.5729  2.6412
   86SAPS  C316 8269   5.319   3.848   8.875 -0.3358 -0.5283  0.1207
   86SAPS  H16X 8270   5.266   3.753   8.897  0.5737 -1.0946 -0.0508
   86SAPS  H16Y 8271   5.415   3.844   8.930 -0.8245 -0.6906  0.9690
   86SAPS  C317 8272   5.372   3.870   8.727  0.7211 -0.0010  1.3537
   86SAPS  H17X 8273   5.430   3.784   8.690  1.8679  1.6180 -0.8533
   86SAPS  H17Y 8274   5.439   3.958   8.739 -1.5837  2.2498 -0.8277
   86SAPS  C318 8275   5.263   3.909   8.620 -0.4041 -0.4046 -0.3007
   86SAPS  H18X 8276   5.205   3.818   8.594 -2.2162  0.8462 -0.8129
   86SAPS  H18Y 8277   5.309   3.952   8.528  1.5798  1.1946  1.3288
   86SAPS  H18Z 8278   5.200   3.985   8.671  0.2746  0.7839 -1.1692
   87SAPS     N 8279   4.702   5.535  10.844 -0.2356 -0.2441 -0.3086
   87SAPS   HN1 8280   4.744   5.517  10.751  1.3798  2.9147 -0.3467
   87SAPS   HN2 8281   4.643   5.456  10.876 -2.0342  1.1420  0.0094
   87SAPS   HN3 8282   4.645   5.622  10.855  0.6844  0.2435  0.7617
   87SAPS   C12 8283   4.808   5.537  10.955  0.0820 -0.1338  0.2591
   87SAPS  H12A 8284   4.895   5.584  10.913 -0.8325  1.1763 -0.2049
   87SAPS   C13 8285   4.757   5.615  11.085 -0.5040  0.2218  0.3899
   87SAPS  O13A 8286   4.630   5.602  11.112  1.0174 -0.1567  1.2711
   87SAPS  O13B 8287   4.841   5.639  11.172 -0.5558 -0.5598 -0.2595
   87SAPS   C11 8288   4.832   5.382  10.990 -0.5638 -0.6712  0.1084
   87SAPS  H11A 8289   4.744   5.337  11.040  0.2843 -0.7265  1.6006
   87SAPS  H11B 8290   4.908   5.391  11.070  0.3433  0.6775 -0.8578
   87SAPS     P 8291   4.926   5.153  10.895 -0.2095  0.1746  0.4445
   87SAPS   O13 8292   5.056   5.121  10.829  0.2114 -0.0584 -0.4094
   87SAPS   O14 8293   4.926   5.116  11.040 -0.0332 -0.0760  0.2046
   87SAPS   O12 8294   4.878   5.306  10.876  0.1492  0.3700  0.5280
   87SAPS   O11 8295   4.815   5.075  10.810  0.0272 -0.2253 -0.5013
   87SAPS    C1 8296   4.677   5.114  10.828  0.2373  0.5339 -0.1718
   87SAPS    HA 8297   4.648   5.093  10.933  0.4772  0.9497 -0.0202
   87SAPS    HB 8298   4.673   5.224  10.810  3.4054  0.4907 -1.8434
   87SAPS    C2 8299   4.582   5.035  10.735 -0.5408  0.3022  0.3936
   87SAPS    HS 8300   4.559   4.935  10.776 -2.3670  0.3937 -0.2987
   87SAPS   O21 8301   4.652   5.004  10.614 -0.3736 -0.6130  0.7057
   87SAPS   C21 8302   4.672   5.094  10.521 -0.8959  0.0507  0.3869
   87SAPS   O22 8303   4.654   5.210  10.527 -0.0153 -0.6955 -0.3161
   87SAPS   C22 8304   4.743   5.045  10.392 -0.2371  0.6841  0.6894
   87SAPS   H2R 8305   4.850   5.069  10.405  0.0310 -0.8599  1.6265
   87SAPS   H2S 8306   4.735   4.934  10.394 -0.2415  0.6415 -0.6552
   87SAPS    C3 8307   4.448   5.103  10.702 -0.1627 -0.0455  0.0414
   87SAPS    HX 8308   4.466   5.207  10.667 -0.0191  0.2764  1.0189
   87SAPS    HY 8309   4.407   5.115  10.805 -0.8515 -0.7292 -0.1490
   87SAPS   O31 8310   4.367   5.019  10.618 -0.8131 -0.1318 -0.4170
   87SAPS   C31 8311   4.247   5.059  10.606 -0.0496 -0.3150 -0.0025
   87SAPS   O32 8312   4.206   5.168  10.650  0.4708  0.0371 -0.3300
   87SAPS   C32 8313   4.162   4.961  10.525 -0.0116 -0.4175  0.1814
   87SAPS   H2X 8314   4.156   4.861  10.573 -0.3128 -1.4614 -1.9032
   87SAPS   H2Y 8315   4.208   4.949  10.425 -2.3881  1.5268 -1.2604
   87SAPS   C23 8316   4.699   5.109  10.252  0.2413 -0.2946  0.1966
   87SAPS   H3R 8317   4.762   5.198  10.234  0.3398  0.0738  2.1141
   87SAPS   H3S 8318   4.593   5.141  10.261  0.6215  0.7323  1.4290
   87SAPS   C24 8319   4.712   5.012  10.132 -0.0340  0.3436  0.0467
   87SAPS   H4R 8320   4.670   5.055  10.038 -2.7289 -2.7363 -0.3490
   87SAPS   H4S 8321   4.660   4.915  10.151  0.7695 -0.5305 -1.9029
   87SAPS   C25 8322   4.850   4.976  10.104 -0.6406  0.8735  0.0171
   87SAPS   H5R 8323   4.922   4.975  10.187 -2.6723  0.5981  1.8689
   87SAPS   C26 8324   4.889   4.939   9.981  0.4701  0.1035  0.1491
   87SAPS   H6R 8325   4.995   4.924   9.957 -0.0383 -1.6297 -1.2272
   87SAPS   C27 8326   4.792   4.918   9.864  0.6607  0.5440  0.4100
   87SAPS   H7R 8327   4.688   4.891   9.892  0.3768  0.1267 -0.9572
   87SAPS   H7S 8328   4.827   4.832   9.804  2.6533  1.1464  0.6453
   87SAPS   C28 8329   4.787   5.049   9.779  0.4847  0.0283  0.3867
   87SAPS   H8R 8330   4.804   5.139   9.840  2.7343 -0.2765  0.3105
   87SAPS   C29 8331   4.778   5.048   9.645  0.0609 -0.1762  0.5937
   87SAPS   H9R 8332   4.789   5.147   9.597  1.4198  0.1830  1.5934
   87SAPS  C210 8333   4.759   4.933   9.553 -0.1945  0.5822  1.6341
   87SAPS  H10R 8334   4.655   4.921   9.515  0.3038  0.5197  0.2468
   87SAPS  H10S 8335   4.791   4.835   9.595  0.4367  0.3310  0.5904
   87SAPS  C211 8336   4.846   4.947   9.425  0.0419  0.0882 -0.0704
   87SAPS  H11R 8337   4.939   4.887   9.421 -0.3544 -0.6648  1.2304
   87SAPS  C212 8338   4.806   5.005   9.310 -0.2432  0.0766  0.3802
   87SAPS  H12R 8339   4.875   5.004   9.224 -0.5201  2.5018  0.0456
   87SAPS  C213 8340   4.677   5.081   9.287 -0.5111 -0.2122  0.1778
   87SAPS  H13R 8341   4.700   5.190   9.277  2.0016 -0.7180 -0.2671
   87SAPS  H13S 8342   4.618   5.080   9.381  0.8593  0.8795  1.1019
   87SAPS  C214 8343   4.605   5.034   9.166 -0.2997 -0.0615  0.7195
   87SAPS  H14R 8344   4.524   4.963   9.186  0.8953 -1.9673 -0.8557
   87SAPS  C215 8345   4.612   5.091   9.044 -0.2564  0.1390 -0.4821
   87SAPS  H15R 8346   4.542   5.047   8.972  0.0768 -2.9049  0.8870
   87SAPS  C216 8347   4.712   5.204   9.006 -0.3205  0.6692 -0.4857
   87SAPS  H16R 8348   4.787   5.158   8.938 -1.1930 -0.8277 -0.4910
   87SAPS  H16S 8349   4.779   5.245   9.085  0.6370  0.8177 -1.3522
   87SAPS  C217 8350   4.627   5.320   8.938 -0.0172  0.3438 -0.1518
   87SAPS  H17R 8351   4.710   5.390   8.913  0.1017 -0.5417 -2.5337
   87SAPS  H17S 8352   4.559   5.366   9.012  0.1745 -0.7293  0.7268
   87SAPS  C218 8353   4.561   5.285   8.799 -0.2336  0.6669  0.2448
   87SAPS  H18R 8354   4.529   5.372   8.738  0.0641  0.8802  0.3898
   87SAPS  H18S 8355   4.479   5.213   8.820 -0.9325  0.9398 -1.4433
   87SAPS  C219 8356   4.648   5.208   8.701 -0.0113 -0.1355 -1.4070
   87SAPS  H19R 8357   4.695   5.118   8.748 -2.5640 -0.4456  0.8102
   87SAPS  H19S 8358   4.725   5.279   8.666 -2.1623  2.7296 -0.7257
   87SAPS  C220 8359   4.568   5.164   8.581 -0.7293 -0.4305 -1.0699
   87SAPS  H20R 8360   4.633   5.143   8.494 -1.6376  0.9429 -2.1332
   87SAPS  H20S 8361   4.494   5.244   8.560  1.0893  1.9874  1.0992
   87SAPS  H20T 8362   4.506   5.075   8.602  0.2522 -0.6426  1.1794
   87SAPS   C33 8363   4.026   5.022  10.496 -0.2872  0.2412  0.1126
   87SAPS   H3X 8364   3.954   5.041  10.579 -0.7015 -0.2589 -0.1252
   87SAPS   H3Y 8365   3.974   4.939  10.444  0.7321 -0.1742 -0.2708
   87SAPS   C34 8366   4.022   5.132  10.388 -0.5236  0.1796  0.7090
   87SAPS   H4X 8367   4.086   5.213  10.430  1.1609 -0.5187 -0.4028
   87SAPS   H4Y 8368   3.916   5.164  10.382 -0.0568  2.0733  1.8203
   87SAPS   C35 8369   4.080   5.102  10.250  0.5102  0.0834 -0.0499
   87SAPS   H5X 8370   4.177   5.050  10.267  0.4435  0.4925  1.9121
   87SAPS   H5Y 8371   4.085   5.200  10.199 -1.5488  0.4601  0.3797
   87SAPS   C36 8372   3.990   5.000  10.167 -0.1840 -0.1964  0.6637
   87SAPS   H6X 8373   3.898   5.061  10.174 -0.3910 -0.4569  0.2654
   87SAPS   H6Y 8374   3.977   4.902  10.218 -0.5856 -1.2076 -1.2763
   87SAPS   C37 8375   4.030   4.986  10.021  0.7750  0.4134 -0.1095
   87SAPS   H7X 8376   4.121   4.922  10.028 -0.4344 -1.3837 -0.0862
   87SAPS   H7Y 8377   4.072   5.083   9.989  1.0073  0.3658  0.0444
   87SAPS   C38 8378   3.912   4.931   9.938  0.1993 -0.4528  0.1198
   87SAPS   H8X 8379   3.826   4.998   9.959  0.8090  0.4619 -0.2149
   87SAPS   H8Y 8380   3.882   4.831   9.977 -0.1143 -0.5363 -0.3320
   87SAPS   C39 8381   3.946   4.907   9.791  0.3792  0.0311 -0.2250
   87SAPS   H9X 8382   4.027   4.831   9.794 -1.0288 -1.5078  1.0966
   87SAPS   H9Y 8383   3.987   5.004   9.756  2.7520 -0.7920  0.0853
   87SAPS  C310 8384   3.829   4.863   9.701 -0.5260  0.0108  0.1574
   87SAPS  H10X 8385   3.761   4.949   9.714  0.1883  0.8078 -1.1458
   87SAPS  H10Y 8386   3.789   4.765   9.736  0.2236 -0.0089  1.0094
   87SAPS  C311 8387   3.872   4.848   9.555 -1.0370  0.3260  0.0785
   87SAPS  H11X 8388   3.954   4.773   9.552  0.4695  1.8285  1.6323
   87SAPS  H11Y 8389   3.907   4.947   9.520 -1.2518  0.1955 -0.5048
   87SAPS  C312 8390   3.754   4.810   9.474  0.3718  0.5739 -0.3259
   87SAPS  H12X 8391   3.673   4.884   9.491 -0.7628 -1.0761  2.0895
   87SAPS  H12Y 8392   3.712   4.712   9.505  0.0336  0.2507 -1.7191
   87SAPS  C313 8393   3.781   4.814   9.322  0.1588  0.1301 -0.1442
   87SAPS  H13X 8394   3.819   4.916   9.301  1.7748 -0.4472 -0.2271
   87SAPS  H13Y 8395   3.688   4.798   9.262  0.1071 -0.8300  0.1711
   87SAPS  C314 8396   3.882   4.709   9.276  0.3829  0.1823  0.1035
   87SAPS  H14X 8397   3.846   4.605   9.293 -0.8914  0.9317  2.4372
   87SAPS  H14Y 8398   3.972   4.735   9.335 -0.5316  1.4912  0.9957
   87SAPS  C315 8399   3.905   4.734   9.126  0.0899 -0.0828  0.2365
   87SAPS  H15X 8400   4.003   4.693   9.097 -0.1427 -2.0504  2.0437
   87SAPS  H15Y 8401   3.894   4.842   9.101  0.9324  0.4320  1.9460
   87SAPS  C316 8402   3.799   4.686   9.028 -0.1898  1.1571  0.2142
   87SAPS  H16X 8403   3.700   4.707   9.074  0.0425  2.5846  0.1090
   87SAPS  H16Y 8404   3.811   4.576   9.018 -0.7463  1.1078  0.0448
   87SAPS  C317 8405   3.797   4.755   8.895 -0.5110 -0.3079  0.5113
   87SAPS  H17X 8406   3.750   4.682   8.826  2.7912  0.9607 -3.4788
   87SAPS  H17Y 8407   3.902   4.760   8.858 -0.6505 -0.4949  0.0868
   87SAPS  C318 8408   3.733   4.897   8.885 -0.1770 -0.0473  0.3373
   87SAPS  H18X 8409   3.625   4.883   8.906 -0.7173  0.2384 -2.0047
   87SAPS  H18Y 8410   3.744   4.925   8.778  0.6234 -1.7528 -0.0608
   87SAPS  H18Z 8411   3.790   4.968   8.949 -0.0691 -0.0520  0.2459
   88SAPS     N 8412   6.133   3.057  10.941  0.4686 -0.4271 -0.6042
   88SAPS   HN1 8413   6.103   2.957  10.937 -2.1221  0.2160  0.8373
   88SAPS   HN2 8414   6.045   3.103  10.972 -0.2216 -1.6400 -0.6798
   88SAPS   HN3 8415   6.152   3.093  10.845 -0.4605 -2.1602 -1.4854
   88SAPS   C12 8416   6.237   3.082  11.043 -0.1339  0.0725 -0.1643
   88SAPS  H12A 8417   6.191   3.149  11.115 -1.5364 -0.5627 -0.4403
   88SAPS   C13 8418   6.293   2.956  11.122 -0.6178 -0.1770  0.1702
   88SAPS  O13A 8419   6.252   2.846  11.079  0.0740 -0.3765 -0.0115
   88SAPS  O13B 8420   6.356   2.975  11.222 -0.3054 -0.5942  0.0701
   88SAPS   C11 8421   6.364   3.146  10.974 -0.1469 -1.0903  0.0927
   88SAPS  H11A 8422   6.412   3.068  10.911 -1.3943 -1.4034 -0.5014
   88SAPS  H11B 8423   6.442   3.182  11.044 -1.1164 -0.0767  0.6880
   88SAPS     P 8424   6.429   3.339  10.805 -0.0333  0.1007 -0.1149
   88SAPS   O13 8425   6.357   3.460  10.745 -0.3610 -0.1622 -0.2051
   88SAPS   O14 8426   6.556   3.369  10.879  0.1603  0.0518  0.2159
   88SAPS   O12 8427   6.328   3.265  10.897  0.1250 -0.1858  0.7523
   88SAPS   O11 8428   6.463   3.229  10.692  0.2930 -0.4250  0.0346
   88SAPS    C1 8429   6.548   3.265  10.579 -0.1729 -0.1875 -0.4094
   88SAPS    HA 8430   6.520   3.359  10.528 -1.6986 -0.7588 -0.6954
   88SAPS    HB 8431   6.654   3.277  10.608 -0.1219 -2.4353  0.5318
   88SAPS    C2 8432   6.558   3.142  10.486 -0.2692 -0.1638 -0.4724
   88SAPS    HS 8433   6.642   3.156  10.414  0.5393 -1.0818  0.2589
   88SAPS   O21 8434   6.436   3.109  10.424  0.2275 -0.8315 -0.1913
   88SAPS   C21 8435   6.378   3.196  10.340 -0.6269  0.1103 -0.0186
   88SAPS   O22 8436   6.413   3.311  10.314  0.1821 -0.5347  0.2251
   88SAPS   C22 8437   6.277   3.125  10.258  0.1086  0.5848  0.1600
   88SAPS   H2R 8438   6.201   3.087  10.329  0.7187 -0.2807  0.3708
   88SAPS   H2S 8439   6.223   3.204  10.200 -2.7487 -1.8442 -0.7148
   88SAPS    C3 8440   6.598   3.020  10.578  0.5370  0.9930  0.7368
   88SAPS    HX 8441   6.506   2.982  10.626  1.0067  1.2275  1.8535
   88SAPS    HY 8442   6.670   3.054  10.655 -0.3810  2.3123  1.0481
   88SAPS   O31 8443   6.658   2.915  10.503  0.0772  0.3072  0.1176
   88SAPS   C31 8444   6.580   2.816  10.453  1.4901 -0.3243  0.8989
   88SAPS   O32 8445   6.460   2.806  10.473 -0.0951  0.1893 -0.1217
   88SAPS   C32 8446   6.651   2.707  10.378 -0.5308 -0.2489 -0.1670
   88SAPS   H2X 8447   6.580   2.625  10.354 -2.0111  0.4326  1.6865
   88SAPS   H2Y 8448   6.727   2.673  10.452  0.7548 -0.6426 -1.5984
   88SAPS   C23 8449   6.339   3.019  10.169  0.2403  0.2890  1.2017
   88SAPS   H3R 8450   6.263   2.946  10.135  1.4001 -0.3110 -0.2600
   88SAPS   H3S 8451   6.410   2.956  10.227  0.6220  1.1653  1.7062
   88SAPS   C24 8452   6.422   3.063  10.035 -0.0243  0.0296 -0.9928
   88SAPS   H4R 8453   6.447   2.966   9.988 -0.6166 -0.1543 -0.9355
   88SAPS   H4S 8454   6.502   3.128  10.078 -1.3522  0.8029  0.3914
   88SAPS   C25 8455   6.335   3.148   9.941  0.3071  0.8631 -0.1216
   88SAPS   H5R 8456   6.279   3.232   9.984 -1.0609  0.2659 -0.6879
   88SAPS   C26 8457   6.302   3.117   9.808  0.0581  0.5496 -1.5177
   88SAPS   H6R 8458   6.218   3.171   9.763 -0.5597 -0.4294 -1.5677
   88SAPS   C27 8459   6.378   3.016   9.730 -0.3897 -0.0094  0.1709
   88SAPS   H7R 8460   6.315   2.925   9.724 -2.2664  1.1637  1.0258
   88SAPS   H7S 8461   6.474   2.996   9.783 -0.3862 -0.0516  0.1486
   88SAPS   C28 8462   6.413   3.077   9.596  0.2175  0.0012 -0.2222
   88SAPS   H8R 8463   6.463   3.174   9.614 -1.0785  0.5010  0.8127
   88SAPS   C29 8464   6.396   3.024   9.475  0.6139 -0.1384 -0.0457
   88SAPS   H9R 8465   6.426   3.081   9.386 -1.5462 -1.1106 -1.5028
   88SAPS  C210 8466   6.336   2.886   9.445  0.5681 -0.0227  0.6174
   88SAPS  H10R 8467   6.325   2.822   9.536  0.4391  0.0590  0.6611
   88SAPS  H10S 8468   6.405   2.836   9.375 -1.0075 -2.0540  0.4248
   88SAPS  C211 8469   6.200   2.909   9.378 -0.1577  0.3064  0.5534
   88SAPS  H11R 8470   6.156   3.007   9.358  0.4053  0.7865  1.5785
   88SAPS  C212 8471   6.138   2.803   9.323 -0.1936 -0.1863 -0.6747
   88SAPS  H12R 8472   6.048   2.830   9.266 -1.1131 -0.5336  0.5764
   88SAPS  C213 8473   6.184   2.655   9.324 -1.1328  0.7850 -0.4466
   88SAPS  H13R 8474   6.270   2.645   9.394 -2.3674 -2.2530  0.7744
   88SAPS  H13S 8475   6.237   2.631   9.229  1.8741  1.1735  1.0018
   88SAPS  C214 8476   6.085   2.551   9.347 -0.0483  0.1132 -0.5956
   88SAPS  H14R 8477   6.032   2.506   9.262 -0.4952 -1.1984  0.3393
   88SAPS  C215 8478   6.052   2.500   9.467  0.7676 -0.3315  0.3828
   88SAPS  H15R 8479   5.975   2.424   9.483  0.2851  0.1528  0.3655
   88SAPS  C216 8480   6.114   2.535   9.602 -0.1915 -0.6351 -0.6689
   88SAPS  H16R 8481   6.179   2.625   9.593 -0.4964 -0.3648 -0.1798
   88SAPS  H16S 8482   6.179   2.448   9.626  2.6586  0.3486 -3.9590
   88SAPS  C217 8483   6.005   2.557   9.698  0.3480  0.1299 -0.5465
   88SAPS  H17R 8484   5.938   2.469   9.710  0.6922 -0.6130 -3.4055
   88SAPS  H17S 8485   5.933   2.630   9.656 -0.9335 -0.0355  1.2265
   88SAPS  C218 8486   6.057   2.582   9.836 -0.1725 -0.2942  0.0826
   88SAPS  H18R 8487   6.114   2.490   9.859 -1.0847 -0.3169  2.5093
   88SAPS  H18S 8488   5.970   2.583   9.905 -0.4014 -0.7988 -0.1940
   88SAPS  C219 8489   6.146   2.704   9.854 -0.5689 -0.2752  0.0674
   88SAPS  H19R 8490   6.085   2.793   9.827  0.7179  0.7645  0.4350
   88SAPS  H19S 8491   6.237   2.711   9.791 -0.4956  0.5526  0.2542
   88SAPS  C220 8492   6.170   2.709  10.004 -0.1997  0.4229 -0.3147
   88SAPS  H20R 8493   6.082   2.759  10.050 -0.4841 -0.4771  0.1191
   88SAPS  H20S 8494   6.261   2.772  10.014 -0.8680  1.5320 -0.8486
   88SAPS  H20T 8495   6.203   2.623  10.065 -1.2198 -0.0154 -0.3580
   88SAPS   C33 8496   6.738   2.758  10.258  0.2502  0.1400  1.0807
   88SAPS   H3X 8497   6.819   2.683  10.248  1.1241  1.3608 -2.1812
   88SAPS   H3Y 8498   6.771   2.861  10.286 -1.0148  1.1268 -0.8158
   88SAPS   C34 8499   6.659   2.760  10.121 -0.1977 -0.1288  0.0864
   88SAPS   H4X 8500   6.717   2.812  10.042  0.2565  1.1527  1.2361
   88SAPS   H4Y 8501   6.562   2.812  10.137  0.0039  0.3625 -0.2705
   88SAPS   C35 8502   6.626   2.618  10.067  0.4603 -0.0750  0.1245
   88SAPS   H5X 8503   6.587   2.554  10.149  0.4102  0.4258  0.4928
   88SAPS   H5Y 8504   6.723   2.577  10.032 -0.4385 -1.4597 -0.8334
   88SAPS   C36 8505   6.512   2.612   9.963 -0.3930 -1.0509  0.5825
   88SAPS   H6X 8506   6.465   2.712   9.959 -1.6374 -1.5738  1.4400
   88SAPS   H6Y 8507   6.427   2.550   9.999  0.5371 -1.5237  2.0845
   88SAPS   C37 8508   6.565   2.573   9.824  0.4040  0.0106  0.1184
   88SAPS   H7X 8509   6.661   2.625   9.802 -0.7231  2.0500 -0.2807
   88SAPS   H7Y 8510   6.497   2.627   9.755 -0.8936  2.4118  3.0482
   88SAPS   C38 8511   6.565   2.425   9.795  0.8113 -0.5342  0.1740
   88SAPS   H8X 8512   6.461   2.398   9.825  0.0042  1.4437 -0.6650
   88SAPS   H8Y 8513   6.627   2.369   9.867 -0.4033 -1.5259  0.4764
   88SAPS   C39 8514   6.583   2.378   9.651  0.0313  0.2212  0.1855
   88SAPS   H9X 8515   6.605   2.269   9.646  1.1413  0.4819 -1.7037
   88SAPS   H9Y 8516   6.675   2.423   9.607 -0.3497  0.8286  0.0009
   88SAPS  C310 8517   6.462   2.413   9.566  0.4976  0.3859  0.2430
   88SAPS  H10X 8518   6.429   2.518   9.582 -0.8313 -0.2259  1.7122
   88SAPS  H10Y 8519   6.373   2.352   9.592  0.0826 -0.9086 -3.5639
   88SAPS  C311 8520   6.488   2.385   9.413 -1.0277 -0.5727 -0.0771
   88SAPS  H11X 8521   6.388   2.384   9.364 -1.1189  1.6798 -0.0348
   88SAPS  H11Y 8522   6.534   2.284   9.405  0.7057  0.2145 -0.4958
   88SAPS  C312 8523   6.597   2.474   9.349 -0.1039 -0.2668  0.1059
   88SAPS  H12X 8524   6.696   2.442   9.389  0.6130  1.4653 -0.2081
   88SAPS  H12Y 8525   6.582   2.581   9.376 -1.5718 -0.5814  0.6417
   88SAPS  C313 8526   6.594   2.442   9.198 -0.0670  1.2900 -0.3757
   88SAPS  H13X 8527   6.498   2.478   9.155 -0.1684 -0.1278 -1.4177
   88SAPS  H13Y 8528   6.602   2.333   9.181  0.9429  1.1045  1.1570
   88SAPS  C314 8529   6.714   2.511   9.132  0.0277  0.4448 -0.0049
   88SAPS  H14X 8530   6.797   2.450   9.172  0.3367  1.6946  1.3231
   88SAPS  H14Y 8531   6.721   2.618   9.160  3.3786  0.4959 -0.6292
   88SAPS  C315 8532   6.703   2.503   8.982  0.4525  0.2182 -1.1414
   88SAPS  H15X 8533   6.626   2.576   8.951  1.1651  1.3160 -0.3703
   88SAPS  H15Y 8534   6.663   2.404   8.949 -0.4455 -0.4797  1.7695
   88SAPS  C316 8535   6.836   2.542   8.913  0.4251 -0.6177  0.5175
   88SAPS  H16X 8536   6.903   2.455   8.896  0.1303 -0.3396 -2.6767
   88SAPS  H16Y 8537   6.888   2.623   8.969  0.1317  0.2024 -0.3658
   88SAPS  C317 8538   6.800   2.601   8.772 -0.2133 -0.0043 -0.0438
   88SAPS  H17X 8539   6.723   2.681   8.782 -1.2395 -1.0814  1.0016
   88SAPS  H17Y 8540   6.744   2.526   8.713 -1.8046  0.8933  0.2509
   88SAPS  C318 8541   6.915   2.650   8.686  0.5672 -0.7745  0.1623
   88SAPS  H18X 8542   6.985   2.565   8.674  2.1031  0.6288 -1.1007
   88SAPS  H18Y 8543   6.975   2.716   8.752 -0.7685  0.9452 -0.2582
   88SAPS  H18Z 8544   6.896   2.694   8.586  1.5340 -2.0331 -0.6025
   89SAPS     N 8545   5.783   4.899  10.851 -0.4615  0.1769 -0.9228
   89SAPS   HN1 8546   5.876   4.865  10.819 -0.9145 -1.1224 -0.9256
   89SAPS   HN2 8547   5.719   4.818  10.863 -1.3723  1.0771  0.7589
   89SAPS   HN3 8548   5.740   4.974  10.793 -0.0177  0.8699 -0.3755
   89SAPS   C12 8549   5.797   4.957  10.994 -0.3432  0.3650  1.1116
   89SAPS  H12A 8550   5.699   4.989  11.026 -0.7478  0.7076 -0.3803
   89SAPS   C13 8551   5.842   4.857  11.107  0.2853  0.5430  0.0516
   89SAPS  O13A 8552   5.872   4.735  11.084 -0.5770  0.4452 -0.3757
   89SAPS  O13B 8553   5.841   4.898  11.221 -0.0938  0.1862 -0.6554
   89SAPS   C11 8554   5.902   5.071  10.990 -0.0466 -0.1279  0.0683
   89SAPS  H11A 8555   6.006   5.040  10.967 -0.1848  0.3640 -1.2861
   89SAPS  H11B 8556   5.903   5.107  11.095  0.0230 -0.5281  0.2078
   89SAPS     P 8557   5.963   5.295  10.883 -0.0001  0.2340 -0.2896
   89SAPS   O13 8558   5.903   5.394  10.798 -0.0492 -0.6751 -0.1940
   89SAPS   O14 8559   6.020   5.342  11.011 -0.2484  0.0712  0.3079
   89SAPS   O12 8560   5.865   5.173  10.903  0.3877  0.4847  0.7459
   89SAPS   O11 8561   6.086   5.231  10.807 -0.4217  0.6708  0.3013
   89SAPS    C1 8562   6.081   5.185  10.672 -0.2479 -0.0927 -0.6413
   89SAPS    HA 8563   6.153   5.100  10.665  1.9311  1.5956  0.1119
   89SAPS    HB 8564   5.979   5.155  10.639 -1.4419  2.1859  0.7630
   89SAPS    C2 8565   6.127   5.288  10.568 -0.4346 -0.4971  0.4513
   89SAPS    HS 8566   6.076   5.384  10.591  2.3121  0.9576  0.9181
   89SAPS   O21 8567   6.084   5.235  10.441  0.3466  0.4024 -0.1781
   89SAPS   C21 8568   6.061   5.329  10.351  0.6996 -0.9824 -0.2267
   89SAPS   O22 8569   6.054   5.448  10.366 -0.5177 -0.6675 -0.5133
   89SAPS   C22 8570   6.019   5.271  10.214  0.5858 -0.1303 -0.3028
   89SAPS   H2R 8571   6.052   5.165  10.212  0.8655 -0.0846 -3.5146
   89SAPS   H2S 8572   5.910   5.254  10.204  1.1357 -4.1820 -0.7882
   89SAPS    C3 8573   6.285   5.320  10.577  0.3522  0.5883  0.4752
   89SAPS    HX 8574   6.336   5.227  10.545  0.9929  0.3145  2.2191
   89SAPS    HY 8575   6.316   5.352  10.679 -0.6997  0.1465  0.9543
   89SAPS   O31 8576   6.323   5.425  10.482 -0.2614  0.6936  0.4264
   89SAPS   C31 8577   6.455   5.456  10.480 -0.1325 -0.4722  0.7406
   89SAPS   O32 8578   6.539   5.438  10.566 -0.5842 -0.5876  0.0374
   89SAPS   C32 8579   6.485   5.540  10.348  0.0798 -0.2006 -0.2766
   89SAPS   H2X 8580   6.490   5.461  10.270 -0.0232 -0.2266 -0.2575
   89SAPS   H2Y 8581   6.586   5.580  10.368  0.8794 -2.5911  0.8672
   89SAPS   C23 8582   6.064   5.366  10.102  0.5610  0.5807  0.3249
   89SAPS   H3R 8583   6.172   5.389  10.102  0.3353  1.6920  1.3555
   89SAPS   H3S 8584   6.016   5.463  10.126 -1.9509 -1.0310  2.4300
   89SAPS   C24 8585   6.014   5.306   9.964  0.0596  0.5561  0.0644
   89SAPS   H4R 8586   6.041   5.381   9.887 -0.9537  2.2003  1.2338
   89SAPS   H4S 8587   5.904   5.294   9.978 -0.0509  1.5748  0.1785
   89SAPS   C25 8588   6.080   5.168   9.935  0.7078 -0.6401 -0.3053
   89SAPS   H5R 8589   6.070   5.093  10.015 -1.3064 -1.4280 -1.2242
   89SAPS   C26 8590   6.118   5.132   9.809 -0.5016 -1.1161  0.6007
   89SAPS   H6R 8591   6.171   5.036   9.802 -0.1556 -0.9296  0.6624
   89SAPS   C27 8592   6.118   5.224   9.684 -0.4970  0.3324 -0.2551
   89SAPS   H7R 8593   6.035   5.298   9.683 -1.1362 -0.3544  0.4450
   89SAPS   H7S 8594   6.108   5.159   9.594  0.2782  0.4146 -0.4046
   89SAPS   C28 8595   6.247   5.305   9.678 -0.0106 -0.0473 -0.1852
   89SAPS   H8R 8596   6.244   5.387   9.750  0.5686 -0.4461  0.3098
   89SAPS   C29 8597   6.362   5.288   9.608  0.4940 -0.6577 -0.4484
   89SAPS   H9R 8598   6.438   5.365   9.626 -2.7422  2.9004 -0.8288
   89SAPS  C210 8599   6.391   5.185   9.505  0.0887  0.2971 -0.0186
   89SAPS  H10R 8600   6.317   5.105   9.485  1.9796 -1.3144 -1.0492
   89SAPS  H10S 8601   6.479   5.120   9.529 -0.7038 -1.4583 -1.5722
   89SAPS  C211 8602   6.419   5.246   9.368 -0.4612  0.5867  0.1872
   89SAPS  H11R 8603   6.522   5.286   9.371  0.0095 -0.6559  1.7834
   89SAPS  C212 8604   6.329   5.255   9.265 -0.9158  0.7048 -0.0926
   89SAPS  H12R 8605   6.353   5.315   9.176  1.8146  1.6375  1.1613
   89SAPS  C213 8606   6.186   5.212   9.270 -0.0178  0.4161  0.4900
   89SAPS  H13R 8607   6.122   5.255   9.189 -1.2006 -1.7763  0.1826
   89SAPS  H13S 8608   6.147   5.249   9.367  2.4579  3.5513  0.4437
   89SAPS  C214 8609   6.160   5.059   9.265  0.4704  0.1647 -0.2979
   89SAPS  H14R 8610   6.148   5.012   9.364  1.2011 -0.7787 -0.6298
   89SAPS  C215 8611   6.156   4.971   9.160 -0.1764  0.1991 -0.6433
   89SAPS  H15R 8612   6.146   4.863   9.178  1.3913  0.1944  0.3524
   89SAPS  C216 8613   6.196   4.994   9.014  0.2703  0.3852 -0.0176
   89SAPS  H16R 8614   6.113   4.962   8.947  0.4639  1.0882 -0.6132
   89SAPS  H16S 8615   6.270   4.914   8.990  1.9671  2.2167 -1.2061
   89SAPS  C217 8616   6.259   5.124   8.968  0.2484  0.4976 -0.6906
   89SAPS  H17R 8617   6.353   5.124   9.027 -0.9097  1.2959  1.2476
   89SAPS  H17S 8618   6.199   5.214   8.992 -0.2007  0.0263 -0.0287
   89SAPS  C218 8619   6.305   5.134   8.817  0.1172  0.0171  0.0322
   89SAPS  H18R 8620   6.385   5.067   8.780  0.7563  1.4500 -1.2949
   89SAPS  H18S 8621   6.359   5.231   8.809  2.0369 -1.0151 -0.0127
   89SAPS  C219 8622   6.183   5.120   8.724  0.2985  0.3507  0.8649
   89SAPS  H19R 8623   6.116   5.205   8.751  1.4542  1.2269  1.0677
   89SAPS  H19S 8624   6.119   5.033   8.750 -0.5739  0.8262  0.3519
   89SAPS  C220 8625   6.213   5.120   8.575  0.6318 -0.0727 -0.7903
   89SAPS  H20R 8626   6.288   5.041   8.551  2.0789  1.3224 -0.9921
   89SAPS  H20S 8627   6.244   5.223   8.545  0.7548 -0.7849 -3.4341
   89SAPS  H20T 8628   6.125   5.105   8.509 -0.4731 -0.7126  0.7642
   89SAPS   C33 8629   6.391   5.657  10.314  0.1253 -0.9246  0.2217
   89SAPS   H3X 8630   6.414   5.731  10.393  2.6197 -1.3633  0.0085
   89SAPS   H3Y 8631   6.284   5.630  10.302 -0.2443  0.8623 -1.0276
   89SAPS   C34 8632   6.427   5.727  10.181  0.8643  0.8273 -0.0406
   89SAPS   H4X 8633   6.529   5.771  10.185  0.5947  1.3462  2.4056
   89SAPS   H4Y 8634   6.360   5.815  10.173  1.1336  0.9384 -1.3412
   89SAPS   C35 8635   6.433   5.643  10.055 -0.0274 -0.2989  0.3020
   89SAPS   H5X 8636   6.334   5.595  10.039 -0.9890  0.7996  2.4734
   89SAPS   H5Y 8637   6.505   5.562  10.079  1.0471  0.1012 -1.4311
   89SAPS   C36 8638   6.461   5.733   9.934  0.4692 -0.3514 -0.3777
   89SAPS   H6X 8639   6.550   5.796   9.955 -0.7767  0.4870  3.0475
   89SAPS   H6Y 8640   6.373   5.799   9.922 -0.9970 -2.4996 -2.5822
   89SAPS   C37 8641   6.474   5.653   9.802 -0.1042 -0.5271  0.0271
   89SAPS   H7X 8642   6.377   5.607   9.774 -1.2927  0.8035  1.7548
   89SAPS   H7Y 8643   6.537   5.563   9.821  0.4658 -0.0550  0.4269
   89SAPS   C38 8644   6.524   5.726   9.682  0.3950  0.2198  0.2829
   89SAPS   H8X 8645   6.630   5.754   9.697 -0.0479  1.6184  0.9721
   89SAPS   H8Y 8646   6.460   5.809   9.645 -0.6379 -0.7251 -0.1231
   89SAPS   C39 8647   6.520   5.638   9.553  0.1442  0.3907 -0.1483
   89SAPS   H9X 8648   6.413   5.613   9.532  0.3286  2.0310 -3.8920
   89SAPS   H9Y 8649   6.569   5.540   9.570 -1.6082 -0.3981  0.6713
   89SAPS  C310 8650   6.574   5.691   9.424  0.2263  0.5305  0.4195
   89SAPS  H10X 8651   6.550   5.620   9.342  0.4186  0.5376  0.3556
   89SAPS  H10Y 8652   6.684   5.706   9.423  0.3286 -0.1806 -0.2022
   89SAPS  C311 8653   6.532   5.839   9.383 -0.4030 -0.5190  0.2706
   89SAPS  H11X 8654   6.559   5.909   9.465 -2.3687  1.5762 -0.7717
   89SAPS  H11Y 8655   6.428   5.860   9.353  0.3850  0.7987 -1.7626
   89SAPS  C312 8656   6.601   5.876   9.250 -0.5268 -0.2364 -0.3653
   89SAPS  H12X 8657   6.583   5.801   9.170  3.2220  1.8158 -3.4449
   89SAPS  H12Y 8658   6.708   5.880   9.278 -0.6136 -1.9831  0.3429
   89SAPS  C313 8659   6.558   6.019   9.215 -0.0267  0.6402  0.2843
   89SAPS  H13X 8660   6.595   6.090   9.291 -0.2634  0.1814  0.8302
   89SAPS  H13Y 8661   6.449   6.035   9.222 -0.5557 -1.6053 -1.3488
   89SAPS  C314 8662   6.602   6.071   9.074  0.0303  0.2925 -0.1716
   89SAPS  H14X 8663   6.709   6.049   9.058  1.1689  2.7333  3.0616
   89SAPS  H14Y 8664   6.597   6.182   9.079  2.7076  0.4913 -0.7392
   89SAPS  C315 8665   6.522   6.022   8.953 -0.3889 -0.0553  0.3119
   89SAPS  H15X 8666   6.421   6.066   8.967 -0.7011 -1.0062  1.1433
   89SAPS  H15Y 8667   6.496   5.915   8.960  0.5440 -0.2397  1.1790
   89SAPS  C316 8668   6.571   6.061   8.808  0.5790 -0.2606  0.4565
   89SAPS  H16X 8669   6.491   6.040   8.734 -0.7855  0.8335  1.5703
   89SAPS  H16Y 8670   6.657   5.996   8.781 -0.3293 -1.0173 -0.7558
   89SAPS  C317 8671   6.613   6.207   8.777  0.0290  0.5351 -0.2963
   89SAPS  H17X 8672   6.685   6.232   8.858  0.5420  0.5983 -0.7649
   89SAPS  H17Y 8673   6.522   6.270   8.783  1.0219  2.3840 -2.7867
   89SAPS  C318 8674   6.676   6.228   8.643 -0.9753 -0.0356  0.5182
   89SAPS  H18X 8675   6.615   6.188   8.559  2.5591 -2.7132 -1.0657
   89SAPS  H18Y 8676   6.776   6.181   8.626  0.1135  2.6479 -1.1742
   89SAPS  H18Z 8677   6.696   6.336   8.631  3.2022 -0.5325  1.4432
   90SAPS     N 8678   1.727   6.090  11.035  0.6692 -0.1599  0.6262
   90SAPS   HN1 8679   1.750   6.144  11.120 -1.6584  0.5064  0.9004
   90SAPS   HN2 8680   1.743   6.149  10.951 -0.4887  0.7956  1.0518
   90SAPS   HN3 8681   1.627   6.060  11.039  0.2789  0.9016 -0.4646
   90SAPS   C12 8682   1.824   5.971  11.041 -0.1132 -0.2976 -0.8892
   90SAPS  H12A 8683   1.920   6.009  11.077  0.4330 -0.3663 -2.2298
   90SAPS   C13 8684   1.784   5.864  11.141 -0.1247 -0.3815 -0.2572
   90SAPS  O13A 8685   1.686   5.882  11.228 -0.3988  0.0318  0.1979
   90SAPS  O13B 8686   1.847   5.758  11.152 -0.4309  0.1863  0.1017
   90SAPS   C11 8687   1.832   5.914  10.899 -0.2436 -0.4763  0.1345
   90SAPS  H11A 8688   1.735   5.867  10.870 -1.2579  0.9262  1.0996
   90SAPS  H11B 8689   1.911   5.836  10.902 -0.9220 -1.2475 -1.1724
   90SAPS     P 8690   1.935   5.986  10.675 -0.5463 -0.3320 -0.1106
   90SAPS   O13 8691   2.077   5.954  10.695  0.6567  0.8907  0.4141
   90SAPS   O14 8692   1.858   5.880  10.599 -0.0333  0.5628  0.4607
   90SAPS   O12 8693   1.859   6.023  10.811 -0.0203 -0.0944 -1.1741
   90SAPS   O11 8694   1.923   6.126  10.601 -0.0401  0.4778 -0.4928
   90SAPS    C1 8695   1.797   6.175  10.553  0.0030 -0.3887 -0.1951
   90SAPS    HA 8696   1.712   6.105  10.572 -0.2241 -0.4480 -1.3826
   90SAPS    HB 8697   1.765   6.266  10.608  0.8025  0.3957 -1.0066
   90SAPS    C2 8698   1.797   6.216  10.406 -0.2473 -0.6319  0.1638
   90SAPS    HS 8699   1.703   6.267  10.375  0.6619  1.2446  0.3044
   90SAPS   O21 8700   1.826   6.109  10.323  0.0674  0.4440  0.0114
   90SAPS   C21 8701   1.745   6.002  10.327 -0.0632 -0.3868  0.1536
   90SAPS   O22 8702   1.639   5.995  10.384  0.4749 -0.8305  0.0994
   90SAPS   C22 8703   1.797   5.899  10.232 -0.3381  0.2510  0.4966
   90SAPS   H2R 8704   1.770   5.933  10.130  0.0250  0.7905  0.5764
   90SAPS   H2S 8705   1.905   5.880  10.250 -0.1529  0.6357 -0.1682
   90SAPS    C3 8706   1.900   6.335  10.382  0.3470 -0.9818 -0.5525
   90SAPS    HX 8707   2.000   6.295  10.410  0.2673  0.0663  1.3970
   90SAPS    HY 8708   1.879   6.419  10.451 -0.6616 -2.0276  0.4467
   90SAPS   O31 8709   1.902   6.372  10.238 -0.3470 -0.3652  0.2324
   90SAPS   C31 8710   1.995   6.457  10.205 -0.4442 -0.0320 -0.4018
   90SAPS   O32 8711   2.068   6.509  10.281 -0.2140  0.4254 -0.1511
   90SAPS   C32 8712   2.001   6.466  10.056 -0.0286  0.5102 -1.0893
   90SAPS   H2X 8713   1.919   6.532  10.021 -1.5295 -0.3615  0.6018
   90SAPS   H2Y 8714   1.985   6.364  10.015 -0.0308 -1.3523  3.0107
   90SAPS   C23 8715   1.739   5.750  10.250 -0.7727  0.2550  0.3143
   90SAPS   H3R 8716   1.633   5.752  10.217 -0.7336 -1.2839  0.0223
   90SAPS   H3S 8717   1.735   5.737  10.360  2.8237 -3.4241  0.2549
   90SAPS   C24 8718   1.821   5.642  10.191 -0.3045  0.9350 -0.3338
   90SAPS   H4R 8719   1.814   5.652  10.081 -3.9241 -0.0291 -0.3215
   90SAPS   H4S 8720   1.763   5.550  10.216  0.8788  0.9792  2.9779
   90SAPS   C25 8721   1.959   5.628  10.239 -1.1062 -0.2283 -1.0236
   90SAPS   H5R 8722   1.967   5.613  10.348  0.2553  0.7380 -0.9735
   90SAPS   C26 8723   2.074   5.627  10.170  0.3984  0.2087 -0.5190
   90SAPS   H6R 8724   2.167   5.613  10.228 -0.5793 -0.5192  0.9484
   90SAPS   C27 8725   2.086   5.634  10.019 -0.6089  0.7658  0.2041
   90SAPS   H7R 8726   2.194   5.612  10.012 -0.4196  1.9030 -0.8345
   90SAPS   H7S 8727   2.064   5.736   9.982  0.5067  0.6478 -0.8304
   90SAPS   C28 8728   2.016   5.536   9.928 -0.7238  0.3963  0.8924
   90SAPS   H8R 8729   1.929   5.485   9.972 -0.2152 -0.2987  1.1215
   90SAPS   C29 8730   2.044   5.507   9.794 -0.3165 -0.5433 -0.0676
   90SAPS   H9R 8731   1.976   5.438   9.743 -1.4891  0.9587 -0.6138
   90SAPS  C210 8732   2.160   5.563   9.720  0.1685  0.7330 -0.5746
   90SAPS  H10R 8733   2.240   5.488   9.706 -0.0168  0.5977 -0.9349
   90SAPS  H10S 8734   2.208   5.643   9.781  2.0575 -0.3062 -0.6350
   90SAPS  C211 8735   2.139   5.601   9.573 -0.2049  0.0059  0.2581
   90SAPS  H11R 8736   2.115   5.707   9.556 -0.0872  0.1504  0.9661
   90SAPS  C212 8737   2.131   5.515   9.470 -0.4390 -0.3870  1.0401
   90SAPS  H12R 8738   2.104   5.557   9.372  2.1913 -0.5058  0.1881
   90SAPS  C213 8739   2.146   5.366   9.471 -0.2629 -0.5719  0.0651
   90SAPS  H13R 8740   2.210   5.324   9.551  1.0302  0.6258 -0.2851
   90SAPS  H13S 8741   2.211   5.331   9.388  0.5363  0.1640  0.3582
   90SAPS  C214 8742   2.011   5.297   9.480 -0.7004 -0.7824  0.5125
   90SAPS  H14R 8743   1.926   5.346   9.430  0.0925  0.7587  0.5918
   90SAPS  C215 8744   1.981   5.191   9.554  0.0140 -0.4751 -0.0208
   90SAPS  H15R 8745   1.879   5.151   9.553 -0.1493 -0.2537  2.4634
   90SAPS  C216 8746   2.086   5.112   9.633 -0.3569  0.1703  0.1206
   90SAPS  H16R 8747   2.188   5.103   9.591 -0.0777 -2.0855  1.1181
   90SAPS  H16S 8748   2.060   5.005   9.649  1.1711 -0.6128 -2.1608
   90SAPS  C217 8749   2.118   5.172   9.776 -0.3866  0.3608  0.0092
   90SAPS  H17R 8750   2.034   5.154   9.847 -2.4244 -1.2892 -2.6335
   90SAPS  H17S 8751   2.152   5.277   9.764  1.2588  0.2456  2.7585
   90SAPS  C218 8752   2.243   5.114   9.840  0.4949 -0.7969 -0.4889
   90SAPS  H18R 8753   2.323   5.119   9.763  0.3128 -3.2908 -0.9119
   90SAPS  H18S 8754   2.236   5.009   9.874  1.0276 -0.2811  1.3542
   90SAPS  C219 8755   2.289   5.204   9.961  0.6155 -0.5020  0.9522
   90SAPS  H19R 8756   2.211   5.210  10.040  0.3758  0.5755  0.6478
   90SAPS  H19S 8757   2.303   5.308   9.924  1.3798 -1.6971 -2.4530
   90SAPS  C220 8758   2.401   5.153  10.052 -0.0020  0.2392 -0.1729
   90SAPS  H20R 8759   2.491   5.121   9.996  0.6312  1.1913  0.2598
   90SAPS  H20S 8760   2.360   5.066  10.108 -0.8054  0.2373 -0.7438
   90SAPS  H20T 8761   2.430   5.238  10.118  1.0854 -1.1490  1.1868
   90SAPS   C33 8762   2.134   6.521  10.004 -1.1076 -0.0256 -0.0534
   90SAPS   H3X 8763   2.168   6.454   9.923  0.4972 -0.1721  0.7110
   90SAPS   H3Y 8764   2.224   6.509  10.068 -0.3167  1.4493 -0.8529
   90SAPS   C34 8765   2.136   6.671   9.967 -0.4438 -0.1686  0.3240
   90SAPS   H4X 8766   2.128   6.715  10.068  0.9019  1.6996 -0.3263
   90SAPS   H4Y 8767   2.051   6.700   9.901  1.1268  1.6921 -0.9826
   90SAPS   C35 8768   2.266   6.712   9.896 -0.6470  0.6561 -0.2886
   90SAPS   H5X 8769   2.353   6.704   9.964 -2.7758  3.0068  3.0435
   90SAPS   H5Y 8770   2.251   6.821   9.882 -0.6632  0.8710  1.2562
   90SAPS   C36 8771   2.305   6.635   9.771 -0.5563 -0.5395 -0.4019
   90SAPS   H6X 8772   2.333   6.530   9.795  0.9803 -0.2762 -0.9320
   90SAPS   H6Y 8773   2.395   6.667   9.714  2.0197 -0.3720  3.4054
   90SAPS   C37 8774   2.183   6.616   9.674 -0.1129  0.5364 -0.0345
   90SAPS   H7X 8775   2.162   6.720   9.641 -1.8784  0.3054  0.2614
   90SAPS   H7Y 8776   2.091   6.584   9.727  0.3094  0.3073  0.5728
   90SAPS   C38 8777   2.204   6.526   9.546 -0.1066 -0.6210 -0.9715
   90SAPS   H8X 8778   2.106   6.511   9.497  0.3749 -1.6648 -1.6413
   90SAPS   H8Y 8779   2.236   6.429   9.589 -1.8191 -0.6149  0.4062
   90SAPS   C39 8780   2.316   6.575   9.452  0.1357  0.1590 -0.1544
   90SAPS   H9X 8781   2.409   6.571   9.514 -0.7054  1.3632  1.2535
   90SAPS   H9Y 8782   2.300   6.684   9.439  0.1944  0.0855 -0.9074
   90SAPS  C310 8783   2.318   6.510   9.324 -0.8768  0.3310  0.6463
   90SAPS  H10X 8784   2.224   6.540   9.272 -0.2894  2.0448  0.5101
   90SAPS  H10Y 8785   2.320   6.399   9.322 -2.0301  0.2757  1.4288
   90SAPS  C311 8786   2.445   6.550   9.242 -0.3562 -0.3466  0.3187
   90SAPS  H11X 8787   2.532   6.518   9.303 -0.8257 -1.3705  0.4686
   90SAPS  H11Y 8788   2.453   6.661   9.241  1.3331 -0.4030 -2.1767
   90SAPS  C312 8789   2.449   6.511   9.096  0.2689  0.1244  0.3808
   90SAPS  H12X 8790   2.464   6.401   9.087  1.1646  0.2368  0.4364
   90SAPS  H12Y 8791   2.541   6.552   9.048 -0.6893  2.8278  0.6671
   90SAPS  C313 8792   2.324   6.536   9.009 -0.0449  0.2150  0.5353
   90SAPS  H13X 8793   2.232   6.484   9.043 -0.1683  1.3270  2.0440
   90SAPS  H13Y 8794   2.333   6.517   8.900 -1.0838 -0.4201  0.5485
   90SAPS  C314 8795   2.285   6.679   9.017 -0.5818 -0.4580  0.4221
   90SAPS  H14X 8796   2.364   6.742   8.970 -1.7502  0.7392 -0.0085
   90SAPS  H14Y 8797   2.270   6.709   9.123 -0.8723 -0.5346  0.4022
   90SAPS  C315 8798   2.160   6.710   8.943  0.1465 -0.0224  0.5797
   90SAPS  H15X 8799   2.085   6.638   8.985  1.1153 -1.1435  0.4324
   90SAPS  H15Y 8800   2.171   6.676   8.838 -0.8233  1.0969  0.0817
   90SAPS  C316 8801   2.108   6.856   8.942  0.1908  0.1198 -0.3326
   90SAPS  H16X 8802   2.180   6.921   8.888 -0.9433  0.1721 -1.8380
   90SAPS  H16Y 8803   2.093   6.907   9.040 -2.7910  2.0506 -1.6218
   90SAPS  C317 8804   1.976   6.865   8.869 -0.2713  0.1738  0.4626
   90SAPS  H17X 8805   1.898   6.847   8.946  0.2698  2.2356  1.5527
   90SAPS  H17Y 8806   1.974   6.785   8.791 -0.4111  1.1051 -0.5181
   90SAPS  C318 8807   1.967   6.996   8.796 -0.6531  0.1823 -0.4445
   90SAPS  H18X 8808   1.885   7.000   8.722 -0.0766 -2.4466 -1.3586
   90SAPS  H18Y 8809   2.056   6.990   8.730  0.9526 -0.1878  1.6439
   90SAPS  H18Z 8810   1.974   7.082   8.866  0.5184 -0.8611  0.7814
   91SAPS     N 8811   4.692   3.997   6.185  0.1976 -0.0807  1.0402
   91SAPS   HN1 8812   4.628   3.996   6.267 -0.3705  0.2154  0.6067
   91SAPS   HN2 8813   4.780   4.030   6.229  1.5642 -1.5173 -0.4598
   91SAPS   HN3 8814   4.673   4.066   6.109  0.3120  0.9049  1.8808
   91SAPS   C12 8815   4.716   3.859   6.142  0.5512  0.0540  0.3069
   91SAPS  H12A 8816   4.717   3.795   6.229  0.8717 -1.1075 -0.5287
   91SAPS   C13 8817   4.608   3.808   6.051 -0.1918  0.6491  0.3539
   91SAPS  O13A 8818   4.535   3.885   5.983 -0.0477 -0.1715  0.2352
   91SAPS  O13B 8819   4.633   3.691   6.009  0.2244 -0.0754 -0.1385
   91SAPS   C11 8820   4.861   3.860   6.073  0.4351  0.7981  0.3153
   91SAPS  H11A 8821   4.847   3.918   5.980 -1.7783  0.0691  0.1499
   91SAPS  H11B 8822   4.881   3.755   6.044 -0.8028  0.9684 -1.2437
   91SAPS     P 8823   5.111   3.882   6.144  0.0562  0.5320 -0.0756
   91SAPS   O13 8824   5.127   3.743   6.192 -0.4780 -0.3790  0.4044
   91SAPS   O14 8825   5.152   3.903   6.000  0.3364  0.1969 -0.2508
   91SAPS   O12 8826   4.958   3.925   6.164 -0.1660  0.3157 -0.2092
   91SAPS   O11 8827   5.194   3.973   6.238  0.3303  0.1868 -0.2978
   91SAPS    C1 8828   5.128   4.076   6.320  0.0103 -0.1272 -0.1883
   91SAPS    HA 8829   5.064   4.137   6.252  0.5976  2.0382  1.1370
   91SAPS    HB 8830   5.061   4.030   6.396 -1.8954  2.8322  0.0724
   91SAPS    C2 8831   5.231   4.169   6.391  0.4103  0.4495  0.0156
   91SAPS    HS 8832   5.295   4.224   6.318  0.5523  0.5813  0.2375
   91SAPS   O21 8833   5.304   4.088   6.480  0.1236  0.1231  0.0471
   91SAPS   C21 8834   5.419   4.033   6.433  0.0060 -0.4676 -0.2304
   91SAPS   O22 8835   5.480   4.075   6.333 -0.2994  0.0597 -0.0546
   91SAPS   C22 8836   5.469   3.924   6.539 -0.4228 -0.3108  0.1487
   91SAPS   H2R 8837   5.573   3.899   6.511 -0.5103 -1.3642  0.7035
   91SAPS   H2S 8838   5.480   3.972   6.638 -0.1111 -0.7114  0.3097
   91SAPS    C3 8839   5.164   4.283   6.473  0.0164 -0.2222  0.3065
   91SAPS    HX 8840   5.082   4.235   6.531 -0.0081 -1.3337 -0.6006
   91SAPS    HY 8841   5.101   4.337   6.400  1.4912  1.1534 -0.0020
   91SAPS   O31 8842   5.251   4.365   6.565  0.7568  0.3365  0.5647
   91SAPS   C31 8843   5.325   4.457   6.500  0.1420  0.2014  0.3233
   91SAPS   O32 8844   5.333   4.468   6.383 -0.1936  0.0123 -0.1988
   91SAPS   C32 8845   5.415   4.534   6.596  0.0325 -0.2355 -0.3717
   91SAPS   H2X 8846   5.402   4.641   6.569  2.0812  0.0147 -0.5184
   91SAPS   H2Y 8847   5.520   4.507   6.574  0.9515  2.4551  0.2511
   91SAPS   C23 8848   5.392   3.792   6.542  0.1584  0.2078 -0.6214
   91SAPS   H3R 8849   5.460   3.705   6.555  0.0964  0.2873  0.2729
   91SAPS   H3S 8850   5.354   3.779   6.438  0.2719 -0.6086 -0.5676
   91SAPS   C24 8851   5.269   3.787   6.636  0.7591 -0.0232 -0.3165
   91SAPS   H4R 8852   5.223   3.686   6.632  0.3366  0.1208  0.6443
   91SAPS   H4S 8853   5.192   3.866   6.618 -0.7255 -1.0746  1.1559
   91SAPS   C25 8854   5.322   3.797   6.774  0.5119  0.6166  0.2001
   91SAPS   H5R 8855   5.398   3.723   6.804 -0.6872 -0.7402 -0.0098
   91SAPS   C26 8856   5.284   3.888   6.866  0.1017  0.2812  0.9244
   91SAPS   H6R 8857   5.332   3.885   6.965 -0.1555  1.2470  1.0821
   91SAPS   C27 8858   5.177   3.993   6.865 -0.5406  0.2849 -0.1371
   91SAPS   H7R 8859   5.115   3.967   6.953  0.2852 -1.9204 -0.1342
   91SAPS   H7S 8860   5.112   3.990   6.775  1.3472  0.8186 -1.5761
   91SAPS   C28 8861   5.230   4.138   6.864 -0.3847 -0.3187  0.4724
   91SAPS   H8R 8862   5.303   4.146   6.781  1.3014 -1.9912  1.7019
   91SAPS   C29 8863   5.205   4.241   6.949 -0.3984 -0.5966  0.1144
   91SAPS   H9R 8864   5.238   4.338   6.911  0.5195 -0.7498  0.4854
   91SAPS  C210 8865   5.124   4.241   7.071 -0.1276 -0.9767 -0.9045
   91SAPS  H10R 8866   5.094   4.140   7.106 -1.5799  0.1758  1.4252
   91SAPS  H10S 8867   5.027   4.294   7.055 -0.2716 -1.3384 -1.2804
   91SAPS  C211 8868   5.196   4.308   7.191  0.7555  0.4289  0.2974
   91SAPS  H11R 8869   5.292   4.354   7.164  1.1794  0.0255  1.0816
   91SAPS  C212 8870   5.160   4.315   7.320 -0.0613 -0.3717 -0.8401
   91SAPS  H12R 8871   5.226   4.373   7.387  0.1488 -0.7828 -0.6901
   91SAPS  C213 8872   5.035   4.261   7.383 -0.5740  0.3403 -0.4222
   91SAPS  H13R 8873   4.999   4.175   7.323  0.2999 -1.2049  1.1645
   91SAPS  H13S 8874   4.947   4.323   7.410 -0.3157 -0.1145  1.6878
   91SAPS  C214 8875   5.070   4.204   7.516  0.3205  0.6243  0.1997
   91SAPS  H14R 8876   5.121   4.106   7.513  1.1701  1.0738 -2.3382
   91SAPS  C215 8877   5.045   4.265   7.641 -0.0363 -0.8333  0.1150
   91SAPS  H15R 8878   5.081   4.224   7.737 -2.0984 -3.1179  0.0121
   91SAPS  C216 8879   4.987   4.404   7.667 -0.9239  0.6591 -0.5023
   91SAPS  H16R 8880   4.883   4.404   7.707 -0.5324  1.4981  0.5656
   91SAPS  H16S 8881   4.984   4.473   7.579 -0.8651  0.7083 -0.4651
   91SAPS  C217 8882   5.067   4.462   7.776 -0.3973 -0.4029  0.0950
   91SAPS  H17R 8883   5.050   4.571   7.783 -0.2481 -0.3662 -0.1003
   91SAPS  H17S 8884   5.176   4.457   7.754 -0.5532 -0.9851 -0.5835
   91SAPS  C218 8885   5.031   4.401   7.915  0.3889 -0.0964  0.6887
   91SAPS  H18R 8886   5.084   4.303   7.922  0.0193 -0.2150  2.0769
   91SAPS  H18S 8887   4.921   4.385   7.920  0.2507  0.9601  1.1174
   91SAPS  C219 8888   5.072   4.496   8.028 -0.1802 -0.7115  0.2819
   91SAPS  H19R 8889   5.018   4.593   8.019  1.9976  0.5984  0.5374
   91SAPS  H19S 8890   5.182   4.509   8.025 -0.1512 -0.7064  1.1049
   91SAPS  C220 8891   5.048   4.429   8.162 -0.2675 -0.0972 -0.2220
   91SAPS  H20R 8892   5.115   4.481   8.235  1.8721 -0.9281 -1.4926
   91SAPS  H20S 8893   5.085   4.325   8.150  0.3029 -0.1905  1.8751
   91SAPS  H20T 8894   4.943   4.422   8.197 -0.8731 -0.2329 -1.9711
   91SAPS   C33 8895   5.382   4.500   6.742 -0.3883  0.4958 -0.3617
   91SAPS   H3X 8896   5.380   4.390   6.753 -0.5460  0.6560  1.5232
   91SAPS   H3Y 8897   5.276   4.525   6.763 -0.5572  0.9285 -1.6261
   91SAPS   C34 8898   5.471   4.564   6.847 -0.1518 -0.0455 -0.6471
   91SAPS   H4X 8899   5.487   4.670   6.818  0.8630  0.0805  0.3311
   91SAPS   H4Y 8900   5.570   4.515   6.832  0.4703  0.8573  0.4177
   91SAPS   C35 8901   5.403   4.561   6.986 -0.5246  0.8410 -0.2507
   91SAPS   H5X 8902   5.416   4.456   7.021 -3.1424 -0.3415 -2.4824
   91SAPS   H5Y 8903   5.293   4.572   6.981 -0.4511  1.1802 -1.2865
   91SAPS   C36 8904   5.455   4.656   7.088  0.1473 -0.2172  0.2501
   91SAPS   H6X 8905   5.422   4.760   7.066  1.6019 -0.1125 -1.6953
   91SAPS   H6Y 8906   5.566   4.657   7.089  0.2086  0.9997 -1.6069
   91SAPS   C37 8907   5.411   4.618   7.228 -0.0707 -0.2805 -0.1016
   91SAPS   H7X 8908   5.436   4.516   7.263  1.2245  0.5796  1.6788
   91SAPS   H7Y 8909   5.301   4.634   7.230  0.1662  1.6132  1.9917
   91SAPS   C38 8910   5.457   4.729   7.336 -0.1635  0.6485  0.2575
   91SAPS   H8X 8911   5.401   4.823   7.319 -3.4855 -0.7962  2.0075
   91SAPS   H8Y 8912   5.566   4.747   7.331  0.5165 -2.9989 -0.9368
   91SAPS   C39 8913   5.417   4.671   7.475  0.3554 -0.5587  0.3362
   91SAPS   H9X 8914   5.462   4.570   7.488  1.1356 -0.3399 -0.5508
   91SAPS   H9Y 8915   5.307   4.657   7.475  0.2088  0.3906  1.3516
   91SAPS  C310 8916   5.456   4.762   7.592 -0.3418 -0.0956  0.0946
   91SAPS  H10X 8917   5.399   4.856   7.576  0.0602 -0.2617 -3.0244
   91SAPS  H10Y 8918   5.564   4.781   7.572 -0.3704  0.2616  0.2732
   91SAPS  C311 8919   5.416   4.708   7.729 -0.6107 -0.2771  0.0380
   91SAPS  H11X 8920   5.356   4.616   7.712 -0.6642  0.2080 -3.0031
   91SAPS  H11Y 8921   5.354   4.790   7.772  0.9735  0.7585  0.4474
   91SAPS  C312 8922   5.539   4.689   7.806  0.8070 -0.2425 -0.1568
   91SAPS  H12X 8923   5.603   4.779   7.813  0.1427  0.1660  0.8905
   91SAPS  H12Y 8924   5.598   4.611   7.752 -1.2501 -1.4187 -0.8201
   91SAPS  C313 8925   5.499   4.633   7.949 -0.4949  0.6557  0.0591
   91SAPS  H13X 8926   5.588   4.570   7.966 -0.1914  1.5670  2.2133
   91SAPS  H13Y 8927   5.404   4.575   7.948 -0.5833  0.7966  0.1823
   91SAPS  C314 8928   5.488   4.742   8.052 -0.2863  0.3333  0.2235
   91SAPS  H14X 8929   5.396   4.797   8.023 -0.7473 -0.7871 -0.4906
   91SAPS  H14Y 8930   5.571   4.815   8.046 -0.2938  0.5700  2.2451
   91SAPS  C315 8931   5.472   4.690   8.193 -0.7219  0.5431 -0.1895
   91SAPS  H15X 8932   5.384   4.622   8.185  0.1354 -0.6438  0.1139
   91SAPS  H15Y 8933   5.432   4.770   8.259 -0.0353  0.3975  0.4197
   91SAPS  C316 8934   5.594   4.612   8.247 -0.2503  0.0399  0.0097
   91SAPS  H16X 8935   5.627   4.538   8.171  1.2820  1.3852 -0.6936
   91SAPS  H16Y 8936   5.570   4.563   8.344 -3.8923 -0.0156 -0.8026
   91SAPS  C317 8937   5.718   4.699   8.264 -0.0090 -0.1158 -0.5878
   91SAPS  H17X 8938   5.707   4.774   8.183  0.3208  0.2732 -0.2767
   91SAPS  H17Y 8939   5.806   4.633   8.248 -1.5646 -2.2064 -0.9942
   91SAPS  C318 8940   5.729   4.770   8.405 -0.0045  0.1596  0.0068
   91SAPS  H18X 8941   5.730   4.696   8.488  2.3358  1.3948  1.1972
   91SAPS  H18Y 8942   5.646   4.840   8.427 -0.4345 -0.3881  0.1313
   91SAPS  H18Z 8943   5.823   4.830   8.400  0.6403 -0.8802 -0.8664
   92SAPS     N 8944   4.962   1.663   6.367  0.8720 -0.2173 -0.1152
   92SAPS   HN1 8945   4.923   1.581   6.318 -0.4209  0.8518 -0.9603
   92SAPS   HN2 8946   5.058   1.659   6.407  1.2146 -0.0133 -0.9094
   92SAPS   HN3 8947   4.897   1.672   6.448  1.2002  0.1877  0.1082
   92SAPS   C12 8948   4.947   1.787   6.284  0.3625  0.2084  0.1823
   92SAPS  H12A 8949   5.010   1.781   6.196  1.1835 -1.8052  0.8281
   92SAPS   C13 8950   4.801   1.804   6.251 -0.0527 -0.2474 -0.3885
   92SAPS  O13A 8951   4.713   1.721   6.279  0.0274  0.3472  0.4233
   92SAPS  O13B 8952   4.775   1.903   6.180  0.1190 -0.3694  0.4518
   92SAPS   C11 8953   4.994   1.906   6.366  0.3728 -1.0754 -0.0319
   92SAPS  H11A 8954   4.929   1.906   6.456 -0.5941  0.5938 -0.6863
   92SAPS  H11B 8955   4.979   2.003   6.313 -0.5341 -0.8333  0.6509
   92SAPS     P 8956   5.189   2.004   6.494 -0.1666 -0.7315 -0.2265
   92SAPS   O13 8957   5.315   1.963   6.563  0.3074 -0.1403  0.7072
   92SAPS   O14 8958   5.202   2.131   6.414 -0.1859 -0.2180 -0.0721
   92SAPS   O12 8959   5.137   1.896   6.395 -0.0226  0.6762  0.6265
   92SAPS   O11 8960   5.074   2.007   6.599 -0.2465 -0.2932  0.5621
   92SAPS    C1 8961   5.076   1.915   6.708  0.5418 -0.1026  0.0377
   92SAPS    HA 8962   4.971   1.889   6.736  0.5949 -1.6589 -1.0745
   92SAPS    HB 8963   5.118   1.817   6.676 -0.7906 -1.4011  2.0434
   92SAPS    C2 8964   5.142   1.967   6.836 -0.4331  0.4124  0.1060
   92SAPS    HS 8965   5.250   1.969   6.807 -0.6139 -2.1991 -0.9924
   92SAPS   O21 8966   5.122   1.867   6.931  0.5433  0.0412 -0.4064
   92SAPS   C21 8967   5.204   1.764   6.925  0.2899 -0.0682 -0.0502
   92SAPS   O22 8968   5.303   1.760   6.851  0.3493  0.1590 -0.3236
   92SAPS   C22 8969   5.166   1.656   7.015 -0.4622 -0.1224 -0.3515
   92SAPS   H2R 8970   5.233   1.639   7.102  0.7740  0.8476 -1.0857
   92SAPS   H2S 8971   5.061   1.677   7.044 -0.0275  0.8966  0.5614
   92SAPS    C3 8972   5.106   2.110   6.884 -0.1060 -0.3837 -0.1807
   92SAPS    HX 8973   5.015   2.113   6.948 -0.6406  2.9845 -0.9220
   92SAPS    HY 8974   5.089   2.176   6.796  0.8155  0.8647  0.5422
   92SAPS   O31 8975   5.219   2.161   6.960  0.8887  0.2219 -0.0317
   92SAPS   C31 8976   5.294   2.263   6.913 -0.1851  0.1417  0.1440
   92SAPS   O32 8977   5.311   2.290   6.797 -0.7437 -0.1101 -0.6230
   92SAPS   C32 8978   5.387   2.300   7.024 -0.0110 -0.2026 -0.8295
   92SAPS   H2X 8979   5.475   2.235   7.010  1.5958  1.3978  1.0921
   92SAPS   H2Y 8980   5.328   2.280   7.116 -0.1354 -1.7634 -1.2329
   92SAPS   C23 8981   5.167   1.517   6.951  0.0242  0.2945 -0.1078
   92SAPS   H3R 8982   5.173   1.432   7.022  0.6032  1.3254  1.1141
   92SAPS   H3S 8983   5.254   1.502   6.884  0.4036 -1.6577  0.7465
   92SAPS   C24 8984   5.040   1.508   6.863  0.5172  0.0121  0.1413
   92SAPS   H4R 8985   5.050   1.584   6.782 -0.4581  1.8689  1.6841
   92SAPS   H4S 8986   4.959   1.549   6.927  0.5506 -0.4533  0.4843
   92SAPS   C25 8987   5.007   1.362   6.819 -1.3743  0.0616 -0.0083
   92SAPS   H5R 8988   5.066   1.307   6.743  1.2877  0.3025  1.7586
   92SAPS   C26 8989   4.904   1.291   6.867 -0.3109  0.2809  0.1511
   92SAPS   H6R 8990   4.878   1.194   6.821  0.3461  1.4436 -2.8847
   92SAPS   C27 8991   4.805   1.336   6.969  0.4634  0.4574  0.5315
   92SAPS   H7R 8992   4.801   1.443   6.999 -0.8361  0.1975  1.3540
   92SAPS   H7S 8993   4.830   1.285   7.065  2.9593 -0.8487 -0.6991
   92SAPS   C28 8994   4.664   1.304   6.941  0.1993  1.4347 -0.4797
   92SAPS   H8R 8995   4.650   1.230   6.861  1.6230 -2.3510  2.4785
   92SAPS   C29 8996   4.556   1.333   7.018  0.2634  0.0648 -0.0660
   92SAPS   H9R 8997   4.460   1.303   6.974  1.0592  2.1310 -3.6070
   92SAPS  C210 8998   4.543   1.399   7.151 -0.7158 -0.1825 -0.0427
   92SAPS  H10R 8999   4.439   1.435   7.167 -1.1266 -1.7099  0.9505
   92SAPS  H10S 9000   4.607   1.488   7.163  1.7428 -1.8464 -0.1308
   92SAPS  C211 9001   4.570   1.296   7.259 -0.0885 -0.6402  0.3368
   92SAPS  H11R 9002   4.496   1.215   7.264 -1.0914  0.2288 -0.1911
   92SAPS  C212 9003   4.675   1.303   7.347  0.5269 -0.0772 -0.8153
   92SAPS  H12R 9004   4.686   1.223   7.421  0.8929  1.5527  0.9514
   92SAPS  C213 9005   4.777   1.409   7.361 -1.2836 -0.6102  0.1481
   92SAPS  H13R 9006   4.727   1.504   7.391  2.1079  1.0322  1.1660
   92SAPS  H13S 9007   4.835   1.429   7.268  0.7229 -0.2837  1.3873
   92SAPS  C214 9008   4.871   1.383   7.481 -0.1549  0.2959 -0.2863
   92SAPS  H14R 9009   4.820   1.339   7.568 -2.0774  2.4661 -0.2042
   92SAPS  C215 9010   5.004   1.394   7.476 -0.8890 -0.5744 -0.1391
   92SAPS  H15R 9011   5.068   1.370   7.562 -0.6421 -2.1257 -0.7209
   92SAPS  C216 9012   5.087   1.439   7.356 -0.5648  0.0793 -0.1566
   92SAPS  H16R 9013   5.148   1.530   7.374 -1.2255  0.3970  0.4977
   92SAPS  H16S 9014   5.016   1.481   7.281 -2.7150 -0.7671  1.3056
   92SAPS  C217 9015   5.155   1.318   7.298  0.3572  0.0094 -0.3057
   92SAPS  H17R 9016   5.219   1.274   7.377  0.2278  1.4536  0.6555
   92SAPS  H17S 9017   5.232   1.366   7.234  1.2138  1.4845  1.7404
   92SAPS  C218 9018   5.057   1.218   7.228 -0.0587  0.2400 -0.4996
   92SAPS  H18R 9019   4.998   1.274   7.152 -0.5794 -1.3042 -1.2748
   92SAPS  H18S 9020   4.987   1.176   7.303 -2.4225  3.0770 -0.9260
   92SAPS  C219 9021   5.131   1.121   7.148 -0.4506 -0.2192 -0.5345
   92SAPS  H19R 9022   5.207   1.079   7.218 -1.8880 -2.3056 -0.1293
   92SAPS  H19S 9023   5.182   1.168   7.061  0.9139 -1.3054 -0.3469
   92SAPS  C220 9024   5.058   1.004   7.108  0.3345  0.1233 -0.4793
   92SAPS  H20R 9025   4.976   1.020   7.035  1.9524  1.6870 -2.0706
   92SAPS  H20S 9026   5.012   0.959   7.198  0.6750  1.8956  0.6254
   92SAPS  H20T 9027   5.127   0.931   7.061 -3.0943 -3.7100 -0.1348
   92SAPS   C33 9028   5.438   2.447   7.031  1.2662 -0.5217 -0.1978
   92SAPS   H3X 9029   5.355   2.516   7.056  1.8449 -0.2089  0.9113
   92SAPS   H3Y 9030   5.479   2.474   6.932  4.1196  1.0745  1.2961
   92SAPS   C34 9031   5.542   2.481   7.132  0.0833 -0.2653 -0.3817
   92SAPS   H4X 9032   5.546   2.592   7.129 -1.6791 -0.1984 -1.0899
   92SAPS   H4Y 9033   5.643   2.448   7.102  0.8830  0.9422  0.8212
   92SAPS   C35 9034   5.512   2.420   7.272 -0.1958 -0.3214  0.3801
   92SAPS   H5X 9035   5.506   2.310   7.277 -3.0240 -0.2107  0.5592
   92SAPS   H5Y 9036   5.414   2.460   7.303 -0.0591  1.5758 -1.3943
   92SAPS   C36 9037   5.618   2.451   7.374 -0.3299 -0.9021  0.0180
   92SAPS   H6X 9038   5.613   2.560   7.392  1.3814 -1.2144  3.1570
   92SAPS   H6Y 9039   5.717   2.435   7.326 -0.0884 -1.1535  0.5970
   92SAPS   C37 9040   5.611   2.387   7.513  0.0351  0.0433  0.1211
   92SAPS   H7X 9041   5.641   2.281   7.497 -1.0955  0.1075 -3.0964
   92SAPS   H7Y 9042   5.513   2.397   7.565  0.5257  2.5701  0.7156
   92SAPS   C38 9043   5.706   2.463   7.608 -0.3230  0.0962  0.8792
   92SAPS   H8X 9044   5.659   2.564   7.609 -5.2612 -1.8581 -1.0348
   92SAPS   H8Y 9045   5.813   2.467   7.579 -0.2265  1.3012  1.3249
   92SAPS   C39 9046   5.699   2.408   7.749 -0.2867  0.8217 -0.4789
   92SAPS   H9X 9047   5.756   2.313   7.759  0.4262  1.0152 -2.4393
   92SAPS   H9Y 9048   5.595   2.387   7.785  0.6812 -3.6265  0.3149
   92SAPS  C310 9049   5.774   2.493   7.856 -0.3978  0.1646  0.6215
   92SAPS  H10X 9050   5.728   2.594   7.850 -1.4440 -0.3479 -0.5375
   92SAPS  H10Y 9051   5.881   2.508   7.830 -0.0418  0.0309  1.9687
   92SAPS  C311 9052   5.754   2.432   7.987 -0.2546 -0.3607 -0.8402
   92SAPS  H11X 9053   5.774   2.323   7.992  0.5869 -0.1884  2.2412
   92SAPS  H11Y 9054   5.651   2.450   8.025  0.6278 -1.1831  2.3066
   92SAPS  C312 9055   5.847   2.474   8.104  0.3668  0.7907  0.2970
   92SAPS  H12X 9056   5.832   2.582   8.128  1.8603  0.9993  0.3733
   92SAPS  H12Y 9057   5.957   2.468   8.089  0.5903  0.9144  1.7473
   92SAPS  C313 9058   5.827   2.386   8.221  0.4573  0.9471  0.2567
   92SAPS  H13X 9059   5.849   2.281   8.193 -1.1331  0.4297  0.8215
   92SAPS  H13Y 9060   5.718   2.383   8.242 -0.2841 -2.2848 -3.1754
   92SAPS  C314 9061   5.913   2.413   8.343 -0.1136  0.4395  0.0542
   92SAPS  H14X 9062   5.881   2.509   8.388 -0.6549  0.2912 -0.0093
   92SAPS  H14Y 9063   6.016   2.433   8.307  0.0337  1.7083  1.1012
   92SAPS  C315 9064   5.908   2.295   8.440  0.8145  0.0472  0.0437
   92SAPS  H15X 9065   5.940   2.200   8.392  0.9090 -0.4005  0.9703
   92SAPS  H15Y 9066   5.803   2.275   8.472  0.7081  1.1707  0.4386
   92SAPS  C316 9067   5.997   2.298   8.571  0.4171 -0.4276 -0.5290
   92SAPS  H16X 9068   5.977   2.206   8.630 -0.0985  0.5432  0.8574
   92SAPS  H16Y 9069   5.959   2.380   8.635  2.1185  0.0176 -0.0360
   92SAPS  C317 9070   6.144   2.328   8.545  0.3703  0.1781 -0.0682
   92SAPS  H17X 9071   6.147   2.425   8.490 -3.3539 -0.3038 -1.3473
   92SAPS  H17Y 9072   6.185   2.255   8.472 -0.1760  1.0086 -1.2374
   92SAPS  C318 9073   6.235   2.329   8.669 -0.2295 -0.1031 -0.3432
   92SAPS  H18X 9074   6.202   2.413   8.733  2.8487  0.8047  0.1931
   92SAPS  H18Y 9075   6.342   2.336   8.640  0.8103 -1.5198  2.7296
   92SAPS  H18Z 9076   6.213   2.229   8.714  2.4501 -0.3153  0.6776
   93SAPS     N 9077   6.730   1.030   6.487 -0.0267  0.6631 -0.0877
   93SAPS   HN1 9078   6.779   0.987   6.569 -0.6709 -2.1853 -1.0664
   93SAPS   HN2 9079   6.796   1.097   6.442  0.1387  0.6316  0.1066
   93SAPS   HN3 9080   6.659   1.092   6.530 -0.4204 -0.3404  0.7605
   93SAPS   C12 9081   6.675   0.925   6.403  0.6421 -0.0291 -0.5139
   93SAPS  H12A 9082   6.625   0.966   6.317  1.3833  0.7196 -0.5993
   93SAPS   C13 9083   6.775   0.821   6.360  0.1934 -0.4309 -0.6433
   93SAPS  O13A 9084   6.891   0.825   6.414 -0.1266  0.0304 -0.4371
   93SAPS  O13B 9085   6.748   0.742   6.267  0.0937 -0.1466  0.8524
   93SAPS   C11 9086   6.575   0.839   6.481  0.1398  0.4359 -0.3881
   93SAPS  H11A 9087   6.609   0.816   6.584 -2.4385  2.2922  0.9753
   93SAPS  H11B 9088   6.553   0.748   6.422  0.3444 -0.7747  1.3233
   93SAPS     P 9089   6.329   0.877   6.567  0.1045 -0.5981 -0.1739
   93SAPS   O13 9090   6.237   0.996   6.584 -0.2744  0.2724 -0.4262
   93SAPS   O14 9091   6.267   0.751   6.509 -0.0737 -0.5857  0.4905
   93SAPS   O12 9092   6.461   0.920   6.491  0.1703 -0.6225  0.0864
   93SAPS   O11 9093   6.387   0.850   6.703 -0.1057  0.2045 -0.3847
   93SAPS    C1 9094   6.309   0.825   6.819  0.8122  0.3200 -0.3994
   93SAPS    HA 9095   6.262   0.921   6.850 -0.2617  0.0340 -1.1022
   93SAPS    HB 9096   6.234   0.745   6.804  1.5393 -0.1494 -1.6841
   93SAPS    C2 9097   6.400   0.787   6.939 -0.2866  0.3734 -0.5869
   93SAPS    HS 9098   6.444   0.690   6.909  4.6488  2.3497 -0.6787
   93SAPS   O21 9099   6.329   0.787   7.065  0.4892 -0.1395  0.3397
   93SAPS   C21 9100   6.358   0.682   7.138  0.1330 -0.3150  0.1196
   93SAPS   O22 9101   6.444   0.599   7.115 -0.0489 -0.6445 -0.0336
   93SAPS   C22 9102   6.254   0.681   7.256  0.2607  0.0635  0.3188
   93SAPS   H2R 9103   6.251   0.781   7.305  1.9216 -0.1473  0.9162
   93SAPS   H2S 9104   6.151   0.667   7.218  0.1427  0.8450  0.3193
   93SAPS    C3 9105   6.520   0.887   6.948 -0.2594  0.3136 -0.4092
   93SAPS    HX 9106   6.486   0.992   6.938 -3.2792 -0.4998  0.3011
   93SAPS    HY 9107   6.579   0.853   6.860 -1.1701 -0.6695 -0.6618
   93SAPS   O31 9108   6.586   0.884   7.077  0.4391 -0.0391 -0.1978
   93SAPS   C31 9109   6.714   0.908   7.084 -0.5659 -0.4318  0.0478
   93SAPS   O32 9110   6.783   0.944   6.988  0.2797 -0.5132 -0.1383
   93SAPS   C32 9111   6.769   0.873   7.222 -0.7069  0.0543  0.0660
   93SAPS   H2X 9112   6.796   0.765   7.228  1.2642  0.4902 -0.2425
   93SAPS   H2Y 9113   6.678   0.880   7.286 -0.4445  2.6091  0.2633
   93SAPS   C23 9114   6.273   0.570   7.369 -0.1515  0.6280  0.4375
   93SAPS   H3R 9115   6.353   0.609   7.435 -0.5366  1.2796  0.5319
   93SAPS   H3S 9116   6.321   0.482   7.322  0.0385  0.7334  0.4334
   93SAPS   C24 9117   6.152   0.532   7.458 -0.1260  1.0590 -0.1065
   93SAPS   H4R 9118   6.175   0.453   7.533  0.6640  1.5363  0.1614
   93SAPS   H4S 9119   6.087   0.480   7.385 -0.9770  1.6822  0.1917
   93SAPS   C25 9120   6.071   0.646   7.510 -0.0845  0.0446 -0.5180
   93SAPS   H5R 9121   5.976   0.667   7.460 -1.4989 -0.8881  1.6537
   93SAPS   C26 9122   6.103   0.725   7.614  0.0152  0.1986  0.2818
   93SAPS   H6R 9123   6.048   0.818   7.632 -1.3902 -0.3559 -0.9833
   93SAPS   C27 9124   6.220   0.712   7.706  0.8553  0.0764 -0.3215
   93SAPS   H7R 9125   6.282   0.804   7.715 -0.0896  0.6184  1.0824
   93SAPS   H7S 9126   6.292   0.633   7.675 -2.2774 -2.6471 -1.3285
   93SAPS   C28 9127   6.180   0.678   7.846  0.5664 -0.3950  0.5294
   93SAPS   H8R 9128   6.087   0.724   7.883  1.7448  2.8908 -0.1993
   93SAPS   C29 9129   6.234   0.603   7.939  0.3420 -0.2634  0.3120
   93SAPS   H9R 9130   6.187   0.611   8.038 -2.2472 -1.3280 -0.7306
   93SAPS  C210 9131   6.362   0.522   7.927  0.4616  0.4088  0.4418
   93SAPS  H10R 9132   6.374   0.504   7.819 -1.9802 -1.5778  0.4202
   93SAPS  H10S 9133   6.351   0.418   7.965  0.1700 -0.1626 -1.1551
   93SAPS  C211 9134   6.487   0.587   7.982 -0.1773  0.9256  0.4274
   93SAPS  H11R 9135   6.511   0.674   7.919  0.8232 -1.2006 -2.3545
   93SAPS  C212 9136   6.571   0.545   8.075 -0.2766 -0.2962 -0.1015
   93SAPS  H12R 9137   6.664   0.597   8.103 -1.1245 -0.4378  3.6060
   93SAPS  C213 9138   6.543   0.419   8.160 -0.3767  0.0964 -0.0534
   93SAPS  H13R 9139   6.640   0.396   8.209 -0.4324 -0.6421 -0.2706
   93SAPS  H13S 9140   6.519   0.334   8.093 -0.1059  0.3595 -0.4863
   93SAPS  C214 9141   6.433   0.433   8.260 -0.9755  0.3716 -0.3717
   93SAPS  H14R 9142   6.333   0.432   8.214 -1.7256  0.7183  1.1948
   93SAPS  C215 9143   6.450   0.446   8.395  0.7420 -1.0827 -0.0280
   93SAPS  H15R 9144   6.367   0.460   8.465  1.1425  1.2294  0.0586
   93SAPS  C216 9145   6.579   0.453   8.475  0.4999  0.5282 -0.0666
   93SAPS  H16R 9146   6.576   0.537   8.547  2.1480  1.8532 -1.4660
   93SAPS  H16S 9147   6.662   0.492   8.412  0.8580  1.9619  1.2278
   93SAPS  C217 9148   6.620   0.314   8.529  1.0349 -0.4278 -0.1780
   93SAPS  H17R 9149   6.709   0.314   8.595  0.6363 -1.5667  0.4065
   93SAPS  H17S 9150   6.651   0.256   8.439  0.9181 -1.4169  0.3941
   93SAPS  C218 9151   6.511   0.238   8.604 -0.0085  0.1572  0.0108
   93SAPS  H18R 9152   6.431   0.204   8.535  1.8935 -2.6860 -0.9936
   93SAPS  H18S 9153   6.464   0.303   8.680 -0.9220 -0.1800 -0.2452
   93SAPS  C219 9154   6.576   0.112   8.665  0.3227  0.2441  0.7300
   93SAPS  H19R 9155   6.512   0.072   8.747 -0.1301  0.1215  0.3273
   93SAPS  H19S 9156   6.669   0.139   8.719  0.0565  1.0695  0.7877
   93SAPS  C220 9157   6.603  -0.010   8.567  0.2047 -0.2916 -0.2414
   93SAPS  H20R 9158   6.651  -0.092   8.624  1.7614  0.7489  0.0101
   93SAPS  H20S 9159   6.665   0.022   8.480  0.5061 -3.0622 -1.1288
   93SAPS  H20T 9160   6.502  -0.034   8.526 -1.1930  4.0932  0.0371
   93SAPS   C33 9161   6.882   0.970   7.256 -0.0931  0.3079  0.2648
   93SAPS   H3X 9162   6.949   0.989   7.169  3.1259 -1.4699  2.1619
   93SAPS   H3Y 9163   6.932   0.933   7.348  1.5214  2.3833  0.3016
   93SAPS   C34 9164   6.838   1.113   7.300  0.6524  0.1529 -0.9664
   93SAPS   H4X 9165   6.787   1.109   7.399  0.0498 -1.0628 -1.3112
   93SAPS   H4Y 9166   6.756   1.138   7.230 -0.5453 -0.5223  0.1472
   93SAPS   C35 9167   6.951   1.215   7.307  0.6452  0.7874 -0.9796
   93SAPS   H5X 9168   6.988   1.233   7.203  0.0182 -1.4974 -1.6490
   93SAPS   H5Y 9169   7.035   1.164   7.359 -1.3656 -1.5836  0.1283
   93SAPS   C36 9170   6.928   1.353   7.372  0.0798  0.1032 -0.6010
   93SAPS   H6X 9171   6.849   1.402   7.313  0.0758  0.4038 -0.3486
   93SAPS   H6Y 9172   7.019   1.414   7.354  0.8754 -1.0991 -0.7928
   93SAPS   C37 9173   6.894   1.348   7.526  0.6136  0.1093  0.4230
   93SAPS   H7X 9174   6.969   1.275   7.563  0.0897 -0.7841 -0.2267
   93SAPS   H7Y 9175   6.790   1.311   7.531  0.9870 -1.1787 -0.7487
   93SAPS   C38 9176   6.911   1.482   7.609 -0.3132 -0.0641 -0.4504
   93SAPS   H8X 9177   6.835   1.552   7.569  0.2501 -0.1345 -1.6923
   93SAPS   H8Y 9178   7.014   1.521   7.594 -0.5674  3.1546  4.1477
   93SAPS   C39 9179   6.877   1.479   7.760 -0.6891 -0.3952  0.6317
   93SAPS   H9X 9180   6.937   1.401   7.809 -0.2968  0.5414  1.6623
   93SAPS   H9Y 9181   6.770   1.448   7.768 -0.9599  0.4954  0.6222
   93SAPS  C310 9182   6.901   1.613   7.828  0.2624 -0.1152 -0.1714
   93SAPS  H10X 9183   6.820   1.686   7.804 -0.0642 -0.3583  0.1903
   93SAPS  H10Y 9184   6.997   1.654   7.790 -0.5810 -0.0165 -2.3133
   93SAPS  C311 9185   6.930   1.618   7.980 -0.3472  0.0423 -0.6187
   93SAPS  H11X 9186   7.010   1.544   8.000  0.2827  0.4223 -1.6419
   93SAPS  H11Y 9187   6.839   1.586   8.035  1.1234 -1.4955  1.0407
   93SAPS  C312 9188   6.975   1.759   8.029  0.3352  0.3488 -0.6560
   93SAPS  H12X 9189   6.887   1.825   8.018 -0.8745 -0.2216  3.5864
   93SAPS  H12Y 9190   7.056   1.805   7.969 -0.3722  0.7266 -1.3389
   93SAPS  C313 9191   7.007   1.770   8.183 -0.3532 -0.5312  1.0839
   93SAPS  H13X 9192   7.033   1.876   8.203 -2.0464  0.3712 -1.0719
   93SAPS  H13Y 9193   7.096   1.707   8.206  0.4938  0.1636 -0.1691
   93SAPS  C314 9194   6.896   1.735   8.280 -0.2014  0.1079  0.5260
   93SAPS  H14X 9195   6.892   1.627   8.304 -2.0483  0.1607  0.5923
   93SAPS  H14Y 9196   6.798   1.752   8.230  0.4647 -0.1716 -0.8972
   93SAPS  C315 9197   6.906   1.816   8.406 -1.0537  0.2511  0.2126
   93SAPS  H15X 9198   6.929   1.924   8.394 -0.5285  0.2721  1.3106
   93SAPS  H15Y 9199   6.997   1.786   8.461 -1.4143 -0.1682  0.5889
   93SAPS  C316 9200   6.787   1.802   8.497  0.0387  0.2344 -0.7395
   93SAPS  H16X 9201   6.772   1.701   8.542 -0.4004  0.4857 -0.3121
   93SAPS  H16Y 9202   6.695   1.811   8.434 -0.1164 -2.4336 -1.0235
   93SAPS  C317 9203   6.781   1.904   8.614 -0.5286 -0.3014  0.5544
   93SAPS  H17X 9204   6.756   2.005   8.573 -0.3527  0.0320  1.2627
   93SAPS  H17Y 9205   6.883   1.905   8.657 -0.2103  3.0513  0.0057
   93SAPS  C318 9206   6.667   1.856   8.707 -0.2490 -0.5291  0.0469
   93SAPS  H18X 9207   6.708   1.759   8.743 -0.7690 -0.7091  0.1605
   93SAPS  H18Y 9208   6.580   1.837   8.641 -0.9938  2.4590  0.0099
   93SAPS  H18Z 9209   6.644   1.920   8.795 -1.0604  0.3300 -0.7628
   94SAPS     N 9210   5.939   4.002   6.094  0.1782 -0.1245  0.2262
   94SAPS   HN1 9211   5.852   3.954   6.124 -0.3224  1.5843  1.6741
   94SAPS   HN2 9212   6.002   4.032   6.171  0.8766 -2.0222  0.4482
   94SAPS   HN3 9213   5.901   4.085   6.043 -0.9850 -0.6942  0.1247
   94SAPS   C12 9214   6.008   3.925   5.987  0.3325 -0.6231 -0.5504
   94SAPS  H12A 9215   5.936   3.909   5.908 -0.7372 -0.3354  0.3555
   94SAPS   C13 9216   6.126   4.004   5.926  0.1803 -0.3440 -0.3321
   94SAPS  O13A 9217   6.162   4.112   5.984  0.0441  0.1128 -0.0140
   94SAPS  O13B 9218   6.207   3.940   5.850  0.0150 -0.3347 -0.4633
   94SAPS   C11 9219   6.052   3.781   6.033 -0.1645  0.3356 -0.2326
   94SAPS  H11A 9220   6.142   3.776   6.097 -0.3318 -1.2978 -0.0790
   94SAPS  H11B 9221   6.081   3.735   5.936  2.4353  0.9284  0.1902
   94SAPS     P 9222   5.946   3.544   6.079 -0.5243  0.3252 -0.2828
   94SAPS   O13 9223   5.969   3.505   5.941  0.8793  0.1405  0.6252
   94SAPS   O14 9224   6.039   3.497   6.181 -0.1132  0.2660 -0.4249
   94SAPS   O12 9225   5.954   3.703   6.093 -0.5604 -0.0340 -0.2597
   94SAPS   O11 9226   5.796   3.507   6.121  0.0965 -0.3100 -0.4005
   94SAPS    C1 9227   5.709   3.599   6.181  0.2411 -0.6325 -0.4668
   94SAPS    HA 9228   5.733   3.705   6.157  0.1664 -0.0958  1.6180
   94SAPS    HB 9229   5.610   3.571   6.139  0.5658 -1.6969 -0.5562
   94SAPS    C2 9230   5.709   3.582   6.335 -0.3263  0.3274  0.2161
   94SAPS    HS 9231   5.625   3.651   6.358  1.4212  2.4542  0.5286
   94SAPS   O21 9232   5.825   3.625   6.396 -0.3136 -0.4989 -0.3464
   94SAPS   C21 9233   5.846   3.757   6.394  0.1599  0.3658 -0.4724
   94SAPS   O22 9234   5.767   3.848   6.366 -0.5225  0.1398  0.1548
   94SAPS   C22 9235   5.989   3.784   6.442 -0.0483 -0.7640 -0.1762
   94SAPS   H2R 9236   6.060   3.734   6.373  0.3047 -0.2244 -0.2045
   94SAPS   H2S 9237   6.008   3.893   6.446  1.4098 -0.8760 -2.3769
   94SAPS    C3 9238   5.686   3.432   6.366 -0.3191 -0.2941  0.0823
   94SAPS    HX 9239   5.750   3.361   6.309  0.6260  0.8149 -0.2532
   94SAPS    HY 9240   5.583   3.402   6.334  0.5104 -0.8582 -2.3081
   94SAPS   O31 9241   5.682   3.398   6.507 -0.2935  0.3639 -0.1131
   94SAPS   C31 9242   5.803   3.359   6.553 -0.5785  0.8068  0.3335
   94SAPS   O32 9243   5.903   3.358   6.480  0.5985 -0.2178 -0.6205
   94SAPS   C32 9244   5.807   3.300   6.688  0.3438  0.1172  0.1744
   94SAPS   H2X 9245   5.810   3.190   6.670 -0.5828  0.5254 -3.1494
   94SAPS   H2Y 9246   5.714   3.316   6.747  0.4980  1.0567  0.1760
   94SAPS   C23 9247   6.009   3.738   6.589 -0.2153  0.2301 -0.0275
   94SAPS   H3R 9248   6.113   3.769   6.610 -0.9170  1.1314  2.5414
   94SAPS   H3S 9249   6.009   3.628   6.604  0.9599  0.1963 -0.2344
   94SAPS   C24 9250   5.910   3.813   6.686  1.0556 -0.3818  0.7229
   94SAPS   H4R 9251   5.805   3.805   6.649  0.1661  1.8386  2.4967
   94SAPS   H4S 9252   5.933   3.922   6.685  1.5825 -0.4906  0.8505
   94SAPS   C25 9253   5.918   3.760   6.824 -0.8274  0.2107  0.3757
   94SAPS   H5R 9254   6.020   3.736   6.858 -0.9565 -1.1711 -0.1433
   94SAPS   C26 9255   5.819   3.723   6.906  0.2006  0.4715  0.0987
   94SAPS   H6R 9256   5.842   3.692   7.009 -2.8101 -1.1331  0.4180
   94SAPS   C27 9257   5.672   3.732   6.869 -0.5959  0.4632  0.0443
   94SAPS   H7R 9258   5.652   3.809   6.791  0.6131 -0.6460 -1.3890
   94SAPS   H7S 9259   5.607   3.773   6.950 -1.1559 -1.1861  0.4702
   94SAPS   C28 9260   5.625   3.593   6.840 -0.1248  0.4315 -1.5879
   94SAPS   H8R 9261   5.660   3.536   6.753  2.2297  0.9192 -1.0340
   94SAPS   C29 9262   5.543   3.524   6.920 -0.2538  0.7566 -0.4656
   94SAPS   H9R 9263   5.523   3.421   6.886 -0.7249  0.4443  0.7150
   94SAPS  C210 9264   5.474   3.569   7.050  0.1910  0.3088 -0.4261
   94SAPS  H10R 9265   5.368   3.540   7.066  0.2604 -0.2591 -0.9862
   94SAPS  H10S 9266   5.456   3.678   7.041 -2.2128  0.0228  0.1062
   94SAPS  C211 9267   5.550   3.548   7.184 -0.8963 -0.5873  0.6001
   94SAPS  H11R 9268   5.641   3.609   7.191 -1.8653  1.1357 -0.9960
   94SAPS  C212 9269   5.508   3.483   7.296 -0.6770 -0.7774 -0.1499
   94SAPS  H12R 9270   5.571   3.489   7.386 -0.5915  1.8154 -0.3081
   94SAPS  C213 9271   5.382   3.420   7.316  0.0994  0.3256  0.0544
   94SAPS  H13R 9272   5.360   3.355   7.229  0.6646 -0.5386  0.5428
   94SAPS  H13S 9273   5.297   3.492   7.317 -0.1725  0.0462  1.9806
   94SAPS  C214 9274   5.373   3.336   7.438 -0.6512  0.4381  0.5794
   94SAPS  H14R 9275   5.377   3.228   7.418  0.6598  0.7341 -0.8794
   94SAPS  C215 9276   5.348   3.375   7.561  0.3356  0.0563  0.4903
   94SAPS  H15R 9277   5.335   3.296   7.637  0.2716  0.4370  0.8841
   94SAPS  C216 9278   5.327   3.522   7.599  0.4187  0.0391 -0.8311
   94SAPS  H16R 9279   5.222   3.545   7.629  0.9684  0.1672  1.1282
   94SAPS  H16S 9280   5.368   3.588   7.520  2.0904 -0.4020 -0.3638
   94SAPS  C217 9281   5.410   3.569   7.725  0.7492 -0.0391  0.2673
   94SAPS  H17R 9282   5.378   3.674   7.743 -1.6368 -0.9451  1.8750
   94SAPS  H17S 9283   5.517   3.564   7.697  0.5113  1.4763 -1.0197
   94SAPS  C218 9284   5.385   3.487   7.850  0.6644  0.5567  0.5586
   94SAPS  H18R 9285   5.449   3.396   7.844 -0.6359 -0.3389 -0.2175
   94SAPS  H18S 9286   5.282   3.446   7.843  1.4375 -1.1978 -2.2738
   94SAPS  C219 9287   5.414   3.560   7.980  0.0630  0.3552 -0.5670
   94SAPS  H19R 9288   5.385   3.491   8.062 -1.1720  0.2459 -1.0756
   94SAPS  H19S 9289   5.339   3.642   7.988 -2.9922 -2.1611 -1.4643
   94SAPS  C220 9290   5.562   3.585   8.001 -0.0656  0.4755  0.3200
   94SAPS  H20R 9291   5.575   3.636   8.099 -1.8483 -0.8363  1.2985
   94SAPS  H20S 9292   5.593   3.655   7.921  0.5086 -0.3871 -0.2324
   94SAPS  H20T 9293   5.622   3.491   8.001  0.6889  0.9154 -1.4645
   94SAPS   C33 9294   5.937   3.335   6.755  0.3100 -1.1445 -0.2899
   94SAPS   H3X 9295   5.933   3.444   6.775 -1.4583 -1.3068  0.4641
   94SAPS   H3Y 9296   6.021   3.313   6.686 -0.5945 -1.7438 -1.2281
   94SAPS   C34 9297   5.967   3.275   6.890 -0.1215  0.2567  0.1747
   94SAPS   H4X 9298   6.067   3.305   6.929  0.3156  0.6076 -1.1644
   94SAPS   H4Y 9299   5.958   3.164   6.891 -0.8469  0.3123  0.3765
   94SAPS   C35 9300   5.887   3.330   7.005 -0.1923  0.0121  0.2874
   94SAPS   H5X 9301   5.783   3.289   7.002 -0.2706 -0.0620  2.3024
   94SAPS   H5Y 9302   5.871   3.439   6.992 -1.6165 -0.1736  0.2571
   94SAPS   C36 9303   5.944   3.315   7.139  0.3340  0.1081 -0.0899
   94SAPS   H6X 9304   6.028   3.387   7.148  0.0143  0.5928 -0.8335
   94SAPS   H6Y 9305   5.983   3.212   7.155 -1.4632 -0.4609  0.8926
   94SAPS   C37 9306   5.842   3.327   7.250  1.0401 -0.5012 -0.8209
   94SAPS   H7X 9307   5.768   3.245   7.246  0.2876  0.2180 -3.5304
   94SAPS   H7Y 9308   5.795   3.428   7.246 -2.0493 -1.7448  0.8549
   94SAPS   C38 9309   5.905   3.324   7.395  0.3252 -0.5145  0.6524
   94SAPS   H8X 9310   6.000   3.379   7.414  0.0536  0.0369  0.4543
   94SAPS   H8Y 9311   5.935   3.217   7.401  1.8525 -0.2872 -1.5394
   94SAPS   C39 9312   5.813   3.368   7.517 -0.3219 -0.3181 -0.0396
   94SAPS   H9X 9313   5.732   3.293   7.526 -0.1794 -0.2612  2.4921
   94SAPS   H9Y 9314   5.772   3.468   7.490  2.8003  0.6631 -1.6237
   94SAPS  C310 9315   5.888   3.374   7.649  0.0161 -0.1123 -0.3892
   94SAPS  H10X 9316   5.962   3.456   7.642 -2.6156  2.4686  0.1131
   94SAPS  H10Y 9317   5.940   3.276   7.645 -0.1738 -0.2180 -0.3078
   94SAPS  C311 9318   5.804   3.383   7.775 -0.2738 -0.0197  0.1333
   94SAPS  H11X 9319   5.716   3.315   7.772 -0.8932  0.6984  1.0986
   94SAPS  H11Y 9320   5.760   3.484   7.786  1.4863  0.5601  2.7876
   94SAPS  C312 9321   5.871   3.346   7.903 -0.5303 -0.2898 -1.0713
   94SAPS  H12X 9322   5.900   3.239   7.910  0.4495  0.0086 -0.3342
   94SAPS  H12Y 9323   5.797   3.372   7.982  1.6779  0.9803  0.6895
   94SAPS  C313 9324   5.988   3.443   7.932 -0.3249  0.2670 -0.7068
   94SAPS  H13X 9325   5.951   3.547   7.944  1.3182  0.8914 -0.6996
   94SAPS  H13Y 9326   6.057   3.454   7.845  0.9411  2.3729  0.4743
   94SAPS  C314 9327   6.070   3.404   8.064 -0.0301 -0.0117  0.0228
   94SAPS  H14X 9328   6.085   3.294   8.062  0.3126 -0.0186  1.8085
   94SAPS  H14Y 9329   5.996   3.414   8.147  1.0497 -1.4419  1.2057
   94SAPS  C315 9330   6.185   3.491   8.080  0.3052 -0.2673  0.4208
   94SAPS  H15X 9331   6.175   3.595   8.041  2.7442 -0.4582 -0.9190
   94SAPS  H15Y 9332   6.270   3.450   8.022  1.2103  0.8438  0.9378
   94SAPS  C316 9333   6.224   3.508   8.227 -0.5586  0.6684 -0.6364
   94SAPS  H16X 9334   6.144   3.520   8.303 -0.4558 -3.5686  0.4155
   94SAPS  H16Y 9335   6.284   3.601   8.235  0.9327 -0.3756  1.7544
   94SAPS  C317 9336   6.316   3.394   8.281 -0.2462  0.0502  0.0906
   94SAPS  H17X 9337   6.268   3.302   8.242 -0.9904  1.4047 -2.4531
   94SAPS  H17Y 9338   6.309   3.394   8.392 -2.4353  1.5399  0.0347
   94SAPS  C318 9339   6.465   3.402   8.242 -0.2040 -0.0482  0.7349
   94SAPS  H18X 9340   6.470   3.417   8.132  0.0163  0.4388  0.8099
   94SAPS  H18Y 9341   6.510   3.310   8.286  0.1562 -0.7487 -1.0169
   94SAPS  H18Z 9342   6.517   3.491   8.283  0.7157 -0.4724  0.5023
   95SAPS     N 9343   3.093   2.119   6.014 -0.1809  0.4780 -0.0313
   95SAPS   HN1 9344   3.068   2.076   5.922 -4.2233  2.4790 -0.0939
   95SAPS   HN2 9345   3.188   2.160   6.009 -0.0281  0.0458 -1.0184
   95SAPS   HN3 9346   3.099   2.048   6.089 -0.2646  0.7778  0.2586
   95SAPS   C12 9347   3.001   2.224   6.056 -0.5603 -0.2297  0.1428
   95SAPS  H12A 9348   3.014   2.302   5.982  0.7313 -0.7690 -0.2226
   95SAPS   C13 9349   2.851   2.186   6.043 -0.5481 -0.4280  0.2392
   95SAPS  O13A 9350   2.819   2.073   6.005 -0.2600  0.3837 -0.1523
   95SAPS  O13B 9351   2.758   2.263   6.085 -0.2199  0.2336 -0.7386
   95SAPS   C11 9352   3.038   2.286   6.192  0.1581  0.0634 -0.2084
   95SAPS  H11A 9353   3.045   2.209   6.271  0.5422  1.1737  0.8701
   95SAPS  H11B 9354   2.951   2.349   6.220 -0.2868 -0.0394 -1.3178
   95SAPS     P 9355   3.185   2.468   6.290 -0.1361 -0.1113 -0.1308
   95SAPS   O13 9356   3.326   2.512   6.318 -0.0338  0.2351  0.1202
   95SAPS   O14 9357   3.110   2.580   6.228  0.0101 -0.3216  0.0580
   95SAPS   O12 9358   3.172   2.347   6.187  0.0564  0.6897 -0.1233
   95SAPS   O11 9359   3.111   2.414   6.423 -0.2712  0.2086  0.2230
   95SAPS    C1 9360   3.021   2.501   6.490 -0.3486 -0.6985  0.6303
   95SAPS    HA 9361   3.076   2.591   6.524 -0.0840 -0.5413 -0.1916
   95SAPS    HB 9362   2.937   2.529   6.424 -1.5313 -1.8535  1.5951
   95SAPS    C2 9363   2.971   2.440   6.622 -0.4516 -1.0730  0.4399
   95SAPS    HS 9364   2.931   2.515   6.693 -1.6636  1.7489 -2.9569
   95SAPS   O21 9365   3.076   2.374   6.691 -0.3882  0.0359 -0.2506
   95SAPS   C21 9366   3.125   2.414   6.804  0.1387  0.2511  0.2364
   95SAPS   O22 9367   3.099   2.522   6.857  0.2869  0.2453 -0.6138
   95SAPS   C22 9368   3.225   2.315   6.863 -0.5899  0.7950  0.2312
   95SAPS   H2R 9369   3.269   2.251   6.784  0.0342  0.6706  0.6720
   95SAPS   H2S 9370   3.300   2.363   6.930 -0.6664 -1.1166  1.7702
   95SAPS    C3 9371   2.846   2.340   6.598 -0.4581 -0.4693 -0.1560
   95SAPS    HX 9372   2.881   2.251   6.542 -2.9529 -2.9054  1.8763
   95SAPS    HY 9373   2.763   2.380   6.537 -1.5552 -0.1019  1.5032
   95SAPS   O31 9374   2.796   2.296   6.730 -0.5377  0.1024  0.4178
   95SAPS   C31 9375   2.728   2.182   6.739  0.7655 -0.3225 -0.5309
   95SAPS   O32 9376   2.708   2.102   6.650 -0.0829 -0.2515  0.2545
   95SAPS   C32 9377   2.702   2.166   6.892 -0.1742 -1.1001 -0.5247
   95SAPS   H2X 9378   2.592   2.161   6.897 -0.1494 -0.7165  1.1982
   95SAPS   H2Y 9379   2.732   2.259   6.945 -0.3464  0.2623 -2.7054
   95SAPS   C23 9380   3.145   2.219   6.963 -0.2439  0.7244 -0.3931
   95SAPS   H3R 9381   3.092   2.133   6.916  2.3295 -2.3607  1.9035
   95SAPS   H3S 9382   3.072   2.280   7.021  1.2088  1.5133  0.6526
   95SAPS   C24 9383   3.235   2.155   7.068  0.9823  0.5681 -0.5946
   95SAPS   H4R 9384   3.287   2.229   7.133  1.4544 -1.5253  1.5555
   95SAPS   H4S 9385   3.321   2.116   7.010 -0.1356 -0.3004 -1.7258
   95SAPS   C25 9386   3.164   2.053   7.153  0.2592  0.2160  0.6192
   95SAPS   H5R 9387   3.081   1.997   7.109  0.9623  0.4461 -1.0532
   95SAPS   C26 9388   3.193   2.021   7.284 -0.2386 -0.1233 -0.1347
   95SAPS   H6R 9389   3.159   1.924   7.324 -2.1555  0.5940  0.0956
   95SAPS   C27 9390   3.298   2.081   7.368 -0.4218 -0.5249 -0.2789
   95SAPS   H7R 9391   3.247   2.113   7.461  1.3965 -3.3690  1.8850
   95SAPS   H7S 9392   3.351   2.158   7.308  2.4743 -2.5049 -0.4775
   95SAPS   C28 9393   3.404   1.984   7.416  0.1235  0.1922  0.0416
   95SAPS   H8R 9394   3.450   1.918   7.340 -0.8131  0.5055 -0.8179
   95SAPS   C29 9395   3.444   1.967   7.545  0.1139 -0.2512 -0.8476
   95SAPS   H9R 9396   3.526   1.896   7.561 -0.7161 -0.7830  1.3256
   95SAPS  C210 9397   3.393   2.043   7.669 -0.2852 -0.1710 -0.5058
   95SAPS  H10R 9398   3.284   2.024   7.683 -0.1334 -0.7320 -0.0590
   95SAPS  H10S 9399   3.405   2.153   7.661 -1.0330  0.0140  0.6359
   95SAPS  C211 9400   3.469   2.003   7.792 -0.2015  0.2049 -0.8933
   95SAPS  H11R 9401   3.569   2.048   7.796 -0.2130  0.1458  1.6555
   95SAPS  C212 9402   3.426   1.949   7.907 -0.2259  0.1424  0.6184
   95SAPS  H12R 9403   3.508   1.932   7.979  0.1248 -0.6250  0.0390
   95SAPS  C213 9404   3.286   1.907   7.953  0.4755  0.3866  0.2038
   95SAPS  H13R 9405   3.266   1.799   7.973  0.1859  0.2965 -0.5306
   95SAPS  H13S 9406   3.201   1.935   7.886  0.1512  0.0769  0.4780
   95SAPS  C214 9407   3.254   1.975   8.088  0.5035 -0.4180 -0.3848
   95SAPS  H14R 9408   3.175   2.052   8.092  1.4188  0.5109  0.2973
   95SAPS  C215 9409   3.306   1.942   8.199 -0.7198 -0.2870  0.1765
   95SAPS  H15R 9410   3.281   2.001   8.288  1.1548  0.6342  0.1472
   95SAPS  C216 9411   3.407   1.830   8.217 -0.4209  0.4620 -0.8363
   95SAPS  H16R 9412   3.514   1.858   8.205 -0.7211  2.3827  0.6991
   95SAPS  H16S 9413   3.395   1.740   8.152 -1.3150  0.2565 -0.3971
   95SAPS  C217 9414   3.400   1.777   8.354 -0.6308  0.1205 -1.0107
   95SAPS  H17R 9415   3.299   1.737   8.380 -1.1717  0.8148 -1.9556
   95SAPS  H17S 9416   3.426   1.855   8.429  0.4607 -0.4485 -0.7890
   95SAPS  C218 9417   3.510   1.670   8.372 -0.4679  0.4933 -0.3242
   95SAPS  H18R 9418   3.607   1.723   8.358 -0.5733  1.0313  0.8386
   95SAPS  H18S 9419   3.489   1.599   8.290 -2.8199 -0.6192  1.1610
   95SAPS  C219 9420   3.520   1.606   8.509 -0.2455  0.1960  0.3389
   95SAPS  H19R 9421   3.440   1.531   8.524 -1.1732  0.5934 -2.2470
   95SAPS  H19S 9422   3.510   1.686   8.586  1.7627  1.8153 -0.9869
   95SAPS  C220 9423   3.654   1.534   8.527  0.0528 -0.2839 -0.3374
   95SAPS  H20R 9424   3.678   1.542   8.635  0.6205 -0.4504 -0.4502
   95SAPS  H20S 9425   3.731   1.591   8.471  0.8276 -0.2656  0.7293
   95SAPS  H20T 9426   3.652   1.427   8.497  0.9234 -0.1943 -0.7483
   95SAPS   C33 9427   2.760   2.036   6.946  0.8513  0.2336  0.6248
   95SAPS   H3X 9428   2.869   2.054   6.954  1.1575 -0.8103 -0.8124
   95SAPS   H3Y 9429   2.749   1.961   6.865  0.7657  2.7236 -1.7796
   95SAPS   C34 9430   2.702   1.993   7.078 -0.3293  0.4533 -0.1656
   95SAPS   H4X 9431   2.756   1.899   7.104 -0.9988 -0.8724 -3.1168
   95SAPS   H4Y 9432   2.590   1.993   7.081 -0.3219  0.9345  1.8109
   95SAPS   C35 9433   2.745   2.085   7.192  0.1064 -0.3080 -0.8381
   95SAPS   H5X 9434   2.703   2.187   7.173 -2.7345 -1.1141  0.4885
   95SAPS   H5Y 9435   2.854   2.093   7.206  0.0454  1.8793 -1.2554
   95SAPS   C36 9436   2.680   2.037   7.327  0.0791 -0.1338  0.4743
   95SAPS   H6X 9437   2.583   1.988   7.302 -0.0584  0.5624 -0.4425
   95SAPS   H6Y 9438   2.651   2.130   7.382 -0.2110  0.9946 -1.4926
   95SAPS   C37 9439   2.771   1.953   7.419  0.2510 -0.1536  0.7152
   95SAPS   H7X 9440   2.856   2.018   7.447  0.9406 -0.3743 -0.7744
   95SAPS   H7Y 9441   2.797   1.862   7.362 -1.2572 -0.5371  0.5807
   95SAPS   C38 9442   2.714   1.916   7.560 -0.3089 -0.1556 -0.4476
   95SAPS   H8X 9443   2.633   1.842   7.542  0.9674 -1.7385 -0.0144
   95SAPS   H8Y 9444   2.668   2.009   7.598  0.1267  0.4093 -1.2778
   95SAPS   C39 9445   2.813   1.859   7.658  0.1619  0.5351  0.3032
   95SAPS   H9X 9446   2.910   1.913   7.661  0.1893  0.6923 -1.8382
   95SAPS   H9Y 9447   2.851   1.758   7.628 -0.1505 -0.6505  3.5619
   95SAPS  C310 9448   2.750   1.844   7.799 -0.3768  0.3272 -0.3279
   95SAPS  H10X 9449   2.674   1.764   7.812  0.5227 -0.4964  0.0615
   95SAPS  H10Y 9450   2.706   1.944   7.820 -1.6347 -0.7362  2.6857
   95SAPS  C311 9451   2.848   1.828   7.920 -0.0906  0.1940 -0.6155
   95SAPS  H11X 9452   2.937   1.894   7.921  0.0968 -0.0434  0.9506
   95SAPS  H11Y 9453   2.883   1.722   7.920 -0.0542  0.1886  1.1210
   95SAPS  C312 9454   2.782   1.864   8.054  0.1854 -0.3120 -0.9610
   95SAPS  H12X 9455   2.695   1.798   8.077  0.5313 -0.3113  0.4730
   95SAPS  H12Y 9456   2.751   1.971   8.054  0.5115 -0.1700  1.3861
   95SAPS  C313 9457   2.875   1.847   8.171 -0.6701  0.8354  0.3789
   95SAPS  H13X 9458   2.962   1.915   8.164 -0.4217  0.4735 -0.0424
   95SAPS  H13Y 9459   2.907   1.741   8.174 -1.4459  0.5991  0.6366
   95SAPS  C314 9460   2.811   1.866   8.310  0.1275  0.4123 -0.2502
   95SAPS  H14X 9461   2.722   1.800   8.317 -0.1338  0.8437  0.7773
   95SAPS  H14Y 9462   2.771   1.970   8.313 -0.3859  0.2173 -0.2040
   95SAPS  C315 9463   2.903   1.835   8.434  0.0061  0.4285 -0.5956
   95SAPS  H15X 9464   2.965   1.745   8.415  0.1511  0.7703 -1.8573
   95SAPS  H15Y 9465   2.840   1.808   8.521  2.7952 -0.6661  1.2013
   95SAPS  C316 9466   2.990   1.953   8.459  0.1979  0.1407 -0.2838
   95SAPS  H16X 9467   2.930   2.044   8.484  0.9740  0.7188 -0.4943
   95SAPS  H16Y 9468   3.044   1.986   8.367  1.2947 -2.5819 -0.6898
   95SAPS  C317 9469   3.095   1.917   8.563  0.1513  0.2182 -0.0215
   95SAPS  H17X 9470   3.179   1.853   8.529  0.7073 -0.2219  2.0633
   95SAPS  H17Y 9471   3.045   1.868   8.649 -0.6768 -0.3730 -0.8156
   95SAPS  C318 9472   3.163   2.042   8.608 -0.3677 -0.8563  0.6927
   95SAPS  H18X 9473   3.241   2.013   8.680 -0.1680 -0.9741  0.4330
   95SAPS  H18Y 9474   3.093   2.110   8.660  0.7800  1.0972 -0.2142
   95SAPS  H18Z 9475   3.200   2.095   8.518  0.6192 -1.3804  0.7822
   96SAPS     N 9476   4.210   3.773   6.289  0.3077 -0.4851  0.2749
   96SAPS   HN1 9477   4.235   3.820   6.200 -0.8526 -1.7365 -0.7486
   96SAPS   HN2 9478   4.293   3.752   6.348 -0.3381 -2.5416  0.5405
   96SAPS   HN3 9479   4.168   3.687   6.250  0.7972  0.2701 -2.0376
   96SAPS   C12 9480   4.108   3.853   6.363  0.0035 -0.0919  0.4594
   96SAPS  H12A 9481   4.155   3.938   6.410  0.8251 -0.8253  1.0039
   96SAPS   C13 9482   3.995   3.906   6.273  0.1930  0.3184 -0.3124
   96SAPS  O13A 9483   3.989   3.864   6.154 -0.4190 -0.1821 -0.2640
   96SAPS  O13B 9484   3.898   3.972   6.322  0.1558  0.4402 -1.0073
   96SAPS   C11 9485   4.047   3.763   6.477  0.2435 -0.1671  0.2504
   96SAPS  H11A 9486   3.968   3.815   6.535 -0.6642  0.3377 -1.3440
   96SAPS  H11B 9487   4.128   3.748   6.551 -0.9528  1.9017  2.0973
   96SAPS     P 9488   4.004   3.515   6.502 -0.1428 -0.2582 -0.2970
   96SAPS   O13 9489   3.944   3.403   6.431  0.2899  0.7250  0.5106
   96SAPS   O14 9490   4.143   3.492   6.556  0.4858  0.1671  0.3295
   96SAPS   O12 9491   4.000   3.642   6.413 -0.3789 -0.0570  0.5652
   96SAPS   O11 9492   3.917   3.553   6.622  0.3218  0.3723  0.0160
   96SAPS    C1 9493   3.784   3.600   6.618  0.3899  0.1551  0.4754
   96SAPS    HA 9494   3.777   3.706   6.585 -2.4108  0.1694  0.9239
   96SAPS    HB 9495   3.715   3.539   6.557  1.6190 -1.1565  0.3400
   96SAPS    C2 9496   3.725   3.609   6.761  0.3643  0.1879 -0.1344
   96SAPS    HS 9497   3.626   3.660   6.767  1.4360  2.3280  0.1038
   96SAPS   O21 9498   3.817   3.664   6.855  0.0696  0.1089 -0.1459
   96SAPS   C21 9499   3.832   3.797   6.851  0.2704  0.4004  0.0615
   96SAPS   O22 9500   3.765   3.872   6.787 -0.7253 -0.8211  0.5485
   96SAPS   C22 9501   3.958   3.834   6.932  0.1466  0.0718  0.8578
   96SAPS   H2R 9502   4.007   3.737   6.956 -0.9437 -0.5758  0.5082
   96SAPS   H2S 9503   4.022   3.895   6.864 -0.9946  1.4475  0.9718
   96SAPS    C3 9504   3.709   3.459   6.809  0.0946 -0.9347  0.1429
   96SAPS    HX 9505   3.810   3.413   6.806  0.7172  0.3889 -2.5005
   96SAPS    HY 9506   3.647   3.404   6.736  1.0960 -2.1177  0.1405
   96SAPS   O31 9507   3.656   3.454   6.943 -0.1633  0.2115  0.0271
   96SAPS   C31 9508   3.670   3.335   7.003  0.7646 -0.2891  0.1461
   96SAPS   O32 9509   3.701   3.232   6.944  0.9705  0.3164 -0.1352
   96SAPS   C32 9510   3.638   3.351   7.151 -0.0382  0.1589 -0.8852
   96SAPS   H2X 9511   3.529   3.332   7.159  0.3932 -2.0390  0.8504
   96SAPS   H2Y 9512   3.654   3.455   7.186 -1.8116  0.8957 -2.1132
   96SAPS   C23 9513   3.927   3.912   7.059  1.1679 -0.0873 -0.7124
   96SAPS   H3R 9514   3.858   3.992   7.024  0.6219 -0.4728 -0.5335
   96SAPS   H3S 9515   4.019   3.946   7.111 -0.2401 -0.9694  2.5913
   96SAPS   C24 9516   3.827   3.840   7.147 -0.9555 -0.0053 -0.2856
   96SAPS   H4R 9517   3.724   3.836   7.105 -2.7879 -1.9479  3.7965
   96SAPS   H4S 9518   3.813   3.912   7.231 -3.7778 -0.1300 -0.5297
   96SAPS   C25 9519   3.873   3.705   7.194  0.2906 -0.7637  0.7438
   96SAPS   H5R 9520   3.905   3.637   7.113 -0.2097 -0.4744  0.2952
   96SAPS   C26 9521   3.873   3.662   7.322 -0.2801 -0.5620 -0.3880
   96SAPS   H6R 9522   3.932   3.570   7.338  0.3864 -0.1316 -0.3586
   96SAPS   C27 9523   3.842   3.741   7.441 -0.4825 -0.6652 -0.0639
   96SAPS   H7R 9524   3.796   3.667   7.511 -2.1681  1.0477  0.7434
   96SAPS   H7S 9525   3.767   3.820   7.415  2.3863  1.8182 -1.4152
   96SAPS   C28 9526   3.954   3.820   7.507 -0.4285  0.0610  0.5658
   96SAPS   H8R 9527   3.993   3.889   7.431  0.2162  1.2255  1.9060
   96SAPS   C29 9528   3.997   3.828   7.637  0.5567  0.2583 -0.0503
   96SAPS   H9R 9529   4.074   3.902   7.663 -0.5165  1.4120 -0.0144
   96SAPS  C210 9530   3.931   3.748   7.754  0.1082 -0.0895 -0.2041
   96SAPS  H10R 9531   3.824   3.726   7.731 -0.7005  1.9139  1.3297
   96SAPS  H10S 9532   3.916   3.820   7.837 -0.8852  0.5803 -0.9390
   96SAPS  C211 9533   4.002   3.620   7.786 -0.1737 -0.1368  0.0811
   96SAPS  H11R 9534   4.059   3.565   7.709  0.0783 -0.5267  0.5391
   96SAPS  C212 9535   4.003   3.569   7.911  0.0768 -0.6489 -0.4463
   96SAPS  H12R 9536   4.052   3.471   7.924  0.4961 -0.3984 -0.1192
   96SAPS  C213 9537   3.954   3.623   8.047  0.8431 -0.2762  0.6068
   96SAPS  H13R 9538   3.909   3.724   8.034 -0.5121 -0.7145  1.7253
   96SAPS  H13S 9539   4.039   3.636   8.117  0.5273 -0.5570  1.0421
   96SAPS  C214 9540   3.854   3.551   8.123  0.2084 -0.4264 -0.1499
   96SAPS  H14R 9541   3.775   3.503   8.064 -1.8115  1.9804  0.4310
   96SAPS  C215 9542   3.842   3.548   8.258 -0.3429  0.4788  0.2088
   96SAPS  H15R 9543   3.774   3.480   8.312  2.2413 -0.1548  2.9316
   96SAPS  C216 9544   3.935   3.626   8.350 -0.0448  0.3280 -0.1863
   96SAPS  H16R 9545   3.866   3.685   8.414 -2.1474 -1.1012 -1.0336
   96SAPS  H16S 9546   4.004   3.696   8.298 -1.2357  0.6742 -1.3509
   96SAPS  C217 9547   4.013   3.542   8.453  0.0855 -0.7423 -0.3252
   96SAPS  H17R 9548   4.101   3.595   8.495 -1.4619 -0.0226  2.2401
   96SAPS  H17S 9549   4.055   3.455   8.398  0.5986 -0.0021 -1.1237
   96SAPS  C218 9550   3.915   3.497   8.567 -0.0839 -0.5165  0.3834
   96SAPS  H18R 9551   3.926   3.389   8.589 -1.5821 -0.8642 -0.4044
   96SAPS  H18S 9552   3.812   3.509   8.526  1.1285  0.1611 -2.7607
   96SAPS  C219 9553   3.912   3.577   8.698  0.0488 -0.3051 -0.8027
   96SAPS  H19R 9554   4.011   3.574   8.747 -0.9228  0.7286  1.3803
   96SAPS  H19S 9555   3.839   3.538   8.773  1.0544 -1.0102 -0.1766
   96SAPS  C220 9556   3.886   3.725   8.678  0.1898 -0.0448  0.1131
   96SAPS  H20R 9557   3.783   3.737   8.640 -0.3661 -1.3648  1.1262
   96SAPS  H20S 9558   3.969   3.760   8.612  1.8300 -1.5873  1.2755
   96SAPS  H20T 9559   3.898   3.775   8.777 -2.1840 -1.1334  1.0137
   96SAPS   C33 9560   3.710   3.257   7.243 -0.6466 -0.0122 -0.0227
   96SAPS   H3X 9561   3.818   3.269   7.219 -0.8425  1.4185 -0.2302
   96SAPS   H3Y 9562   3.695   3.148   7.228  2.2931 -0.7855  1.7707
   96SAPS   C34 9563   3.680   3.296   7.389 -0.3211  0.4553 -0.7817
   96SAPS   H4X 9564   3.576   3.264   7.412  0.5560 -2.6291 -0.7523
   96SAPS   H4Y 9565   3.698   3.405   7.398  1.7758  0.0526  0.5693
   96SAPS   C35 9566   3.770   3.214   7.485  0.2535 -0.3472 -0.1890
   96SAPS   H5X 9567   3.877   3.239   7.475  0.4932 -1.4380 -0.4663
   96SAPS   H5Y 9568   3.746   3.106   7.474 -0.1762 -0.5098  1.9676
   96SAPS   C36 9569   3.735   3.234   7.632  0.3165  0.3475  0.8072
   96SAPS   H6X 9570   3.631   3.205   7.656 -0.0261  0.5079 -0.4497
   96SAPS   H6Y 9571   3.754   3.342   7.650 -0.0960  0.5041  0.2918
   96SAPS   C37 9572   3.823   3.168   7.745  0.4597 -0.3314 -0.6520
   96SAPS   H7X 9573   3.925   3.205   7.722  0.7798  0.0962  1.2870
   96SAPS   H7Y 9574   3.820   3.057   7.749  0.8427 -0.3789 -1.5244
   96SAPS   C38 9575   3.775   3.212   7.886  0.2302  0.7930 -0.3331
   96SAPS   H8X 9576   3.664   3.207   7.885  0.2665 -2.1637  0.4370
   96SAPS   H8Y 9577   3.802   3.316   7.913  0.6170  0.8838 -1.0241
   96SAPS   C39 9578   3.827   3.121   7.999  0.0863  0.0697 -0.0743
   96SAPS   H9X 9579   3.938   3.119   8.002  0.0559 -1.0723  0.4975
   96SAPS   H9Y 9580   3.802   3.015   7.979  0.0292 -0.0208  0.4613
   96SAPS  C310 9581   3.754   3.159   8.129  1.0219  0.3574 -0.3205
   96SAPS  H10X 9582   3.648   3.128   8.114  0.3449  3.0657 -1.6723
   96SAPS  H10Y 9583   3.744   3.267   8.150  0.7212 -0.1365  2.4387
   96SAPS  C311 9584   3.818   3.089   8.249  0.0913  0.0237 -0.8927
   96SAPS  H11X 9585   3.857   2.989   8.220 -1.0805 -0.9330  0.6318
   96SAPS  H11Y 9586   3.734   3.075   8.321  1.7203  0.6113  1.2172
   96SAPS  C312 9587   3.927   3.172   8.317 -0.4868  0.2366  0.2713
   96SAPS  H12X 9588   3.868   3.251   8.369 -0.2844  0.6989 -0.1844
   96SAPS  H12Y 9589   3.997   3.217   8.243  1.6322 -1.1513  1.3239
   96SAPS  C313 9590   4.011   3.096   8.422 -0.1994 -0.1116  0.0641
   96SAPS  H13X 9591   4.090   3.162   8.464 -2.3717  2.0445  1.0255
   96SAPS  H13Y 9592   4.053   3.005   8.375 -1.5259  0.2752 -2.0136
   96SAPS  C314 9593   3.924   3.045   8.539  0.3915  0.3354 -0.5227
   96SAPS  H14X 9594   3.859   2.963   8.501  0.8021  0.0203 -0.5467
   96SAPS  H14Y 9595   3.860   3.129   8.576 -0.8247 -0.4366 -0.8100
   96SAPS  C315 9596   4.008   2.992   8.655  0.0214 -0.1185 -0.3518
   96SAPS  H15X 9597   4.057   3.081   8.701  1.4909 -0.3580 -1.3809
   96SAPS  H15Y 9598   4.092   2.926   8.624 -1.3663 -0.6873 -3.2832
   96SAPS  C316 9599   3.922   2.922   8.766  0.8976  0.2043  0.6266
   96SAPS  H16X 9600   3.861   2.846   8.712 -0.4972  1.0212  1.0152
   96SAPS  H16Y 9601   3.856   3.002   8.805 -1.4859 -1.2816 -0.1662
   96SAPS  C317 9602   4.013   2.866   8.873  0.7900 -0.4433 -0.1574
   96SAPS  H17X 9603   4.077   2.947   8.912  0.7780  0.3019 -1.6086
   96SAPS  H17Y 9604   4.082   2.788   8.832  1.1937 -0.9651  1.4568
   96SAPS  C318 9605   3.943   2.796   8.991  0.4729 -0.3389 -0.0094
   96SAPS  H18X 9606   4.020   2.731   9.037  0.6374 -1.2367 -1.4933
   96SAPS  H18Y 9607   3.866   2.737   8.936  0.6537 -0.0028 -0.6288
   96SAPS  H18Z 9608   3.880   2.860   9.057 -1.6558 -2.4288  0.1409
   97SAPS     N 9609   4.614   1.473   6.334  0.6893 -0.2484 -0.0309
   97SAPS   HN1 9610   4.651   1.464   6.237 -1.4639 -0.9654 -0.8554
   97SAPS   HN2 9611   4.620   1.571   6.368 -0.6461  0.1973 -0.9879
   97SAPS   HN3 9612   4.670   1.411   6.396 -2.7044 -2.3092  1.2759
   97SAPS   C12 9613   4.474   1.403   6.329 -0.0830 -0.5556  0.2190
   97SAPS  H12A 9614   4.395   1.466   6.292  1.3803  1.1637 -0.1425
   97SAPS   C13 9615   4.476   1.286   6.238  0.4584 -0.3101  0.0677
   97SAPS  O13A 9616   4.562   1.277   6.146  0.3538 -0.1600  0.1308
   97SAPS  O13B 9617   4.371   1.220   6.225  0.3470 -0.3882 -0.1161
   97SAPS   C11 9618   4.445   1.351   6.474  0.0208 -0.2493  0.1979
   97SAPS  H11A 9619   4.512   1.267   6.500  0.1330 -0.3044 -0.2559
   97SAPS  H11B 9620   4.348   1.297   6.469  0.5160 -1.0480 -1.7916
   97SAPS     P 9621   4.309   1.504   6.628  0.2519  0.0048 -0.0928
   97SAPS   O13 9622   4.232   1.551   6.508  0.2265  0.5820  0.1833
   97SAPS   O14 9623   4.252   1.405   6.716 -0.0280 -0.4987  0.0392
   97SAPS   O12 9624   4.449   1.463   6.569 -0.1901 -0.2594 -0.0816
   97SAPS   O11 9625   4.353   1.639   6.705  0.2837  0.5090 -0.3120
   97SAPS    C1 9626   4.457   1.642   6.803  0.0757  0.5172  0.3743
   97SAPS    HA 9627   4.440   1.568   6.883  2.6547  0.0969  0.6200
   97SAPS    HB 9628   4.554   1.612   6.756 -1.0396 -1.6311 -0.6784
   97SAPS    C2 9629   4.469   1.776   6.876  0.4306 -0.1520  0.5193
   97SAPS    HS 9630   4.498   1.850   6.798 -1.0860 -0.7845 -0.6920
   97SAPS   O21 9631   4.562   1.767   6.986 -0.0175 -0.9356 -0.7307
   97SAPS   C21 9632   4.686   1.769   6.966 -0.0400 -0.2700  0.1705
   97SAPS   O22 9633   4.739   1.761   6.860 -0.8037  0.3850  0.1808
   97SAPS   C22 9634   4.753   1.782   7.102 -0.2337 -0.3213 -0.9021
   97SAPS   H2R 9635   4.691   1.748   7.188 -0.6183  0.3428 -0.9182
   97SAPS   H2S 9636   4.838   1.711   7.092 -2.1230 -3.2700  1.8274
   97SAPS    C3 9637   4.334   1.821   6.937 -0.8416  0.4383 -0.1498
   97SAPS    HX 9638   4.262   1.845   6.856 -1.6824 -0.9552  0.1599
   97SAPS    HY 9639   4.346   1.919   6.988 -1.9040 -0.2064  1.4449
   97SAPS   O31 9640   4.266   1.726   7.024  0.2787 -0.0256 -0.2431
   97SAPS   C31 9641   4.191   1.781   7.117  0.2113 -0.1430  0.1123
   97SAPS   O32 9642   4.180   1.898   7.137 -0.5060 -0.2044 -0.3107
   97SAPS   C32 9643   4.110   1.674   7.195  0.2837 -0.2854 -0.0948
   97SAPS   H2X 9644   4.116   1.575   7.145  0.2222 -0.0099 -0.6555
   97SAPS   H2Y 9645   4.005   1.707   7.178  0.2853  1.1399  2.1773
   97SAPS   C23 9646   4.814   1.925   7.112 -0.3937 -0.4258  0.0458
   97SAPS   H3R 9647   4.747   2.014   7.102  1.0085  0.5696 -0.9658
   97SAPS   H3S 9648   4.882   1.940   7.025 -1.1189  1.5399 -0.2366
   97SAPS   C24 9649   4.899   1.953   7.238 -1.1168  0.0254  0.4600
   97SAPS   H4R 9650   4.834   1.939   7.327 -1.4998 -2.8962 -0.1635
   97SAPS   H4S 9651   4.953   2.050   7.235 -0.7919 -0.1755 -0.4329
   97SAPS   C25 9652   4.994   1.845   7.264  0.7076 -0.7531 -0.8381
   97SAPS   H5R 9653   4.951   1.745   7.246 -0.1099 -0.7757  1.0479
   97SAPS   C26 9654   5.118   1.850   7.315 -0.3241  0.2492 -0.4950
   97SAPS   H6R 9655   5.179   1.759   7.317 -0.3032  0.1828 -2.2285
   97SAPS   C27 9656   5.188   1.984   7.356  0.2818  0.7977 -1.1061
   97SAPS   H7R 9657   5.174   1.994   7.466  0.8572 -0.2979 -0.9122
   97SAPS   H7S 9658   5.134   2.073   7.317 -1.3341  1.6947  2.7315
   97SAPS   C28 9659   5.331   2.007   7.309  0.1961  0.0647 -0.1735
   97SAPS   H8R 9660   5.351   2.009   7.201  1.6141  3.1901  0.0426
   97SAPS   C29 9661   5.446   2.027   7.370 -0.4954  0.7764  0.5663
   97SAPS   H9R 9662   5.536   2.047   7.310 -0.7569 -1.2320 -0.6039
   97SAPS  C210 9663   5.483   2.030   7.516  0.7951  0.4727 -0.3019
   97SAPS  H10R 9664   5.432   2.120   7.555  0.0365  0.4865 -1.2821
   97SAPS  H10S 9665   5.594   2.039   7.510  0.9625 -1.1294 -0.0753
   97SAPS  C211 9666   5.426   1.918   7.595 -0.2906  0.0265 -0.0755
   97SAPS  H11R 9667   5.395   1.830   7.538  1.0966  0.2410 -1.2142
   97SAPS  C212 9668   5.418   1.915   7.728 -1.0764  0.3595 -0.2649
   97SAPS  H12R 9669   5.382   1.822   7.774 -0.3401 -0.7366 -1.8110
   97SAPS  C213 9670   5.463   2.033   7.811  0.2496  0.5824 -0.5081
   97SAPS  H13R 9671   5.493   2.126   7.759  1.7554  0.5119  0.1919
   97SAPS  H13S 9672   5.562   2.012   7.855 -0.3652  1.3334  1.3504
   97SAPS  C214 9673   5.348   2.057   7.915  0.0823  0.4821  0.6456
   97SAPS  H14R 9674   5.273   2.127   7.876  1.3002  1.1946 -0.4830
   97SAPS  C215 9675   5.338   2.015   8.041 -0.0529 -0.9600 -0.3339
   97SAPS  H15R 9676   5.241   2.024   8.091  2.2733 -1.7672  5.0267
   97SAPS  C216 9677   5.435   1.935   8.120  0.3196  0.1997  0.1980
   97SAPS  H16R 9678   5.516   1.887   8.061 -0.0293 -0.6243  0.3813
   97SAPS  H16S 9679   5.381   1.852   8.169  0.9589 -0.0607  0.4648
   97SAPS  C217 9680   5.510   2.014   8.233  0.0733  0.3798 -0.0801
   97SAPS  H17R 9681   5.427   2.054   8.295 -0.6661 -2.4904  0.9417
   97SAPS  H17S 9682   5.570   2.093   8.184  0.4409  0.0526 -0.1612
   97SAPS  C218 9683   5.589   1.916   8.310  0.5933  0.0878  0.6951
   97SAPS  H18R 9684   5.674   1.876   8.251  0.4164 -0.3098  0.7095
   97SAPS  H18S 9685   5.523   1.832   8.342  0.1365 -0.6517 -1.9884
   97SAPS  C219 9686   5.648   1.980   8.437  0.1258 -0.3009  0.0798
   97SAPS  H19R 9687   5.559   2.004   8.498 -0.6737 -3.1611  0.1813
   97SAPS  H19S 9688   5.702   2.074   8.410  0.2127 -0.7183 -1.3092
   97SAPS  C220 9689   5.721   1.880   8.532  0.1908 -0.2391 -0.6381
   97SAPS  H20R 9690   5.649   1.797   8.548  0.0727 -0.0510 -0.1846
   97SAPS  H20S 9691   5.754   1.944   8.616  1.1478  1.5157 -2.2730
   97SAPS  H20T 9692   5.811   1.837   8.484 -0.4865  0.5671 -2.7432
   97SAPS   C33 9693   4.140   1.668   7.348 -0.0572  0.8037  0.5506
   97SAPS   H3X 9694   4.051   1.615   7.388  0.0942 -0.2277 -0.4323
   97SAPS   H3Y 9695   4.146   1.772   7.387  1.8662  0.6981  0.6441
   97SAPS   C34 9696   4.258   1.578   7.382  0.2900  0.3960 -0.0737
   97SAPS   H4X 9697   4.346   1.613   7.324 -1.0355  2.0732 -1.1994
   97SAPS   H4Y 9698   4.241   1.476   7.341  1.5588 -0.9784  2.5477
   97SAPS   C35 9699   4.291   1.583   7.534  0.2318  0.3276  0.2570
   97SAPS   H5X 9700   4.198   1.538   7.576 -0.2938 -0.3338 -1.5314
   97SAPS   H5Y 9701   4.317   1.683   7.574 -0.0458  0.5922 -0.2143
   97SAPS   C36 9702   4.420   1.491   7.552  0.2461 -0.5932  0.0665
   97SAPS   H6X 9703   4.507   1.536   7.499 -0.4078 -0.1870 -0.7061
   97SAPS   H6Y 9704   4.402   1.388   7.515  1.4794 -0.4329 -1.0742
   97SAPS   C37 9705   4.460   1.493   7.700 -0.3003  0.8995 -0.5278
   97SAPS   H7X 9706   4.397   1.421   7.758 -1.2043  0.0397 -2.4768
   97SAPS   H7Y 9707   4.435   1.598   7.724 -0.9259  0.9449 -1.3202
   97SAPS   C38 9708   4.602   1.460   7.716 -0.3609 -0.8456 -0.1365
   97SAPS   H8X 9709   4.665   1.524   7.651 -2.1298  0.1517 -0.9301
   97SAPS   H8Y 9710   4.631   1.359   7.679  2.0569 -0.6568  0.9963
   97SAPS   C39 9711   4.655   1.467   7.859 -0.4298 -0.8864 -0.6861
   97SAPS   H9X 9712   4.665   1.570   7.900  1.3334 -0.3583 -2.3417
   97SAPS   H9Y 9713   4.762   1.438   7.855 -0.6150 -1.7010 -0.1225
   97SAPS  C310 9714   4.562   1.384   7.946  0.3356 -0.1112  0.7993
   97SAPS  H10X 9715   4.526   1.297   7.888  2.3955  0.0927 -0.8869
   97SAPS  H10Y 9716   4.469   1.444   7.962  0.1797  0.4558 -1.6898
   97SAPS  C311 9717   4.630   1.327   8.073  0.2317 -0.2980 -0.8690
   97SAPS  H11X 9718   4.723   1.276   8.040 -0.7314 -2.1019 -0.9159
   97SAPS  H11Y 9719   4.566   1.245   8.112  1.0510 -1.2898 -1.5524
   97SAPS  C312 9720   4.637   1.428   8.184  0.2888 -0.6291  0.2929
   97SAPS  H12X 9721   4.534   1.462   8.212  1.1395  1.3365  1.2374
   97SAPS  H12Y 9722   4.684   1.514   8.130 -2.9206  0.9603 -0.2617
   97SAPS  C313 9723   4.720   1.370   8.298  0.4997 -0.3979 -1.0040
   97SAPS  H13X 9724   4.808   1.321   8.251 -0.7572 -2.3350 -1.3985
   97SAPS  H13Y 9725   4.672   1.285   8.351 -1.1194  0.2277 -1.4262
   97SAPS  C314 9726   4.774   1.477   8.400 -0.2715 -0.0290 -0.3227
   97SAPS  H14X 9727   4.695   1.495   8.476 -0.0498 -2.8747  0.6944
   97SAPS  H14Y 9728   4.776   1.582   8.364 -2.9619  1.1419  2.3926
   97SAPS  C315 9729   4.908   1.446   8.467 -0.5768  0.6292  0.6645
   97SAPS  H15X 9730   4.972   1.386   8.399  0.6254  0.0774  2.2246
   97SAPS  H15Y 9731   4.878   1.386   8.555 -0.4202  0.4137  0.5715
   97SAPS  C316 9732   4.990   1.561   8.513  0.2002 -0.2010 -0.0943
   97SAPS  H16X 9733   5.004   1.624   8.422  0.5205  1.1030  0.8219
   97SAPS  H16Y 9734   5.091   1.523   8.540  0.0859 -0.9590 -0.6959
   97SAPS  C317 9735   4.912   1.653   8.608 -0.1811  0.2695  0.1468
   97SAPS  H17X 9736   4.877   1.577   8.681 -0.5673 -0.9856 -1.2957
   97SAPS  H17Y 9737   4.819   1.699   8.567 -0.3803 -0.1825  0.0824
   97SAPS  C318 9738   4.995   1.760   8.674  0.3379 -0.0304 -0.3454
   97SAPS  H18X 9739   5.096   1.724   8.703 -1.0715 -1.3218  3.6457
   97SAPS  H18Y 9740   4.947   1.808   8.762  2.5712  1.2204  0.2702
   97SAPS  H18Z 9741   5.019   1.845   8.608  1.7376  1.0529  1.4572
   98SAPS     N 9742   2.657   1.362   5.959 -0.4930 -0.6151 -0.0623
   98SAPS   HN1 9743   2.688   1.461   5.949 -2.6007  0.1400  0.2752
   98SAPS   HN2 9744   2.667   1.307   5.871  2.0232 -0.7005  0.2131
   98SAPS   HN3 9745   2.560   1.363   5.996  0.0305  2.9901  1.6378
   98SAPS   C12 9746   2.746   1.284   6.050  0.0417  0.3958  0.0685
   98SAPS  H12A 9747   2.689   1.283   6.142 -2.1402 -0.7570 -1.1869
   98SAPS   C13 9748   2.753   1.135   6.013  0.0908  0.1320 -0.0011
   98SAPS  O13A 9749   2.705   1.084   5.907  0.5471  0.2071  0.2240
   98SAPS  O13B 9750   2.822   1.071   6.093  0.1374  0.5945  0.8235
   98SAPS   C11 9751   2.884   1.346   6.055  0.1623  0.4112 -0.5270
   98SAPS  H11A 9752   2.933   1.330   5.956  0.8864  1.7209 -0.4152
   98SAPS  H11B 9753   2.940   1.288   6.132  0.9965  2.1256  0.2359
   98SAPS     P 9754   3.000   1.558   6.168  0.0766 -0.1887  0.0504
   98SAPS   O13 9755   3.129   1.517   6.108  0.4936 -1.1271 -0.0102
   98SAPS   O14 9756   2.971   1.707   6.169  0.0611  0.1463  0.4036
   98SAPS   O12 9757   2.883   1.482   6.094 -0.3725 -0.7097  1.1961
   98SAPS   O11 9758   2.985   1.493   6.315  0.8279  0.0402  0.3234
   98SAPS    C1 9759   2.853   1.504   6.378 -0.2415  0.3668 -0.6040
   98SAPS    HA 9760   2.770   1.511   6.305 -1.8057  3.5532  1.2463
   98SAPS    HB 9761   2.847   1.413   6.441 -0.4718  0.7925  0.0083
   98SAPS    C2 9762   2.819   1.622   6.478  0.4466  0.0127  0.9897
   98SAPS    HS 9763   2.784   1.697   6.403  0.4094 -2.0579 -1.1966
   98SAPS   O21 9764   2.940   1.660   6.542 -0.9471  0.4171  0.3863
   98SAPS   C21 9765   2.935   1.772   6.609  0.2339  0.1431  0.0640
   98SAPS   O22 9766   2.840   1.851   6.605 -0.0172  0.3238 -0.3738
   98SAPS   C22 9767   3.066   1.788   6.689 -0.4774 -0.0881 -0.8632
   98SAPS   H2R 9768   3.128   1.697   6.677 -0.2555  0.1596 -1.6865
   98SAPS   H2S 9769   3.125   1.875   6.652  0.3750 -0.7203 -1.0251
   98SAPS    C3 9770   2.711   1.582   6.583 -0.3747  0.2123  0.6980
   98SAPS    HX 9771   2.623   1.546   6.526 -0.3891  2.7404 -1.0291
   98SAPS    HY 9772   2.674   1.675   6.631 -2.4057  0.3708 -1.0230
   98SAPS   O31 9773   2.758   1.475   6.667  0.3336  0.1825 -0.1439
   98SAPS   C31 9774   2.675   1.441   6.761  0.1351 -0.5723  0.0740
   98SAPS   O32 9775   2.570   1.497   6.793 -0.1405  0.2026 -0.3528
   98SAPS   C32 9776   2.724   1.312   6.825 -0.0469  0.2816 -0.4895
   98SAPS   H2X 9777   2.835   1.316   6.826 -0.0277 -0.1298  0.6749
   98SAPS   H2Y 9778   2.687   1.231   6.759  1.7520 -1.4615  0.5210
   98SAPS   C23 9779   3.029   1.809   6.838  0.0487  0.6429  0.0795
   98SAPS   H3R 9780   2.965   1.899   6.844  1.1923  1.5670 -0.9394
   98SAPS   H3S 9781   3.132   1.825   6.877  0.2039 -1.4441  0.6137
   98SAPS   C24 9782   2.955   1.693   6.909  0.4014  0.3499 -0.2155
   98SAPS   H4R 9783   2.847   1.691   6.884  0.5772 -2.6433 -1.0009
   98SAPS   H4S 9784   2.944   1.723   7.016 -1.7508  1.5219 -0.7020
   98SAPS   C25 9785   3.031   1.557   6.905 -0.3498 -0.3713  0.1196
   98SAPS   H5R 9786   3.052   1.510   6.808  0.5797  0.3082 -0.0270
   98SAPS   C26 9787   3.098   1.498   7.010  0.3286  0.6810 -0.4893
   98SAPS   H6R 9788   3.144   1.398   7.006 -0.4618  0.0170  3.1575
   98SAPS   C27 9789   3.094   1.542   7.154 -0.3898 -0.6320  0.4920
   98SAPS   H7R 9790   2.995   1.518   7.198 -1.3782  1.3406 -0.4907
   98SAPS   H7S 9791   3.087   1.653   7.161 -2.0253 -0.6832  0.1657
   98SAPS   C28 9792   3.212   1.496   7.236 -0.7009  0.3674 -1.0399
   98SAPS   H8R 9793   3.291   1.439   7.185  0.7380  1.1878  0.1782
   98SAPS   C29 9794   3.229   1.510   7.372  0.3596 -0.8449 -0.1322
   98SAPS   H9R 9795   3.329   1.483   7.410  1.4684  1.6157 -1.0663
   98SAPS  C210 9796   3.131   1.583   7.467 -0.7647  0.2546  0.4012
   98SAPS  H10R 9797   3.066   1.501   7.507 -0.5932 -0.0511  0.0619
   98SAPS  H10S 9798   3.071   1.653   7.406 -0.6090  1.1361  1.2367
   98SAPS  C211 9799   3.183   1.674   7.572 -0.3563 -0.0134  0.8542
   98SAPS  H11R 9800   3.223   1.770   7.535  0.2414  1.0020  3.8601
   98SAPS  C212 9801   3.201   1.642   7.699 -0.4432 -0.2132 -0.5006
   98SAPS  H12R 9802   3.244   1.718   7.767  0.0654 -0.7851 -0.1661
   98SAPS  C213 9803   3.199   1.502   7.766  0.7533  0.1709 -0.1750
   98SAPS  H13R 9804   3.289   1.479   7.826  0.7550  2.3742  0.7818
   98SAPS  H13S 9805   3.193   1.420   7.691  0.2845 -0.6561  0.7446
   98SAPS  C214 9806   3.076   1.486   7.844  0.7500 -0.1522 -0.0287
   98SAPS  H14R 9807   2.987   1.538   7.805  0.9574 -1.7905 -2.9807
   98SAPS  C215 9808   3.064   1.421   7.963 -0.4058 -0.0749 -0.1906
   98SAPS  H15R 9809   2.971   1.431   8.022 -0.1269 -0.8408  0.3879
   98SAPS  C216 9810   3.176   1.358   8.048 -0.1895  0.2079 -0.5541
   98SAPS  H16R 9811   3.275   1.395   8.016 -0.3414 -0.2048 -1.5404
   98SAPS  H16S 9812   3.182   1.247   8.039 -0.9654 -0.1513  2.2635
   98SAPS  C217 9813   3.151   1.384   8.203  0.0559  0.3526 -0.0907
   98SAPS  H17R 9814   3.051   1.348   8.236 -0.6316 -0.1440 -2.4737
   98SAPS  H17S 9815   3.159   1.494   8.218  0.6823  0.3851 -0.6032
   98SAPS  C218 9816   3.254   1.313   8.290  0.3981  0.3128 -0.4942
   98SAPS  H18R 9817   3.351   1.367   8.283 -0.8506  3.0117  1.1875
   98SAPS  H18S 9818   3.278   1.211   8.255 -1.0440 -0.4275  0.5742
   98SAPS  C219 9819   3.217   1.319   8.432 -0.4673 -0.4661 -0.1641
   98SAPS  H19R 9820   3.119   1.272   8.453  0.7314 -3.0047  0.1299
   98SAPS  H19S 9821   3.208   1.422   8.474  2.0103  0.0045 -0.6597
   98SAPS  C220 9822   3.328   1.246   8.518  0.5176  0.4894 -0.4095
   98SAPS  H20R 9823   3.343   1.293   8.618  0.5359 -1.8969  0.7720
   98SAPS  H20S 9824   3.429   1.261   8.475  0.8625  0.5291  0.3997
   98SAPS  H20T 9825   3.299   1.141   8.538 -1.0221  0.9319 -0.1197
   98SAPS   C33 9826   2.668   1.284   6.965  0.7217  0.1195  0.5574
   98SAPS   H3X 9827   2.673   1.175   6.989 -1.7747  0.1007  1.1784
   98SAPS   H3Y 9828   2.559   1.304   6.963  1.0982  2.3743 -1.6834
   98SAPS   C34 9829   2.733   1.365   7.080 -0.3739 -0.6935 -0.0395
   98SAPS   H4X 9830   2.727   1.475   7.067  1.2667 -0.6216 -0.3987
   98SAPS   H4Y 9831   2.842   1.349   7.078 -0.3615 -0.5862 -1.8111
   98SAPS   C35 9832   2.671   1.335   7.221  0.3487 -0.1277  0.0708
   98SAPS   H5X 9833   2.651   1.227   7.236 -2.2137 -0.2446 -3.1438
   98SAPS   H5Y 9834   2.571   1.384   7.218  1.0499  1.3643 -2.3804
   98SAPS   C36 9835   2.760   1.380   7.337 -1.3420  0.3122 -0.4695
   98SAPS   H6X 9836   2.777   1.489   7.329  2.6522 -0.1900 -1.1070
   98SAPS   H6Y 9837   2.859   1.331   7.325 -1.0464  0.7770  0.0552
   98SAPS   C37 9838   2.701   1.342   7.472 -0.6596 -0.1641  0.5405
   98SAPS   H7X 9839   2.739   1.243   7.506  3.2761  0.2378 -2.0326
   98SAPS   H7Y 9840   2.592   1.342   7.450 -0.6717  1.8221  0.4522
   98SAPS   C38 9841   2.742   1.433   7.588 -0.0446 -0.2956 -0.1970
   98SAPS   H8X 9842   2.679   1.524   7.591  0.5331  0.0959  0.3726
   98SAPS   H8Y 9843   2.849   1.452   7.566  0.5880 -0.5081  2.3803
   98SAPS   C39 9844   2.717   1.362   7.723  0.3600 -0.3408  0.2015
   98SAPS   H9X 9845   2.810   1.308   7.748  1.6085  1.2326 -0.8978
   98SAPS   H9Y 9846   2.631   1.294   7.705  2.1253 -2.5003 -0.4600
   98SAPS  C310 9847   2.691   1.458   7.841 -0.1206  0.3918  0.3487
   98SAPS  H10X 9848   2.597   1.511   7.813 -0.2808  0.5981  1.2445
   98SAPS  H10Y 9849   2.770   1.535   7.855  0.1127  0.3076 -0.4578
   98SAPS  C311 9850   2.674   1.380   7.977  0.2938  0.8493  0.5679
   98SAPS  H11X 9851   2.758   1.308   7.971  0.4902  1.1591 -1.6141
   98SAPS  H11Y 9852   2.571   1.338   7.972  0.7508 -0.7395  2.9261
   98SAPS  C312 9853   2.691   1.468   8.098  0.3508 -0.2759 -0.0107
   98SAPS  H12X 9854   2.626   1.557   8.083 -0.4766 -0.6923  0.9759
   98SAPS  H12Y 9855   2.798   1.500   8.097 -0.2480  1.9068  0.2081
   98SAPS  C313 9856   2.656   1.402   8.234  0.3510 -0.3348  0.0457
   98SAPS  H13X 9857   2.702   1.301   8.241  1.1234 -0.0593 -0.9280
   98SAPS  H13Y 9858   2.545   1.399   8.244  0.0099  0.8729 -2.6008
   98SAPS  C314 9859   2.715   1.481   8.349 -0.4258  0.0608  0.0785
   98SAPS  H14X 9860   2.677   1.585   8.351 -0.8641 -0.0873 -0.4426
   98SAPS  H14Y 9861   2.824   1.491   8.328 -0.3618 -2.0160 -0.9009
   98SAPS  C315 9862   2.695   1.415   8.484  0.4464  0.5257  0.2149
   98SAPS  H15X 9863   2.729   1.310   8.499 -0.5967  0.1834  0.2671
   98SAPS  H15Y 9864   2.585   1.404   8.494  0.4982 -0.4283 -0.1209
   98SAPS  C316 9865   2.747   1.497   8.600 -0.1842 -0.4529  0.1039
   98SAPS  H16X 9866   2.723   1.433   8.687  1.2165 -1.3178 -0.1060
   98SAPS  H16Y 9867   2.697   1.596   8.596  1.3049  0.3112 -0.7893
   98SAPS  C317 9868   2.898   1.505   8.599 -0.6330 -0.8652  0.4663
   98SAPS  H17X 9869   2.938   1.558   8.510  0.7466 -1.1100  0.9132
   98SAPS  H17Y 9870   2.942   1.403   8.599 -2.4900 -1.6929  0.1456
   98SAPS  C318 9871   2.961   1.583   8.720  0.2140 -0.0686  0.4339
   98SAPS  H18X 9872   2.923   1.687   8.718  3.9266  1.4527  0.2305
   98SAPS  H18Y 9873   3.071   1.594   8.715  0.3788 -1.2187  1.1550
   98SAPS  H18Z 9874   2.929   1.529   8.812 -1.0795  2.1371  1.3519
   99SAPS     N 9875   6.744   5.388   5.988  0.0883 -0.3243  0.3450
   99SAPS   HN1 9876   6.666   5.319   5.990  0.2503 -0.5618 -1.0501
   99SAPS   HN2 9877   6.813   5.349   5.921 -0.5476 -0.9198  0.0167
   99SAPS   HN3 9878   6.787   5.401   6.082  0.7439  0.3105 -0.0349
   99SAPS   C12 9879   6.679   5.516   5.951 -0.0798 -0.4288  0.2900
   99SAPS  H12A 9880   6.750   5.594   5.928 -1.0431  0.3381 -0.1945
   99SAPS   C13 9881   6.581   5.494   5.826  0.5827  0.1710 -0.1174
   99SAPS  O13A 9882   6.561   5.380   5.782  1.1836  0.1391 -0.2957
   99SAPS  O13B 9883   6.550   5.600   5.769  0.6580  0.3109 -0.3665
   99SAPS   C11 9884   6.584   5.557   6.068 -0.2576 -0.1836  0.2452
   99SAPS  H11A 9885   6.512   5.476   6.089 -2.3994  1.2970 -1.0049
   99SAPS  H11B 9886   6.526   5.646   6.034  2.2225  1.1691 -0.7845
   99SAPS     P 9887   6.584   5.617   6.316 -0.0105  0.1485 -0.0073
   99SAPS   O13 9888   6.637   5.517   6.415  0.8490  0.6984 -0.4025
   99SAPS   O14 9889   6.594   5.757   6.352 -0.1831  0.4849  0.1277
   99SAPS   O12 9890   6.659   5.594   6.182 -0.5496 -0.0353  0.5891
   99SAPS   O11 9891   6.432   5.595   6.283  0.7860 -0.1175  0.7334
   99SAPS    C1 9892   6.339   5.694   6.251  0.4052 -0.1636  0.5714
   99SAPS    HA 9893   6.380   5.768   6.179 -0.2209  0.1598  0.5425
   99SAPS    HB 9894   6.252   5.644   6.204  0.2937  0.7454 -0.2346
   99SAPS    C2 9895   6.272   5.770   6.365 -0.2216  0.1335  0.3963
   99SAPS    HS 9896   6.349   5.837   6.408  0.5475  0.2331 -1.0617
   99SAPS   O21 9897   6.225   5.672   6.457  0.4581  0.2446 -0.0827
   99SAPS   C21 9898   6.232   5.695   6.590 -0.3827  0.3003  0.4387
   99SAPS   O22 9899   6.277   5.799   6.639  0.1642 -0.4047 -0.4307
   99SAPS   C22 9900   6.189   5.576   6.679 -0.6176 -0.1113  0.5602
   99SAPS   H2R 9901   6.082   5.568   6.652  0.0406 -0.6477 -2.1594
   99SAPS   H2S 9902   6.259   5.499   6.641 -1.8324 -0.6529 -0.6712
   99SAPS    C3 9903   6.154   5.859   6.323  0.2155  0.5356 -0.0720
   99SAPS    HX 9904   6.079   5.799   6.267 -0.1624  2.0109 -1.2175
   99SAPS    HY 9905   6.198   5.929   6.249  1.6040 -1.7857 -1.5971
   99SAPS   O31 9906   6.077   5.925   6.431  0.5142  0.4283 -0.1803
   99SAPS   C31 9907   6.137   6.031   6.483  1.1992 -0.2473 -0.0238
   99SAPS   O32 9908   6.224   6.094   6.425  0.2127 -0.1550 -0.3249
   99SAPS   C32 9909   6.081   6.067   6.626 -0.6475  0.0359 -0.1221
   99SAPS   H2X 9910   6.067   5.968   6.674 -0.4941  0.1375  0.1331
   99SAPS   H2Y 9911   5.981   6.116   6.620 -0.8872 -0.5856 -1.8226
   99SAPS   C23 9912   6.224   5.604   6.831  0.6556  0.4931 -0.1590
   99SAPS   H3R 9913   6.331   5.635   6.833  0.2502  2.0121 -0.9245
   99SAPS   H3S 9914   6.209   5.511   6.890 -2.4852  0.3510 -1.0188
   99SAPS   C24 9915   6.142   5.717   6.887 -0.0651 -0.0465 -0.4317
   99SAPS   H4R 9916   6.164   5.815   6.840 -3.2912  0.1374 -1.8137
   99SAPS   H4S 9917   6.174   5.722   6.993  0.3433 -3.4595 -0.2885
   99SAPS   C25 9918   5.993   5.686   6.880 -0.6009  0.7938  0.5633
   99SAPS   H5R 9919   5.941   5.711   6.786 -0.6705 -0.8315  0.1332
   99SAPS   C26 9920   5.919   5.644   6.989  0.0133  0.3619  0.7641
   99SAPS   H6R 9921   5.813   5.618   6.975  0.4132 -2.0062  1.5308
   99SAPS   C27 9922   5.972   5.627   7.134 -0.2282 -0.3752 -0.2290
   99SAPS   H7R 9923   5.912   5.702   7.190  0.7377  0.3650 -0.1444
   99SAPS   H7S 9924   6.077   5.657   7.155 -0.7227  0.5209  1.1301
   99SAPS   C28 9925   5.958   5.495   7.200  0.1768 -0.1787  0.2489
   99SAPS   H8R 9926   5.912   5.417   7.137  0.3615  0.5043 -0.7587
   99SAPS   C29 9927   6.012   5.463   7.320  0.7083 -0.4311 -0.1213
   99SAPS   H9R 9928   5.997   5.365   7.368 -0.7516 -0.5246 -0.7059
   99SAPS  C210 9929   6.090   5.563   7.411  0.6262  0.3558 -0.2807
   99SAPS  H10R 9930   6.023   5.623   7.475 -1.5774 -0.5521 -1.6080
   99SAPS  H10S 9931   6.148   5.636   7.351  0.7707  0.8540  0.4607
   99SAPS  C211 9932   6.201   5.497   7.495 -1.4094 -0.1683 -0.3349
   99SAPS  H11R 9933   6.290   5.464   7.439 -0.5014  2.2696 -0.4447
   99SAPS  C212 9934   6.200   5.480   7.626  0.6061  0.0738 -0.3791
   99SAPS  H12R 9935   6.283   5.419   7.663  1.0840  1.2771  0.5923
   99SAPS  C213 9936   6.088   5.526   7.722  0.2440  0.4044  0.1195
   99SAPS  H13R 9937   6.023   5.437   7.733 -0.4530  0.9747  0.6785
   99SAPS  H13S 9938   6.028   5.602   7.667  0.4632  1.4331  1.2551
   99SAPS  C214 9939   6.124   5.593   7.855  0.8117  0.3190 -0.5023
   99SAPS  H14R 9940   6.119   5.703   7.865  2.8052  0.3177  1.1824
   99SAPS  C215 9941   6.166   5.527   7.969 -0.5474 -0.6526 -0.5668
   99SAPS  H15R 9942   6.182   5.580   8.063 -0.2702 -2.7118  0.6078
   99SAPS  C216 9943   6.190   5.381   7.977  0.4098  0.3133 -0.3244
   99SAPS  H16R 9944   6.278   5.360   8.042  0.0340 -0.1564  0.0404
   99SAPS  H16S 9945   6.215   5.337   7.878  2.7129 -1.8976  1.1054
   99SAPS  C217 9946   6.070   5.299   8.031  0.8293  0.2749  0.1359
   99SAPS  H17R 9947   5.975   5.331   7.983  0.4744  1.3135  1.4518
   99SAPS  H17S 9948   6.059   5.335   8.136  1.0663  0.7310  0.0104
   99SAPS  C218 9949   6.086   5.145   8.030 -0.0504  0.3946  0.0573
   99SAPS  H18R 9950   6.178   5.127   8.089 -0.6300 -1.6730  0.3939
   99SAPS  H18S 9951   6.092   5.106   7.926 -1.5883  1.0046 -0.2916
   99SAPS  C219 9952   5.963   5.084   8.098  0.0262 -0.1651  0.1867
   99SAPS  H19R 9953   5.874   5.118   8.040  0.1096  0.8636  0.6376
   99SAPS  H19S 9954   5.964   5.136   8.196  2.2960 -1.2914  0.8184
   99SAPS  C220 9955   5.955   4.933   8.099  0.8743  0.2473  0.5245
   99SAPS  H20R 9956   6.046   4.897   8.150  0.5804  0.5555  1.2912
   99SAPS  H20S 9957   5.939   4.889   7.998 -1.7404  0.8423  0.5951
   99SAPS  H20T 9958   5.862   4.902   8.152 -1.0864  2.1518 -1.5378
   99SAPS   C33 9959   6.175   6.150   6.717  0.7649  0.2347  0.1122
   99SAPS   H3X 9960   6.191   6.252   6.676 -1.0818  0.5730  0.1446
   99SAPS   H3Y 9961   6.277   6.118   6.745  1.1144  0.9422 -0.3226
   99SAPS   C34 9962   6.109   6.185   6.851  0.1744 -0.2218  0.0613
   99SAPS   H4X 9963   6.018   6.244   6.830  1.2937  1.3144 -0.7022
   99SAPS   H4Y 9964   6.187   6.243   6.907  1.3430  0.2241 -1.9291
   99SAPS   C35 9965   6.063   6.063   6.939  0.4626 -0.3239  0.2332
   99SAPS   H5X 9966   6.159   6.019   6.973  0.4246  0.2501  1.1011
   99SAPS   H5Y 9967   5.997   5.991   6.885  1.0743 -0.1573 -0.7664
   99SAPS   C36 9968   5.993   6.108   7.065 -0.2672 -0.0085  0.3718
   99SAPS   H6X 9969   5.913   6.178   7.034 -1.6059 -2.9942 -4.1044
   99SAPS   H6Y 9970   6.069   6.152   7.133  0.4164  2.4144 -1.7933
   99SAPS   C37 9971   5.926   5.990   7.134 -0.5897 -0.0379  0.2238
   99SAPS   H7X 9972   6.004   5.913   7.154 -0.9111 -0.7476 -1.1348
   99SAPS   H7Y 9973   5.848   5.961   7.061  1.0283  0.4973 -1.8272
   99SAPS   C38 9974   5.855   6.040   7.264 -0.1036  0.1590 -0.3764
   99SAPS   H8X 9975   5.786   5.962   7.303  1.0208 -0.6977 -0.0508
   99SAPS   H8Y 9976   5.803   6.135   7.238 -0.6765  0.0942  0.4831
   99SAPS   C39 9977   5.953   6.039   7.381  0.1113  0.4210  0.4284
   99SAPS   H9X 9978   6.042   6.095   7.347  2.5855 -3.6742 -0.5040
   99SAPS   H9Y 9979   5.990   5.935   7.397 -0.5437 -0.1158 -1.3139
   99SAPS  C310 9980   5.900   6.094   7.513 -0.0554 -0.9963  0.4835
   99SAPS  H10X 9981   5.793   6.066   7.520 -0.3723 -0.0093 -0.1198
   99SAPS  H10Y 9982   5.896   6.205   7.510  1.8145 -0.8406  1.6685
   99SAPS  C311 9983   5.986   6.062   7.637 -0.0325  0.8057  0.1630
   99SAPS  H11X 9984   6.089   6.097   7.613  0.0605  1.5746  1.6089
   99SAPS  H11Y 9985   5.989   5.952   7.650  0.7437  0.4865 -2.1722
   99SAPS  C312 9986   5.936   6.131   7.761 -0.3881 -0.4176 -0.4169
   99SAPS  H12X 9987   5.832   6.100   7.785  0.3690 -1.6322  1.5032
   99SAPS  H12Y 9988   5.947   6.240   7.744 -0.2379 -0.2833  0.4695
   99SAPS  C313 9989   6.027   6.092   7.872 -0.1551  0.6173  0.7950
   99SAPS  H13X 9990   6.133   6.104   7.841  0.1793 -1.3177  1.0614
   99SAPS  H13Y 9991   6.026   5.982   7.888 -0.3144  0.5287  0.2386
   99SAPS  C314 9992   6.005   6.161   7.999 -0.3699 -0.9111 -0.7418
   99SAPS  H14X 9993   5.905   6.146   8.044  0.5460  2.2956  2.8501
   99SAPS  H14Y 9994   6.012   6.271   7.990 -2.0131 -0.7404 -0.3230
   99SAPS  C315 9995   6.105   6.130   8.118  0.1643 -0.5942 -0.3536
   99SAPS  H15X 9996   6.206   6.124   8.071  1.1995  1.2419  1.4833
   99SAPS  H15Y 9997   6.070   6.033   8.161 -1.6969 -0.3858 -1.3218
   99SAPS  C316 9998   6.111   6.246   8.224 -0.3412  0.3780 -0.5391
   99SAPS  H16X 9999   6.006   6.257   8.258  0.1604 -2.2378  2.2832
   99SAPS  H16Y10000   6.135   6.342   8.173 -0.3752  0.7096  0.0601
   99SAPS  C31710001   6.207   6.228   8.347 -0.4380  0.8601 -0.2490
   99SAPS  H17X10002   6.205   6.320   8.409 -1.6238  0.8685 -0.2786
   99SAPS  H17Y10003   6.313   6.231   8.312 -0.4461 -2.9677 -0.9531
   99SAPS  C31810004   6.189   6.105   8.436  0.0772 -0.0805  0.1861
   99SAPS  H18X10005   6.198   6.011   8.379 -1.7077 -0.2571  0.1464
   99SAPS  H18Y10006   6.085   6.093   8.474 -0.2768 -1.0214 -1.0250
   99SAPS  H18Z10007   6.265   6.107   8.517  1.8675  3.8441 -1.3346
  100SAPS     N10008   4.829   1.222   6.049 -0.2814  0.2598 -0.3643
  100SAPS   HN110009   4.831   1.139   5.987 -0.4655  0.7229 -0.9997
  100SAPS   HN210010   4.749   1.213   6.114  0.2036 -1.6835  0.0246
  100SAPS   HN310011   4.847   1.307   5.992  1.5187 -0.1561 -0.4614
  100SAPS   C1210012   4.946   1.216   6.143 -0.5823  0.0552  0.0105
  100SAPS  H12A10013   5.038   1.203   6.088 -0.9859  1.0727 -0.9450
  100SAPS   C1310014   4.955   1.358   6.219 -0.5329  0.0450  0.2701
  100SAPS  O13A10015   4.891   1.460   6.180 -0.7880  0.0181 -0.2921
  100SAPS  O13B10016   5.066   1.382   6.275  1.0342  0.1738  0.4253
  100SAPS   C1110017   4.936   1.099   6.246 -1.0148 -0.0543 -0.2888
  100SAPS  H11A10018   5.012   1.122   6.323 -1.7936 -1.3019  0.8858
  100SAPS  H11B10019   4.963   1.006   6.192  0.4860  1.6426 -2.6793
  100SAPS     P10020   4.783   1.109   6.465  0.0603  0.2048 -0.0081
  100SAPS   O1310021   4.747   1.254   6.478 -0.2933  0.3751  0.6872
  100SAPS   O1410022   4.683   1.010   6.514 -0.1034 -0.5014  0.4906
  100SAPS   O1210023   4.810   1.079   6.313 -0.0423 -0.4454  0.1646
  100SAPS   O1110024   4.919   1.078   6.543  0.1315 -0.0159  0.0120
  100SAPS    C110025   4.984   0.953   6.539 -0.3773  0.5411 -0.5937
  100SAPS    HA10026   4.913   0.869   6.523  0.0943  0.0571 -0.1629
  100SAPS    HB10027   5.070   0.946   6.470  0.8577  0.0367  0.9319
  100SAPS    C210028   5.036   0.913   6.681  0.0769  0.1906  0.1413
  100SAPS    HS10029   5.086   0.815   6.665  3.1836  1.9184 -1.7775
  100SAPS   O2110030   4.931   0.918   6.783  0.2611 -0.2862  0.3322
  100SAPS   C2110031   4.848   0.814   6.775 -0.3617  0.9776 -0.2456
  100SAPS   O2210032   4.852   0.725   6.690  0.7658 -0.6315  0.4473
  100SAPS   C2210033   4.744   0.822   6.889 -0.0678  0.3976 -0.3622
  100SAPS   H2R10034   4.778   0.905   6.955 -1.0775 -0.2018  0.9510
  100SAPS   H2S10035   4.644   0.848   6.850 -0.0777  0.9416  0.0103
  100SAPS    C310036   5.155   0.997   6.727  0.0998 -0.5139 -0.0152
  100SAPS    HX10037   5.121   1.093   6.771  0.3407 -0.1231 -0.6576
  100SAPS    HY10038   5.207   1.031   6.634  2.7761  2.2434  2.2531
  100SAPS   O3110039   5.250   0.927   6.808 -0.8239  0.3171 -0.1151
  100SAPS   C3110040   5.347   1.005   6.861  0.3997  0.2317  0.2918
  100SAPS   O3210041   5.358   1.122   6.826 -0.4437 -0.3801  0.0217
  100SAPS   C3210042   5.450   0.923   6.942  0.4902  0.0645 -0.6355
  100SAPS   H2X10043   5.550   0.942   6.897  0.9387  0.8975  0.6620
  100SAPS   H2Y10044   5.434   0.813   6.937  0.7788  0.0639 -1.8027
  100SAPS   C2310045   4.727   0.687   6.959  0.7927 -0.5134 -0.6977
  100SAPS   H3R10046   4.674   0.614   6.894 -0.0648 -0.9071  0.4160
  100SAPS   H3S10047   4.649   0.699   7.038  0.3002  0.7039 -1.3311
  100SAPS   C2410048   4.858   0.633   7.010 -0.2942  0.6280  0.3700
  100SAPS   H4R10049   4.922   0.712   7.056  0.5961 -1.0539  2.1697
  100SAPS   H4S10050   4.913   0.590   6.924  0.6132  2.2229  0.1198
  100SAPS   C2510051   4.831   0.533   7.116 -0.1964 -0.0015 -0.4445
  100SAPS   H5R10052   4.810   0.431   7.081 -0.3754 -0.3960  0.7549
  100SAPS   C2610053   4.834   0.558   7.246 -0.1671  0.4819  0.1951
  100SAPS   H6R10054   4.802   0.475   7.310 -3.2097  0.3108 -1.3348
  100SAPS   C2710055   4.869   0.690   7.318  0.4057  0.1028 -0.3270
  100SAPS   H7R10056   4.893   0.770   7.244  0.0380  0.4091 -0.1173
  100SAPS   H7S10057   4.969   0.689   7.368  0.8777  2.1231 -1.1090
  100SAPS   C2810058   4.760   0.725   7.420 -0.6986 -0.2944 -0.6693
  100SAPS   H8R10059   4.676   0.653   7.419 -2.4256  1.6286 -0.3705
  100SAPS   C2910060   4.762   0.821   7.512 -0.6140 -0.1449 -0.0962
  100SAPS   H9R10061   4.669   0.840   7.569 -0.4844  0.5669 -0.1110
  100SAPS  C21010062   4.871   0.922   7.533  0.7782  0.1915 -0.4967
  100SAPS  H10R10063   4.828   1.020   7.561 -0.9923 -0.1911 -1.7260
  100SAPS  H10S10064   4.927   0.939   7.439  3.4195  1.4306  1.1580
  100SAPS  C21110065   4.966   0.867   7.645  0.1931  0.5288 -0.0984
  100SAPS  H11R10066   4.956   0.758   7.656 -0.0375  0.6693  1.2331
  100SAPS  C21210067   5.034   0.939   7.736  0.4948 -0.4156 -0.5684
  100SAPS  H12R10068   5.065   0.892   7.831 -0.2231  0.6187  0.2049
  100SAPS  C21310069   5.040   1.091   7.726  0.0197  0.0772 -0.6338
  100SAPS  H13R10070   4.940   1.125   7.759 -0.1564 -2.3370  1.6500
  100SAPS  H13S10071   5.057   1.106   7.617  1.5293 -1.9569 -0.7398
  100SAPS  C21410072   5.153   1.139   7.823  0.0560  0.2602  0.5836
  100SAPS  H14R10073   5.256   1.110   7.795 -0.4095 -0.6472 -0.2479
  100SAPS  C21510074   5.139   1.204   7.935 -0.0084  0.5982 -0.2622
  100SAPS  H15R10075   5.225   1.210   8.004 -0.6144 -1.8495  0.7940
  100SAPS  C21610076   5.011   1.254   7.996  0.5860  0.1756  0.2208
  100SAPS  H16R10077   4.998   1.220   8.101  1.6750  1.2661  0.7338
  100SAPS  H16S10078   4.924   1.222   7.935  1.0774  0.3720 -0.6065
  100SAPS  C21710079   5.008   1.407   8.014 -0.1615 -0.2676 -0.1628
  100SAPS  H17R10080   5.086   1.428   8.089  0.5355  3.0842 -1.6572
  100SAPS  H17S10081   4.907   1.422   8.058 -0.8030 -4.9982  0.5033
  100SAPS  C21810082   5.033   1.503   7.894 -0.4059  0.3566 -0.2056
  100SAPS  H18R10083   4.954   1.490   7.816  0.3304  0.5032 -0.9842
  100SAPS  H18S10084   5.131   1.483   7.847  1.0618 -0.7845  3.0865
  100SAPS  C21910085   5.009   1.649   7.938  0.3660  0.0655 -0.1620
  100SAPS  H19R10086   5.068   1.674   8.028 -0.1921 -0.3502  0.3294
  100SAPS  H19S10087   4.900   1.672   7.950  0.6586  1.2889  0.2847
  100SAPS  C22010088   5.040   1.737   7.815 -0.0289  0.5721 -0.8085
  100SAPS  H20R10089   4.989   1.699   7.724  1.2233 -1.7044 -0.6267
  100SAPS  H20S10090   5.147   1.723   7.789  0.8066 -1.9643  3.1605
  100SAPS  H20T10091   5.014   1.845   7.821 -1.2332  0.2316  1.3040
  100SAPS   C3310092   5.454   0.951   7.095 -0.1173  0.3699  0.5507
  100SAPS   H3X10093   5.543   0.889   7.117 -0.5891 -1.5491 -2.3944
  100SAPS   H3Y10094   5.361   0.919   7.148  0.0902  0.1992  0.8130
  100SAPS   C3410095   5.492   1.098   7.127 -0.2029  0.8840  0.3609
  100SAPS   H4X10096   5.401   1.163   7.126 -0.1208  1.0036 -1.1951
  100SAPS   H4Y10097   5.554   1.135   7.043  1.2517 -0.3728  0.8424
  100SAPS   C3510098   5.577   1.105   7.265  0.3654  0.1660  0.3314
  100SAPS   H5X10099   5.606   1.211   7.280 -0.2102  0.3213  0.3777
  100SAPS   H5Y10100   5.671   1.047   7.261 -0.1155 -0.7260  1.4215
  100SAPS   C3610101   5.500   1.065   7.388  0.1775  0.3638  0.1403
  100SAPS   H6X10102   5.446   0.974   7.354 -1.3350  1.6349 -0.9759
  100SAPS   H6Y10103   5.418   1.139   7.397 -0.8589 -0.0735 -3.9302
  100SAPS   C3710104   5.591   1.041   7.513 -0.2433 -0.6011 -0.1783
  100SAPS   H7X10105   5.627   1.140   7.548 -1.8649 -0.2085  0.4419
  100SAPS   H7Y10106   5.683   0.987   7.480  1.6533  1.1950  1.9016
  100SAPS   C3810107   5.512   0.979   7.630 -0.7666  0.1571 -0.8362
  100SAPS   H8X10108   5.481   0.878   7.596 -0.3934 -0.6514  1.1083
  100SAPS   H8Y10109   5.418   1.036   7.646 -1.1330 -0.5050 -0.5742
  100SAPS   C3910110   5.583   0.967   7.764 -0.0102 -1.1307 -0.2404
  100SAPS   H9X10111   5.633   1.064   7.786 -0.6784 -0.2591 -2.3461
  100SAPS   H9Y10112   5.657   0.885   7.764 -2.3980 -3.4331 -1.3167
  100SAPS  C31010113   5.487   0.958   7.887 -0.7032 -0.5986 -0.2448
  100SAPS  H10X10114   5.419   0.874   7.865  1.0065 -1.6490 -1.8691
  100SAPS  H10Y10115   5.446   1.060   7.901  0.1569 -0.2592 -0.1268
  100SAPS  C31110116   5.555   0.903   8.019 -0.2720 -0.4858 -1.0072
  100SAPS  H11X10117   5.650   0.956   8.042 -0.4862 -0.4205 -0.2298
  100SAPS  H11Y10118   5.582   0.796   8.015  1.4502 -0.2013  1.3059
  100SAPS  C31210119   5.462   0.939   8.139  0.4938  0.1855 -0.1977
  100SAPS  H12X10120   5.430   1.045   8.130 -0.1111  0.0101 -0.1674
  100SAPS  H12Y10121   5.525   0.924   8.229 -0.4014  1.1378  0.6022
  100SAPS  C31310122   5.333   0.847   8.157  0.1449 -0.3653  0.0031
  100SAPS  H13X10123   5.377   0.746   8.172 -0.9664 -0.5621  2.4386
  100SAPS  H13Y10124   5.270   0.859   8.066 -0.4507  1.5750  0.6225
  100SAPS  C31410125   5.256   0.878   8.285 -0.5853 -0.3864 -0.3204
  100SAPS  H14X10126   5.217   0.982   8.279 -1.1698 -0.6339 -0.9689
  100SAPS  H14Y10127   5.332   0.872   8.365  1.2132  2.9947 -1.5699
  100SAPS  C31510128   5.133   0.781   8.309 -0.5816 -0.7778  0.0246
  100SAPS  H15X10129   5.139   0.750   8.415  1.3886 -0.3419  0.0821
  100SAPS  H15Y10130   5.145   0.692   8.244 -1.1282 -0.1972 -0.8907
  100SAPS  C31610131   4.997   0.841   8.282  0.3166 -0.5459 -0.7377
  100SAPS  H16X10132   4.921   0.760   8.285 -1.1271  0.7551 -0.9034
  100SAPS  H16Y10133   4.994   0.899   8.188  0.2083  0.7908  0.0690
  100SAPS  C31710134   4.952   0.924   8.400  0.4158 -0.8647 -0.1710
  100SAPS  H17X10135   5.044   0.979   8.430 -0.9884  1.1110  0.7611
  100SAPS  H17Y10136   4.919   0.856   8.482  0.2472  0.5093  0.9537
  100SAPS  C31810137   4.840   1.020   8.359 -0.6396  0.3722  0.7227
  100SAPS  H18X10138   4.797   1.065   8.451 -0.6499  0.4004  0.7041
  100SAPS  H18Y10139   4.762   0.954   8.317 -1.3383  2.1096 -0.8314
  100SAPS  H18Z10140   4.886   1.088   8.284 -2.1855  1.5014  0.7506
  101OSM      N10141   3.307   0.865  10.847 -0.1457 -0.0093  0.7446
  101OSM    C1510142   3.446   0.825  10.823 -0.7583 -0.3111 -0.3662
  101OSM   H15A10143   3.447   0.721  10.794  1.6271 -0.2208 -0.8615
  101OSM   H15B10144   3.509   0.813  10.910  2.2827 -1.7774 -2.5483
  101OSM   H15C10145   3.505   0.881  10.752 -0.5592 -0.2847 -0.1830
  101OSM    C1410146   3.248   0.758  10.931  1.2512 -0.0325 -0.7926
  101OSM   H14A10147   3.303   0.763  11.024 -1.4200  0.8485  0.8571
  101OSM   H14B10148   3.259   0.661  10.886 -1.2878 -0.0214 -1.5600
  101OSM   H14C10149   3.142   0.777  10.941  0.7842 -2.8739  0.8853
  101OSM    C1310150   3.314   0.993  10.918  0.4245 -0.5253  0.1168
  101OSM   H13A10151   3.339   1.072  10.850  0.9551 -0.8542 -0.0758
  101OSM   H13B10152   3.382   0.979  11.001 -0.8410 -4.6171  0.6912
  101OSM   H13C10153   3.216   1.011  10.958  0.1777 -0.6447 -0.4230
  101OSM    C1210154   3.234   0.881  10.713  0.7512  0.7450 -0.1256
  101OSM   H12A10155   3.263   0.791  10.659  1.1485  0.1964  0.9648
  101OSM   H12B10156   3.279   0.967  10.665  0.6540  0.8341 -0.0543
  101OSM    C1110157   3.086   0.905  10.709 -0.1033  0.3091  0.5839
  101OSM   H11A10158   3.048   0.811  10.755  0.7503  0.8866  2.5857
  101OSM   H11B10159   3.051   0.916  10.605  2.1481  4.7461  0.0749
  101OSM      P10160   2.901   1.037  10.841  0.1950  0.1505  0.0623
  101OSM    O1310161   2.844   0.911  10.902  0.5140 -1.4700  0.0348
  101OSM    O1410162   2.907   1.154  10.933 -0.5330 -0.1411  0.6934
  101OSM    O1110163   2.816   1.065  10.708 -0.3831  0.0350  0.3784
  101OSM    O1210164   3.045   1.013  10.796  1.1231 -0.4086 -0.4613
  101OSM    C1S10165   2.815   1.201  10.674 -0.7432 -0.4250  0.5629
  101OSM    H1S10166   2.917   1.245  10.670 -0.6644 -0.6986 -0.7576
  101OSM    H1T10167   2.753   1.264  10.741 -2.2124  0.0198 -1.1433
  101OSM     NF10168   2.758   1.363  10.493 -0.0047  0.2757 -0.1355
  101OSM    HNF10169   2.669   1.404  10.475  0.6629  1.0678 -1.9888
  101OSM    C2S10170   2.762   1.219  10.527 -0.4008  0.2975 -0.4534
  101OSM    H2S10171   2.838   1.173  10.460 -0.1340  0.7603 -0.4740
  101OSM    C3S10172   2.628   1.144  10.496 -0.0818  0.4300  0.0625
  101OSM    H3S10173   2.550   1.184  10.565  0.9800  2.1891  0.3255
  101OSM     O310174   2.652   1.005  10.499 -0.3726  0.6404  0.1914
  101OSM    HO310175   2.733   0.996  10.551 -0.8150  2.5108  1.2807
  101OSM    C4S10176   2.592   1.174  10.354  0.2912 -0.2637 -0.3572
  101OSM    H4S10177   2.658   1.125  10.281  0.5763 -0.8119  0.2544
  101OSM    C5S10178   2.480   1.246  10.315  0.0747  0.8158  0.2685
  101OSM    H5S10179   2.412   1.281  10.394  1.4265  1.1415  1.3442
  101OSM    C6S10180   2.443   1.279  10.173 -0.2981  0.3389 -0.0432
  101OSM    H6S10181   2.482   1.382  10.161  1.0140 -0.0728  0.5062
  101OSM    H6T10182   2.333   1.269  10.164 -0.3002 -2.4588  1.8288
  101OSM    C7S10183   2.503   1.192  10.061  0.0798  0.1029  0.9888
  101OSM    H7S10184   2.513   1.089  10.103  4.5362 -0.5142 -1.0153
  101OSM    H7T10185   2.607   1.221  10.037  0.5473  1.0214  3.8177
  101OSM    C8S10186   2.422   1.211   9.930  0.1089 -1.0063  0.4309
  101OSM    H8S10187   2.407   1.319   9.913  0.1278 -1.1109 -0.2671
  101OSM    H8T10188   2.325   1.158   9.946  0.2499 -1.2516  0.4745
  101OSM    C9S10189   2.492   1.168   9.804  0.0551  0.0948 -0.6314
  101OSM    H9S10190   2.510   1.059   9.806  1.7680  0.3508  1.7072
  101OSM    H9T10191   2.589   1.222   9.809  0.6237 -0.9904  0.4612
  101OSM   C10S10192   2.428   1.216   9.661 -0.1580  0.5744 -0.4619
  101OSM   H10S10193   2.453   1.152   9.573 -0.4185  0.7862 -0.6927
  101OSM   H10T10194   2.465   1.320   9.644  2.4902 -0.5252 -2.1338
  101OSM   C11S10195   2.273   1.226   9.665  0.7239 -0.3008  1.0913
  101OSM   H11S10196   2.249   1.265   9.767 -1.2259 -1.9640  1.3451
  101OSM   H11T10197   2.232   1.123   9.657  1.9628 -0.6422 -1.9456
  101OSM   C12S10198   2.217   1.320   9.560 -0.0139  0.0383 -0.3892
  101OSM   H12S10199   2.279   1.409   9.537  0.4927  0.9300  3.6958
  101OSM   H12T10200   2.126   1.359   9.610  1.2190 -0.1017  2.1273
  101OSM   C13S10201   2.177   1.237   9.441  0.3271 -0.1819  0.4210
  101OSM   H13S10202   2.108   1.151   9.457  1.9848 -1.3728  1.5799
  101OSM   H13T10203   2.267   1.184   9.403 -0.0484  0.2740 -1.1909
  101OSM   C14S10204   2.127   1.328   9.323  0.3036 -0.5063  0.0161
  101OSM   H14S10205   2.203   1.405   9.299  0.5558 -0.1851  1.7022
  101OSM   H14T10206   2.028   1.372   9.350 -0.4131 -1.5104 -0.8773
  101OSM   C15S10207   2.106   1.253   9.189 -1.3372  0.1341  0.6485
  101OSM   H15S10208   2.032   1.170   9.197  1.5161 -2.5678  1.1067
  101OSM   H15T10209   2.210   1.217   9.177 -0.7499  1.4759  1.5472
  101OSM   C16S10210   2.065   1.344   9.076  0.5094  0.0714  0.1450
  101OSM   H16S10211   2.151   1.411   9.056  0.3419  0.0935 -0.5478
  101OSM   H16T10212   1.975   1.399   9.109  1.3068  0.2104  2.1830
  101OSM   C17S10213   2.041   1.276   8.929  0.7368 -0.9924 -0.7958
  101OSM   H17S10214   1.977   1.350   8.876  0.5786  2.0377  3.1658
  101OSM   H17T10215   1.976   1.187   8.947 -1.1408  0.3556 -0.5890
  101OSM   C18S10216   2.170   1.244   8.847 -0.5192  0.9273  0.2960
  101OSM   H18S10217   2.247   1.191   8.907  0.9908  1.4589 -1.1114
  101OSM   H18T10218   2.219   1.339   8.817  1.5226  1.3226  4.1797
  101OSM   H18U10219   2.149   1.186   8.755 -0.3034 -0.2671  0.9716
  101OSM    C1F10220   2.868   1.432  10.476  0.2301  0.5007 -0.2523
  101OSM     OF10221   2.981   1.380  10.469  0.2829 -0.5658  0.4944
  101OSM    C2F10222   2.857   1.580  10.453  0.7093  0.3696 -1.0476
  101OSM    H2F10223   2.949   1.602  10.395  0.6229  0.5684 -1.1120
  101OSM    H2G10224   2.879   1.630  10.550  1.4977 -0.6490 -0.6936
  101OSM    C3F10225   2.730   1.630  10.379 -0.1795  0.1917  0.0334
  101OSM    H3F10226   2.725   1.741  10.392 -0.2052  0.2004 -0.0446
  101OSM    H3G10227   2.640   1.599  10.434 -1.2614  0.3194 -1.5913
  101OSM    C4F10228   2.714   1.581  10.234  0.4552 -0.7315 -0.5649
  101OSM    H4F10229   2.625   1.633  10.191 -0.3884  1.1781  3.1334
  101OSM    H4G10230   2.696   1.471  10.234  0.3861 -0.7269  0.7868
  101OSM    C5F10231   2.831   1.606  10.142 -0.2646 -0.0351  0.0934
  101OSM    H5F10232   2.933   1.584  10.180 -0.4945 -4.4936 -1.3030
  101OSM    H5G10233   2.842   1.707  10.098  4.5951 -0.1408  0.5345
  101OSM    C6F10234   2.813   1.516  10.014 -0.3742  0.1800  0.4188
  101OSM    H6F10235   2.820   1.409  10.044  2.3393  0.1731 -0.0044
  101OSM    H6G10236   2.900   1.538   9.949 -1.5418  1.2505 -0.8468
  101OSM    C7F10237   2.693   1.545   9.924 -0.9765  0.2066 -0.3200
  101OSM    H7F10238   2.669   1.654   9.933  1.5136  1.4692 -5.4124
  101OSM    H7G10239   2.604   1.493   9.963 -0.6922  1.0429  1.5898
  101OSM    C8F10240   2.711   1.506   9.775  0.6648 -0.4434 -0.3208
  101OSM    H8F10241   2.702   1.396   9.759 -0.7101 -0.0941 -2.4858
  101OSM    H8G10242   2.805   1.552   9.739  1.2602 -0.9587  0.5322
  101OSM    C9F10243   2.597   1.567   9.690 -0.6069  0.5143 -0.4390
  101OSM    H9F10244   2.548   1.654   9.736  2.0444  0.8662  2.0423
  101OSM   C10F10245   2.589   1.548   9.558  0.2794  0.4485  0.1467
  101OSM   H10F10246   2.515   1.607   9.502  1.7270 -0.0991 -2.5152
  101OSM   C11F10247   2.682   1.474   9.463 -0.0620  0.5785  0.2736
  101OSM   H11F10248   2.733   1.401   9.530 -1.1908 -1.0833 -0.5851
  101OSM   H11G10249   2.756   1.544   9.420  0.2940  0.4563  0.6797
  101OSM   C12F10250   2.610   1.398   9.351  0.4284  0.1513 -0.5750
  101OSM   H12F10251   2.529   1.338   9.398 -0.5402  1.2126 -0.8606
  101OSM   H12G10252   2.684   1.335   9.296  0.9765  0.5728 -0.3286
  101OSM   C13F10253   2.549   1.494   9.257 -0.7743  0.2589 -0.8229
  101OSM   H13F10254   2.629   1.559   9.214  1.1323 -0.7236  1.0304
  101OSM   H13G10255   2.467   1.558   9.296 -0.0120  0.4845  0.4595
  101OSM   C14F10256   2.492   1.415   9.138 -0.4214  0.4545 -0.4002
  101OSM   H14F10257   2.415   1.345   9.177  2.4050 -1.6102  1.8729
  101OSM   H14G10258   2.569   1.346   9.097  1.9434  2.1260  0.9811
  101OSM   C15F10259   2.438   1.503   9.023  0.0046 -0.0100  0.6456
  101OSM   H15F10260   2.368   1.583   9.056  0.2814  0.3903  0.2714
  101OSM   H15G10261   2.386   1.428   8.960  0.1419  0.2271  0.2460
  101OSM   C16F10262   2.553   1.554   8.936 -0.1498 -0.3328 -0.5995
  101OSM   H16F10263   2.596   1.466   8.883  1.2372 -1.6927  2.5184
  101OSM   H16G10264   2.638   1.593   8.996 -0.2071  0.9607 -1.3324
  101OSM   C17F10265   2.520   1.665   8.841  0.4197 -0.2652  0.8915
  101OSM   H17F10266   2.607   1.708   8.786  0.4507 -1.4839 -0.0587
  101OSM   H17G10267   2.475   1.749   8.898 -1.4768 -0.7241  0.1463
  101OSM   C18F10268   2.410   1.635   8.734  0.5262 -0.4360 -0.8524
  101OSM   H18F10269   2.391   1.722   8.668 -1.1531  0.2568  0.4826
  101OSM   H18G10270   2.315   1.607   8.783  1.0106 -0.9754 -0.1891
  101OSM   H18H10271   2.450   1.552   8.671 -0.3311 -2.0692  0.6777
  102OSM      N10272   2.554   0.237  11.210 -1.0086 -0.0989 -0.3333
  102OSM    C1510273   2.455   0.329  11.283 -0.1604 -0.0157  0.7852
  102OSM   H15A10274   2.459   0.336  11.391  0.4200 -0.6523  0.8156
  102OSM   H15B10275   2.354   0.314  11.248  0.4279 -1.4658 -0.3617
  102OSM   H15C10276   2.470   0.432  11.255  2.4983 -0.2135  1.1795
  102OSM    C1410277   2.687   0.262  11.263 -0.0145 -0.3060 -0.0001
  102OSM   H14A10278   2.683   0.259  11.371 -1.3292  1.1084  0.0138
  102OSM   H14B10279   2.720   0.360  11.233 -1.1279 -0.4004 -1.6752
  102OSM   H14C10280   2.765   0.196  11.226  0.4633  1.0054 -1.4373
  102OSM    C1310281   2.517   0.096  11.254 -1.0080  0.3919  0.4148
  102OSM   H13A10282   2.590   0.027  11.216 -1.3647  0.2204  0.0362
  102OSM   H13B10283   2.418   0.071  11.220 -0.4775  1.1640 -1.8742
  102OSM   H13C10284   2.522   0.098  11.362  0.3014 -1.6255  0.4380
  102OSM    C1210285   2.548   0.254  11.062  0.4737  0.3845 -0.6893
  102OSM   H12A10286   2.445   0.232  11.039  0.9658 -2.6269 -0.3427
  102OSM   H12B10287   2.608   0.183  11.008  1.9208  0.2980  0.9733
  102OSM    C1110288   2.596   0.386  11.004  0.4725  0.1630  0.4035
  102OSM   H11A10289   2.570   0.376  10.896  3.4017  0.3825 -0.4013
  102OSM   H11B10290   2.707   0.383  11.000  0.5083 -3.4474  0.5929
  102OSM      P10291   2.387   0.551  11.019  0.3332  0.5593 -0.5341
  102OSM    O1310292   2.319   0.457  10.925 -0.3546  0.2920 -0.5000
  102OSM    O1410293   2.312   0.586  11.145 -0.2686 -0.1089  0.1182
  102OSM    O1110294   2.401   0.683  10.935  0.5322 -0.2005  0.4923
  102OSM    O1210295   2.536   0.509  11.051 -1.0076 -0.1824 -0.1721
  102OSM    C1S10296   2.511   0.709  10.846  0.4318  0.7333 -0.0043
  102OSM    H1S10297   2.599   0.647  10.873 -0.0249  0.5260  1.0732
  102OSM    H1T10298   2.543   0.816  10.842 -3.2605  2.0351  0.7446
  102OSM     NF10299   2.595   0.698  10.611 -0.4889 -0.2353  0.1924
  102OSM    HNF10300   2.589   0.780  10.554  1.7823 -0.5313 -0.5708
  102OSM    C2S10301   2.482   0.669  10.697 -0.2658  0.0082 -0.5215
  102OSM    H2S10302   2.462   0.560  10.689  0.5199 -0.2184  0.4704
  102OSM    C3S10303   2.348   0.743  10.653  0.3319  0.0619 -0.2897
  102OSM    H3S10304   2.365   0.850  10.673 -2.5375  0.1521  2.2279
  102OSM     O310305   2.229   0.707  10.724 -0.1618  0.2968 -0.3260
  102OSM    HO310306   2.260   0.650  10.795  2.3474  3.2580  1.2255
  102OSM    C4S10307   2.317   0.717  10.515 -0.2207  0.3211  0.4150
  102OSM    H4S10308   2.261   0.622  10.509 -0.4702  0.4948  0.0422
  102OSM    C5S10309   2.336   0.800  10.406  0.6432  0.5043  0.8946
  102OSM    H5S10310   2.368   0.905  10.422  2.6042  0.0095  0.4415
  102OSM    C6S10311   2.294   0.742  10.269 -0.1731 -0.4788  1.0173
  102OSM    H6S10312   2.237   0.647  10.274 -1.2213  0.1419  1.3831
  102OSM    H6T10313   2.388   0.708  10.221 -0.3740 -0.1127  0.3494
  102OSM    C7S10314   2.226   0.850  10.178 -0.4177 -0.4364 -0.7729
  102OSM    H7S10315   2.292   0.939  10.167 -0.0732 -0.5224  0.4193
  102OSM    H7T10316   2.138   0.876  10.242  0.5683  1.8260 -0.2253
  102OSM    C8S10317   2.181   0.795  10.045  0.6334 -0.7414 -0.0810
  102OSM    H8S10318   2.130   0.697  10.060 -0.6459 -0.0216  0.4607
  102OSM    H8T10319   2.261   0.767   9.974 -0.3319  0.1010 -1.5478
  102OSM    C9S10320   2.071   0.876   9.977  0.3314  0.2066 -0.6907
  102OSM    H9S10321   2.101   0.978   9.946  1.2012  0.3324  0.5119
  102OSM    H9T10322   1.989   0.881  10.051 -1.2183 -3.1209 -1.9326
  102OSM   C10S10323   2.004   0.796   9.858  0.5765  0.1500 -0.1778
  102OSM   H10S10324   1.899   0.825   9.837  0.0230 -0.3897  1.6353
  102OSM   H10T10325   2.000   0.690   9.892  1.7212 -0.0677 -0.6623
  102OSM   C11S10326   2.075   0.809   9.721 -0.9548 -0.7969  0.0152
  102OSM   H11S10327   2.172   0.756   9.734  0.4067  1.6126  0.2223
  102OSM   H11T10328   2.098   0.908   9.676  2.3491 -1.6760 -0.5166
  102OSM   C12S10329   1.982   0.735   9.619 -0.4407  0.5541  0.4586
  102OSM   H12S10330   1.895   0.800   9.597 -1.3976 -1.2717 -1.4611
  102OSM   H12T10331   1.945   0.639   9.662  0.9097 -0.2660 -0.1331
  102OSM   C13S10332   2.050   0.708   9.479  1.0659  0.0242 -0.9729
  102OSM   H13S10333   1.979   0.655   9.412 -0.2404 -3.1591  2.5707
  102OSM   H13T10334   2.128   0.631   9.493 -1.4995 -2.3540  1.3301
  102OSM   C14S10335   2.111   0.838   9.404  0.6635  0.5706  0.1879
  102OSM   H14S10336   2.221   0.838   9.419  0.8179  2.6980 -0.6203
  102OSM   H14T10337   2.058   0.933   9.427 -0.4000  0.0995 -0.2408
  102OSM   C15S10338   2.104   0.816   9.253 -0.2054  0.4997  0.2646
  102OSM   H15S10339   2.114   0.708   9.226  2.1249  0.9520 -0.8723
  102OSM   H15T10340   2.193   0.865   9.209  0.3168 -0.0052  0.7506
  102OSM   C16S10341   1.966   0.850   9.191 -0.1608 -1.0928 -0.3742
  102OSM   H16S10342   1.957   0.959   9.175 -0.3662 -1.4620 -3.2657
  102OSM   H16T10343   1.888   0.846   9.270  0.7487  1.7241  0.7866
  102OSM   C17S10344   1.935   0.770   9.064  0.1564  0.0438 -0.7711
  102OSM   H17S10345   1.962   0.663   9.078 -1.3565 -0.2350  0.1770
  102OSM   H17T10346   2.008   0.799   8.985  1.3215 -0.1605  0.2082
  102OSM   C18S10347   1.790   0.777   9.017 -0.3607 -0.4447 -0.1440
  102OSM   H18S10348   1.725   0.761   9.105  1.4784  1.2496  1.6346
  102OSM   H18T10349   1.762   0.705   8.937 -2.3383 -0.2936  0.3591
  102OSM   H18U10350   1.761   0.875   8.972 -1.9463 -0.8777 -0.1072
  102OSM    C1F10351   2.713   0.640  10.622  0.9365  0.3765 -0.2603
  102OSM     OF10352   2.719   0.533  10.683  0.5259 -0.1991  0.0287
  102OSM    C2F10353   2.830   0.692  10.554 -0.7566  0.1026  0.1377
  102OSM    H2F10354   2.921   0.656  10.608 -1.4220 -2.5236 -0.3621
  102OSM    H2G10355   2.828   0.803  10.556 -1.5563  0.0839  0.9623
  102OSM    C3F10356   2.834   0.647  10.404 -1.1303  0.6026  0.8292
  102OSM    H3F10357   2.810   0.538  10.399 -1.2452  0.6299  0.7765
  102OSM    H3G10358   2.941   0.653  10.375 -0.8823  0.7642  1.7430
  102OSM    C4F10359   2.763   0.743  10.307  0.7040 -0.0382 -0.1552
  102OSM    H4F10360   2.825   0.835  10.314  0.5694  0.1171 -0.9640
  102OSM    H4G10361   2.665   0.767  10.355  0.4990  1.0488 -1.0746
  102OSM    C5F10362   2.737   0.701  10.161  0.1047  0.0688  0.7304
  102OSM    H5F10363   2.685   0.604  10.171 -0.1681  0.1641  0.2694
  102OSM    H5G10364   2.831   0.691  10.103 -1.1366 -0.2386 -1.3398
  102OSM    C6F10365   2.661   0.806  10.084 -0.8417  0.5605  0.0474
  102OSM    H6F10366   2.708   0.907  10.083 -2.4128  1.3271  0.1570
  102OSM    H6G10367   2.570   0.831  10.143  0.2503  0.8321  1.6969
  102OSM    C7F10368   2.623   0.760   9.944  0.2267 -0.4002 -0.5340
  102OSM    H7F10369   2.537   0.824   9.915  0.1017  0.4885  1.6300
  102OSM    H7G10370   2.576   0.659   9.950 -0.4545 -0.0261  0.9717
  102OSM    C8F10371   2.733   0.762   9.847 -0.6831  0.3536  0.3216
  102OSM    H8F10372   2.831   0.774   9.899 -0.7967  1.2593  0.3441
  102OSM    H8G10373   2.726   0.857   9.789  2.1290  2.0777  2.5467
  102OSM    C9F10374   2.743   0.629   9.773  0.1876 -0.0075 -0.0109
  102OSM    H9F10375   2.766   0.537   9.828  0.0550  0.0389  0.1238
  102OSM   C10F10376   2.717   0.616   9.639 -0.5907  0.1595 -0.0131
  102OSM   H10F10377   2.715   0.516   9.592 -0.0997  0.2627 -0.2713
  102OSM   C11F10378   2.672   0.724   9.549  0.6900 -0.2085 -0.2555
  102OSM   H11F10379   2.673   0.682   9.446 -0.7039  1.6897 -1.1152
  102OSM   H11G10380   2.725   0.822   9.554  1.6087 -0.4950 -2.9956
  102OSM   C12F10381   2.523   0.769   9.568 -0.5040  0.6663  0.2972
  102OSM   H12F10382   2.506   0.782   9.677 -0.6585  1.0345  0.2314
  102OSM   H12G10383   2.447   0.696   9.535 -1.0298  2.0133 -1.6909
  102OSM   C13F10384   2.497   0.903   9.497  0.6957  0.2353 -0.4380
  102OSM   H13F10385   2.547   0.984   9.554  0.0745  0.8989 -0.8237
  102OSM   H13G10386   2.388   0.920   9.512  0.5524 -1.2332  0.3786
  102OSM   C14F10387   2.527   0.914   9.351  0.4015  0.2211 -0.1807
  102OSM   H14F10388   2.505   0.817   9.302  2.2494 -1.0017  1.3192
  102OSM   H14G10389   2.635   0.937   9.342  0.1208  1.4937 -0.5542
  102OSM   C15F10390   2.456   1.025   9.272 -0.2213 -0.1646  0.2846
  102OSM   H15F10391   2.502   1.123   9.299  0.6964 -0.5066 -0.0005
  102OSM   H15G10392   2.349   1.024   9.301 -0.0309 -1.6405  0.9990
  102OSM   C16F10393   2.462   1.014   9.120  0.4444  0.0162  0.0035
  102OSM   H16F10394   2.440   1.118   9.087 -0.4724 -0.5250 -1.1828
  102OSM   H16G10395   2.392   0.938   9.079  1.3964 -0.5725 -0.5629
  102OSM   C17F10396   2.602   0.980   9.062  0.4610 -0.8813 -0.1431
  102OSM   H17F10397   2.588   0.954   8.954 -0.2026  2.7801 -1.0712
  102OSM   H17G10398   2.637   0.886   9.110  1.6624  0.3369  1.4483
  102OSM   C18F10399   2.714   1.085   9.069  0.4139  0.0712  0.4395
  102OSM   H18F10400   2.733   1.125   9.170  0.8437  1.8859 -0.3323
  102OSM   H18G10401   2.667   1.171   9.017 -0.5824 -1.3529 -1.1522
  102OSM   H18H10402   2.805   1.059   9.010 -0.3616  0.5407 -1.0113
  103OSM      N10403   4.156   3.247  11.112 -0.4567 -0.2013 -0.8754
  103OSM    C1510404   4.138   3.368  11.188 -0.0408  0.3350 -0.3449
  103OSM   H15A10405   4.167   3.458  11.136 -0.3292 -0.5629 -2.1236
  103OSM   H15B10406   4.198   3.361  11.278 -2.1458 -0.0554  1.1090
  103OSM   H15C10407   4.042   3.381  11.235  0.6490  0.8032  0.9870
  103OSM    C1410408   4.299   3.234  11.070  0.1656 -0.1781  0.0894
  103OSM   H14A10409   4.358   3.236  11.161  0.6150  1.1128 -0.2172
  103OSM   H14B10410   4.341   3.312  11.008  0.6305  0.7736  1.5494
  103OSM   H14C10411   4.316   3.140  11.019 -1.5189  0.0437 -0.9569
  103OSM    C1310412   4.115   3.140  11.203 -0.4371 -0.8828  0.0465
  103OSM   H13A10413   4.175   3.148  11.292  0.5569 -0.5534 -0.6230
  103OSM   H13B10414   4.121   3.042  11.158  2.1138 -1.2712  1.0599
  103OSM   H13C10415   4.012   3.159  11.228  0.2022  0.7763  1.6066
  103OSM    C1210416   4.060   3.249  10.992 -0.2842 -0.2686 -0.4800
  103OSM   H12A10417   4.079   3.165  10.927 -1.6036 -0.1073 -1.1183
  103OSM   H12B10418   4.094   3.328  10.926  2.2877  0.4137  1.5029
  103OSM    C1110419   3.906   3.265  11.018 -0.6758  0.0693 -0.0815
  103OSM   H11A10420   3.881   3.173  11.075 -0.7529 -0.5706 -1.1218
  103OSM   H11B10421   3.853   3.263  10.921  1.5764  1.4944 -1.4369
  103OSM      P10422   3.795   3.499  11.049  0.4258  0.2608  0.0056
  103OSM    O1310423   3.654   3.471  11.085 -0.0487 -0.5144  0.1137
  103OSM    O1410424   3.855   3.628  11.085 -0.6637 -0.4049 -0.3870
  103OSM    O1110425   3.815   3.495  10.891  0.4116  0.0739 -0.0703
  103OSM    O1210426   3.883   3.379  11.098 -0.3739 -0.2155 -0.7425
  103OSM    C1S10427   3.931   3.548  10.829 -0.1682 -0.8108 -0.8112
  103OSM    H1S10428   4.019   3.532  10.895 -0.8554 -1.3831 -0.0046
  103OSM    H1T10429   3.921   3.657  10.810  0.6024 -0.6867 -0.5007
  103OSM     NF10430   4.090   3.553  10.657 -0.6004 -0.2174  0.0329
  103OSM    HNF10431   4.097   3.609  10.575  0.6190 -3.3266 -2.1654
  103OSM    C2S10432   3.958   3.503  10.690 -0.0449  0.9218 -0.2156
  103OSM    H2S10433   3.957   3.392  10.701 -2.0714  1.0138  1.0713
  103OSM    C3S10434   3.845   3.549  10.591 -0.0867  0.2941 -0.5548
  103OSM    H3S10435   3.848   3.660  10.590  0.6662  0.2733 -1.3715
  103OSM     O310436   3.715   3.522  10.631 -0.1909 -0.1792 -0.2121
  103OSM    HO310437   3.735   3.496  10.721 -0.1730 -0.8261 -0.3974
  103OSM    C4S10438   3.881   3.491  10.455 -0.3854 -0.5783  0.4296
  103OSM    H4S10439   3.949   3.563  10.406 -2.6984  3.7219  2.9638
  103OSM    C5S10440   3.852   3.377  10.390  0.0781  0.1818 -0.2189
  103OSM    H5S10441   3.800   3.299  10.448  0.6204  2.0358  2.9841
  103OSM    C6S10442   3.895   3.330  10.252  0.0693 -0.0366 -0.3727
  103OSM    H6S10443   3.810   3.292  10.191 -0.5982 -2.0080  1.6535
  103OSM    H6T10444   3.965   3.244  10.266 -0.8902 -0.5426  1.6719
  103OSM    C7S10445   3.984   3.436  10.174  0.3763  0.6819  0.3139
  103OSM    H7S10446   4.069   3.482  10.230  1.2391 -2.2276  1.6126
  103OSM    H7T10447   3.917   3.512  10.129  0.9722  1.1254  0.1528
  103OSM    C8S10448   4.047   3.371  10.044 -0.9863 -0.0272 -0.6210
  103OSM    H8S10449   3.961   3.367   9.973 -0.1632  3.0395 -1.9447
  103OSM    H8T10450   4.086   3.271  10.072  0.3697  0.8953  0.9288
  103OSM    C9S10451   4.152   3.456   9.968 -0.2926 -0.4010 -0.6623
  103OSM    H9S10452   4.196   3.394   9.887  1.2890 -2.0004  1.3136
  103OSM    H9T10453   4.236   3.476  10.038 -0.5637 -0.4276 -0.3296
  103OSM   C10S10454   4.102   3.590   9.923 -0.2141 -0.4082  0.5524
  103OSM   H10S10455   4.088   3.654  10.013 -0.6477 -0.5151  0.5646
  103OSM   H10T10456   4.006   3.598   9.868 -0.8441  0.6425  1.7616
  103OSM   C11S10457   4.195   3.651   9.822  0.1469  0.1793  0.0610
  103OSM   H11S10458   4.297   3.634   9.862  0.3864  1.5465  0.0800
  103OSM   H11T10459   4.177   3.761   9.831  0.3572  0.2082  0.1289
  103OSM   C12S10460   4.172   3.609   9.686  0.0627 -0.3819  0.2249
  103OSM   H12S10461   4.063   3.595   9.668 -0.6026  1.1617  2.5869
  103OSM   H12T10462   4.225   3.512   9.688  0.4588 -0.1636  0.3183
  103OSM   C13S10463   4.237   3.698   9.580 -0.1638 -0.3535 -1.0644
  103OSM   H13S10464   4.344   3.720   9.601  0.0168 -0.5874 -1.7070
  103OSM   H13T10465   4.176   3.789   9.589  3.5287  2.1718  1.2741
  103OSM   C14S10466   4.238   3.641   9.437  0.0178  0.2425 -0.1460
  103OSM   H14S10467   4.285   3.541   9.434  0.2540  0.3277  0.6510
  103OSM   H14T10468   4.306   3.709   9.381 -1.1124  0.4348 -1.3600
  103OSM   C15S10469   4.102   3.618   9.372  0.0018 -0.1712  0.1752
  103OSM   H15S10470   4.038   3.708   9.385  0.9017  0.4911  0.1031
  103OSM   H15T10471   4.050   3.537   9.427  1.7609  0.1685  2.4679
  103OSM   C16S10472   4.114   3.588   9.221  0.8948  0.5397  0.2878
  103OSM   H16S10473   4.159   3.487   9.223  2.9408  1.3918  1.8711
  103OSM   H16T10474   4.187   3.655   9.171  2.4373 -1.3505 -0.0827
  103OSM   C17S10475   3.973   3.598   9.147  0.1694  0.4078 -0.4099
  103OSM   H17S10476   3.983   3.581   9.037  0.5846 -3.7791  0.1234
  103OSM   H17T10477   3.941   3.704   9.154 -0.6029  0.1909 -0.5514
  103OSM   C18S10478   3.875   3.500   9.201  0.0836  0.2115  0.8578
  103OSM   H18S10479   3.915   3.397   9.186  1.7241  0.8030  1.0282
  103OSM   H18T10480   3.781   3.504   9.142  0.6819  0.3548 -0.1150
  103OSM   H18U10481   3.865   3.505   9.312  0.2738 -0.6213  0.9249
  103OSM    C1F10482   4.206   3.515  10.705  0.1639 -0.2748  0.4296
  103OSM     OF10483   4.205   3.427  10.785  0.3205  0.4051  0.0953
  103OSM    C2F10484   4.333   3.565  10.649 -0.0527 -0.4986  0.2504
  103OSM    H2F10485   4.387   3.618  10.731 -0.5121 -0.0757  0.2873
  103OSM    H2G10486   4.313   3.628  10.560 -0.2857 -1.7189 -0.5735
  103OSM    C3F10487   4.429   3.455  10.605  0.1842  0.7207 -0.0555
  103OSM    H3F10488   4.436   3.376  10.683 -2.1622  2.0147  1.5632
  103OSM    H3G10489   4.533   3.494  10.602  1.5099 -2.4842 -0.9754
  103OSM    C4F10490   4.411   3.388  10.468  0.1381  0.4588 -0.0958
  103OSM    H4F10491   4.381   3.469  10.399 -1.5093  0.0429  0.0993
  103OSM    H4G10492   4.327   3.317  10.468 -2.6846  3.4127  2.7718
  103OSM    C5F10493   4.539   3.323  10.401 -0.3422  0.5373 -1.3125
  103OSM    H5F10494   4.568   3.234  10.461  0.1665  1.2302 -0.5186
  103OSM    H5G10495   4.619   3.400  10.396  1.5389 -1.1534  0.5211
  103OSM    C6F10496   4.521   3.280  10.259  0.4781 -0.1876  0.5525
  103OSM    H6F10497   4.423   3.229  10.264  1.2397 -1.8722 -0.6539
  103OSM    H6G10498   4.595   3.200  10.234 -1.6014 -1.8245 -0.7866
  103OSM    C7F10499   4.520   3.390  10.148  0.7817  0.1860 -0.0077
  103OSM    H7F10500   4.607   3.459  10.139  0.4410  0.4392 -1.7595
  103OSM    H7G10501   4.429   3.445  10.181  0.9837 -0.8933  2.5264
  103OSM    C8F10502   4.493   3.330  10.001  0.2637 -0.1892  0.0628
  103OSM    H8F10503   4.450   3.407   9.933 -1.6144 -1.9610 -0.8624
  103OSM    H8G10504   4.420   3.246  10.000  0.4986 -0.3915 -0.8674
  103OSM    C9F10505   4.623   3.287   9.934  0.5591 -0.4652 -0.9317
  103OSM    H9F10506   4.694   3.236  10.001  0.0786 -1.5568 -1.2389
  103OSM   C10F10507   4.667   3.331   9.818 -0.1618 -0.1188 -0.2110
  103OSM   H10F10508   4.762   3.292   9.779 -0.8074 -2.2089  0.1832
  103OSM   C11F10509   4.588   3.423   9.727 -0.1070  0.3041  0.1309
  103OSM   H11F10510   4.614   3.526   9.757  1.2936  0.4086 -1.3322
  103OSM   H11G10511   4.477   3.417   9.736 -0.0308 -0.7758  0.4780
  103OSM   C12F10512   4.628   3.401   9.582  0.6375  0.6615  0.1315
  103OSM   H12F10513   4.612   3.295   9.554 -1.0364  0.7064  0.8605
  103OSM   H12G10514   4.734   3.437   9.581  0.4434  1.2620 -1.0143
  103OSM   C13F10515   4.534   3.475   9.479 -0.7100  0.1982 -0.3536
  103OSM   H13F10516   4.438   3.419   9.484 -0.1937 -0.7528 -0.9350
  103OSM   H13G10517   4.516   3.583   9.501  2.0173  0.4441  1.1002
  103OSM   C14F10518   4.601   3.462   9.344 -0.3228  0.1474 -0.4118
  103OSM   H14F10519   4.612   3.357   9.309  0.3066  0.2894 -0.6451
  103OSM   H14G10520   4.699   3.514   9.351 -0.6414  0.8502 -1.0495
  103OSM   C15F10521   4.519   3.537   9.238  0.0063  0.3914  0.0948
  103OSM   H15F10522   4.501   3.641   9.275 -0.6206 -0.0971  1.2184
  103OSM   H15G10523   4.419   3.491   9.221  0.9332 -2.1036  0.9462
  103OSM   C16F10524   4.606   3.551   9.116  0.3355 -0.0375  1.1751
  103OSM   H16F10525   4.605   3.459   9.053  0.9505  1.4676 -1.1959
  103OSM   H16G10526   4.710   3.554   9.154  0.6231 -3.3236  0.8834
  103OSM   C17F10527   4.577   3.677   9.040 -0.8088  0.2616  0.0816
  103OSM   H17F10528   4.660   3.699   8.970  0.9787  0.7359  2.2464
  103OSM   H17G10529   4.587   3.769   9.102  1.8061  0.9800 -1.3006
  103OSM   C18F10530   4.444   3.676   8.972 -0.0287 -0.2652 -0.6905
  103OSM   H18F10531   4.369   3.704   9.049  0.0163 -0.0172 -0.7381
  103OSM   H18G10532   4.422   3.574   8.934 -0.2680 -0.5198  0.1102
  103OSM   H18H10533   4.428   3.752   8.893  1.5916  0.9442  0.0809
  104OSM      N10534   1.377   2.625  10.945 -0.4016 -0.1399 -0.2550
  104OSM    C1510535   1.289   2.736  11.015 -0.7546  0.2993  0.2248
  104OSM   H15A10536   1.302   2.736  11.122  0.6037  1.5583  0.0934
  104OSM   H15B10537   1.184   2.720  10.995 -0.0144 -3.5846 -1.5014
  104OSM   H15C10538   1.317   2.831  10.973 -0.5470  0.2919  0.3500
  104OSM    C1410539   1.516   2.642  10.996 -0.4070 -0.6900 -0.6694
  104OSM   H14A10540   1.589   2.580  10.947  0.8810 -1.4169  2.0015
  104OSM   H14B10541   1.522   2.622  11.101 -0.4468  0.7474 -0.3640
  104OSM   H14C10542   1.551   2.741  10.968 -2.6904 -0.3558 -2.6232
  104OSM    C1310543   1.328   2.492  10.986 -0.1654  0.5611  0.3793
  104OSM   H13A10544   1.222   2.480  10.968 -0.0914  0.4061  0.0314
  104OSM   H13B10545   1.345   2.475  11.091  1.0754 -0.5635  0.0227
  104OSM   H13C10546   1.384   2.422  10.925  1.7872  2.8617 -0.6229
  104OSM    C1210547   1.377   2.652  10.790  0.3193 -0.4945 -0.2822
  104OSM   H12A10548   1.280   2.648  10.742  0.8805  0.6346 -1.5549
  104OSM   H12B10549   1.440   2.575  10.746  1.3737  1.0555 -1.5793
  104OSM    C1110550   1.429   2.789  10.746 -0.4716  0.5385 -0.9371
  104OSM   H11A10551   1.444   2.779  10.636  0.3138 -0.0200 -0.7859
  104OSM   H11B10552   1.532   2.801  10.787 -0.7171 -1.3588  0.3071
  104OSM      P10553   1.388   3.042  10.804 -0.3044  0.0077 -0.3670
  104OSM    O1310554   1.270   3.122  10.822  0.6307  0.5916  0.3383
  104OSM    O1410555   1.496   3.039  10.905 -0.2353  0.2884 -0.5967
  104OSM    O1110556   1.447   3.081  10.661 -0.6419 -0.4991  0.0773
  104OSM    O1210557   1.345   2.893  10.787  0.1565  0.2038  0.4740
  104OSM    C1S10558   1.584   3.122  10.646  0.3972 -0.7803 -0.1022
  104OSM    H1S10559   1.658   3.039  10.651  2.7389  1.1629 -0.7578
  104OSM    H1T10560   1.607   3.205  10.716 -0.0809  0.0828 -0.9528
  104OSM     NF10561   1.756   3.237  10.504  0.0503 -0.3240  0.4302
  104OSM    HNF10562   1.781   3.319  10.556  1.3364 -0.1792 -0.3668
  104OSM    C2S10563   1.615   3.197  10.512 -0.3591  0.1977 -0.1756
  104OSM    H2S10564   1.579   3.123  10.437 -0.2219  0.2767 -0.3198
  104OSM    C3S10565   1.525   3.318  10.496 -0.1120  0.2099 -0.1741
  104OSM    H3S10566   1.556   3.394  10.570 -0.8462 -1.7568  2.3051
  104OSM     O310567   1.391   3.290  10.530 -0.4149 -0.3984 -0.3416
  104OSM    HO310568   1.391   3.204  10.573 -0.7299  0.2086  0.9339
  104OSM    C4S10569   1.529   3.380  10.354 -0.1877  0.2920  0.6470
  104OSM    H4S10570   1.611   3.450  10.334  0.0126 -0.8017 -2.9870
  104OSM    C5S10571   1.432   3.380  10.262  0.4433  0.7012  0.4769
  104OSM    H5S10572   1.337   3.328  10.279  0.4426  0.3647 -0.4737
  104OSM    C6S10573   1.452   3.440  10.122  0.2473 -0.3318 -0.1945
  104OSM    H6S10574   1.350   3.461  10.082 -0.4942 -0.2574  1.6297
  104OSM    H6T10575   1.506   3.368  10.057 -0.3104 -1.0629  0.1392
  104OSM    C7S10576   1.519   3.578  10.123 -0.3430 -0.4626 -0.3549
  104OSM    H7S10577   1.626   3.567  10.150 -0.0781  1.2661 -0.6248
  104OSM    H7T10578   1.470   3.641  10.201  0.8037 -1.5513  1.3264
  104OSM    C8S10579   1.521   3.646   9.979  0.4857 -0.4118 -0.7198
  104OSM    H8S10580   1.573   3.744   9.971  0.4286 -0.4564 -1.8144
  104OSM    H8T10581   1.413   3.659   9.960 -0.0742 -1.0279  1.7037
  104OSM    C9S10582   1.577   3.554   9.873 -0.2889  0.0971  0.0232
  104OSM    H9S10583   1.533   3.452   9.887 -2.6853  1.2361  1.4612
  104OSM    H9T10584   1.686   3.542   9.890  0.1745  2.7251 -0.7572
  104OSM   C10S10585   1.547   3.598   9.726  0.3934  0.2784 -0.0184
  104OSM   H10S10586   1.441   3.630   9.731 -0.3265 -1.8951 -0.4504
  104OSM   H10T10587   1.562   3.514   9.654 -2.3429  0.8997 -1.4704
  104OSM   C11S10588   1.626   3.716   9.664 -0.0702  0.1379 -0.5531
  104OSM   H11S10589   1.729   3.680   9.644  0.6189  0.4813  2.0736
  104OSM   H11T10590   1.618   3.800   9.736 -3.9180 -1.3608  1.0123
  104OSM   C12S10591   1.569   3.758   9.529  0.2660 -0.0848 -0.0596
  104OSM   H12S10592   1.531   3.862   9.528  0.1988 -0.1004 -1.8819
  104OSM   H12T10593   1.471   3.709   9.513 -0.5106  0.2298  3.1392
  104OSM   C13S10594   1.656   3.752   9.404  0.3644  0.5234 -0.2542
  104OSM   H13S10595   1.686   3.646   9.396 -0.8288  0.1080  0.5218
  104OSM   H13T10596   1.746   3.816   9.417  0.0263  0.7588  1.0978
  104OSM   C14S10597   1.575   3.781   9.275  0.5718 -0.7032 -0.0464
  104OSM   H14S10598   1.529   3.882   9.278 -0.3851 -1.1485  1.6066
  104OSM   H14T10599   1.485   3.719   9.289  0.6674 -0.9538 -0.5296
  104OSM   C15S10600   1.659   3.758   9.144 -0.1300 -0.0703 -0.4455
  104OSM   H15S10601   1.592   3.730   9.060  2.3396 -2.8834 -1.6928
  104OSM   H15T10602   1.718   3.665   9.154  0.3347  0.1280 -1.2536
  104OSM   C16S10603   1.751   3.874   9.109  0.5451  0.4387 -0.2897
  104OSM   H16S10604   1.826   3.888   9.189  0.3472 -0.7273  0.1191
  104OSM   H16T10605   1.695   3.966   9.084  1.6594  0.6580 -2.2150
  104OSM   C17S10606   1.827   3.840   8.982 -0.4134  0.8967 -0.0236
  104OSM   H17S10607   1.763   3.782   8.912 -3.0964 -0.2715  3.1055
  104OSM   H17T10608   1.905   3.771   9.019 -1.5656 -0.5279 -0.1670
  104OSM   C18S10609   1.886   3.965   8.926  0.5003 -0.1339 -0.8230
  104OSM   H18S10610   1.948   3.941   8.836 -2.2654 -1.3231 -2.5323
  104OSM   H18T10611   1.938   4.019   9.008 -1.1979  0.3433 -0.0368
  104OSM   H18U10612   1.805   4.032   8.891  0.0137  0.5298  1.4310
  104OSM    C1F10613   1.845   3.145  10.483  0.2580  0.0006  0.7546
  104OSM     OF10614   1.809   3.032  10.452  0.0791  0.5603 -0.4122
  104OSM    C2F10615   1.987   3.191  10.497 -0.4797 -0.3453 -0.3632
  104OSM    H2F10616   2.011   3.192  10.606  2.5980  0.6821 -0.9424
  104OSM    H2G10617   1.986   3.298  10.470 -1.9607 -0.3433 -0.3821
  104OSM    C3F10618   2.085   3.099  10.426  0.9033  0.4910 -0.6402
  104OSM    H3F10619   2.087   2.998  10.474  0.1822  0.8242  0.1230
  104OSM    H3G10620   2.183   3.133  10.465  0.5641 -0.4765  1.1725
  104OSM    C4F10621   2.072   3.106  10.272 -0.7751  0.1116  0.6657
  104OSM    H4F10622   2.028   3.203  10.243  0.4199  0.5851  0.4091
  104OSM    H4G10623   2.000   3.027  10.242  0.1265  0.7706 -3.9323
  104OSM    C5F10624   2.217   3.099  10.218  0.3413  0.1894  0.7200
  104OSM    H5F10625   2.268   3.004  10.241 -1.9084 -1.4959 -0.7813
  104OSM    H5G10626   2.285   3.175  10.262  0.3816  0.1253  0.7681
  104OSM    C6F10627   2.212   3.125  10.065  0.5747  0.1595 -0.3925
  104OSM    H6F10628   2.168   3.227  10.051 -1.0059 -0.2587  1.1484
  104OSM    H6G10629   2.142   3.051  10.021 -0.1457 -0.3895  1.5756
  104OSM    C7F10630   2.347   3.100   9.998  0.1755  0.9631 -0.1769
  104OSM    H7F10631   2.371   2.993  10.017  0.5154  1.1300  0.3601
  104OSM    H7G10632   2.430   3.150  10.053 -1.8587  2.2041  1.9562
  104OSM    C8F10633   2.344   3.129   9.841  0.5556  1.3171 -1.1673
  104OSM    H8F10634   2.307   3.234   9.831 -2.6381  0.4355  0.2194
  104OSM    H8G10635   2.264   3.068   9.794  0.2673 -0.0417  0.9758
  104OSM    C9F10636   2.481   3.138   9.782 -0.9907 -0.0624 -0.7097
  104OSM    H9F10637   2.557   3.189   9.844 -1.5691  1.7518 -1.4160
  104OSM   C10F10638   2.518   3.088   9.667  0.1018  0.1378 -0.5797
  104OSM   H10F10639   2.618   3.118   9.634  1.4195 -3.4067 -0.2144
  104OSM   C11F10640   2.439   3.022   9.557 -0.0508 -0.3608  0.3321
  104OSM   H11F10641   2.337   2.993   9.590 -0.0175 -1.6019 -0.5681
  104OSM   H11G10642   2.494   2.928   9.534  1.4383  0.2746  1.1419
  104OSM   C12F10643   2.426   3.107   9.433 -0.5222 -0.2797  0.9309
  104OSM   H12F10644   2.344   3.181   9.447 -0.3515  0.1074 -0.0335
  104OSM   H12G10645   2.386   3.037   9.356 -0.6346  0.5842  0.1945
  104OSM   C13F10646   2.553   3.174   9.381  0.7145 -0.1800  0.3269
  104OSM   H13F10647   2.591   3.240   9.462 -0.6097 -1.0648  1.7054
  104OSM   H13G10648   2.519   3.245   9.302  1.5919 -0.3809 -0.2384
  104OSM   C14F10649   2.663   3.081   9.331 -0.3236  0.3926  0.4167
  104OSM   H14F10650   2.616   3.027   9.246 -3.1285  1.8234  0.9409
  104OSM   H14G10651   2.687   3.003   9.406 -2.2215 -1.1407 -0.4678
  104OSM   C15F10652   2.792   3.149   9.292 -0.4246 -0.2930  0.4827
  104OSM   H15F10653   2.848   3.182   9.382  1.2906 -1.0818 -0.2477
  104OSM   H15G10654   2.768   3.234   9.224  0.2290  0.0785  0.7049
  104OSM   C16F10655   2.892   3.069   9.207  0.2539  0.3632  0.0698
  104OSM   H16F10656   2.834   2.978   9.178 -0.9223  0.6213  1.4955
  104OSM   H16G10657   2.970   3.024   9.273  1.2626 -1.6903 -2.3637
  104OSM   C17F10658   2.960   3.133   9.088 -0.2405  0.4793  0.8664
  104OSM   H17F10659   3.011   3.223   9.129 -3.1243  1.9949  1.4419
  104OSM   H17G10660   2.887   3.173   9.013  0.0281 -0.7224 -0.0575
  104OSM   C18F10661   3.057   3.034   9.024  0.2975 -0.1853 -0.3396
  104OSM   H18F10662   2.994   2.975   8.955 -1.0228  1.5619 -0.6936
  104OSM   H18G10663   3.099   2.969   9.104 -0.4609  1.6471  1.6449
  104OSM   H18H10664   3.127   3.085   8.954 -0.5866  0.5364 -0.7173
  105OSM      N10665   0.933   3.151  11.327  0.9470 -0.9729 -0.6681
  105OSM    C1510666   0.956   3.251  11.213 -0.4328 -0.0571  0.0857
  105OSM   H15A10667   1.041   3.312  11.241 -0.2295 -0.5229  0.5003
  105OSM   H15B10668   0.873   3.318  11.196 -0.5745 -0.3939 -0.5896
  105OSM   H15C10669   0.975   3.197  11.121 -2.3418 -3.3972  1.4738
  105OSM    C1410670   1.069   3.117  11.377  1.0315  0.2089  0.9264
  105OSM   H14A10671   1.117   3.201  11.425 -1.5221  1.8275  0.8522
  105OSM   H14B10672   1.130   3.103  11.289 -3.2856  1.5497 -2.6942
  105OSM   H14C10673   1.072   3.029  11.439  1.2512 -0.0919  0.4936
  105OSM    C1310674   0.855   3.221  11.441  0.9936  0.1137  0.0910
  105OSM   H13A10675   0.764   3.257  11.397  2.4746  1.9188 -1.7085
  105OSM   H13B10676   0.905   3.306  11.485 -2.5445  2.3603  0.1029
  105OSM   H13C10677   0.819   3.150  11.514  0.1951  0.1197 -0.2920
  105OSM    C1210678   0.856   3.030  11.279  0.2095  0.5043  0.2760
  105OSM   H12A10679   0.761   3.063  11.239 -1.7073  2.1564  5.2968
  105OSM   H12B10680   0.825   2.972  11.365  0.3729  1.3507  0.9275
  105OSM    C1110681   0.930   2.932  11.170  0.0398 -0.2292 -1.0102
  105OSM   H11A10682   0.886   2.830  11.173  0.8682 -0.6239 -1.7664
  105OSM   H11B10683   1.027   2.927  11.223 -1.6625  2.8047  2.8399
  105OSM      P10684   0.826   3.022  10.944  0.2464 -0.1830  0.1880
  105OSM    O1310685   0.701   3.012  11.020 -0.3146  0.4099 -0.2673
  105OSM    O1410686   0.849   3.155  10.881 -0.3636  0.0788  0.2879
  105OSM    O1110687   0.827   2.904  10.840  0.0649 -0.3363  0.1759
  105OSM    O1210688   0.953   2.987  11.039 -0.8302 -0.2628  0.0816
  105OSM    C1S10689   0.934   2.891  10.745  0.5896  0.4082  0.1277
  105OSM    H1S10690   1.026   2.838  10.779  0.1603 -0.5549 -0.1586
  105OSM    H1T10691   0.981   2.986  10.712  2.6838 -0.3017  0.8538
  105OSM     NF10692   0.999   2.801  10.517 -0.4775  0.2650 -0.1303
  105OSM    HNF10693   1.004   2.878  10.454  4.7074  1.8054  1.7109
  105OSM    C2S10694   0.887   2.812  10.620 -0.8690 -0.4547  0.5276
  105OSM    H2S10695   0.886   2.708  10.660  2.2450 -0.2945  1.2209
  105OSM    C3S10696   0.753   2.868  10.566  0.7737  0.2359 -0.5033
  105OSM    H3S10697   0.768   2.976  10.544  2.3346  0.6017  1.9477
  105OSM     O310698   0.638   2.859  10.657  0.3725  0.1186  0.1040
  105OSM    HO310699   0.678   2.842  10.742  0.6671  0.9223  0.1417
  105OSM    C4S10700   0.722   2.809  10.430  0.1113  0.3320  0.0200
  105OSM    H4S10701   0.790   2.850  10.354  0.1090  0.9897  0.3668
  105OSM    C5S10702   0.637   2.708  10.409  0.0593  0.2348 -0.2949
  105OSM    H5S10703   0.576   2.673  10.494 -2.1000 -0.1054 -1.8863
  105OSM    C6S10704   0.608   2.630  10.280  0.4369 -0.0777  0.4023
  105OSM    H6S10705   0.504   2.650  10.247  0.4487  2.3830  1.6148
  105OSM    H6T10706   0.621   2.523  10.305  2.2325  0.0484  0.0993
  105OSM    C7S10707   0.711   2.652  10.168  0.1081  0.9373  0.0713
  105OSM    H7S10708   0.812   2.617  10.200 -0.4619 -2.8451 -1.7838
  105OSM    H7T10709   0.725   2.762  10.152 -0.4626  1.0691  0.4817
  105OSM    C8S10710   0.678   2.588  10.034  0.0600 -0.7318  0.1379
  105OSM    H8S10711   0.573   2.605  10.002  0.2016  1.8528  0.7711
  105OSM    H8T10712   0.688   2.478  10.043 -0.5795 -0.8132 -0.0555
  105OSM    C9S10713   0.773   2.649   9.927 -0.4296 -0.6075 -0.9420
  105OSM    H9S10714   0.878   2.635   9.960 -0.6386  0.1288  0.0847
  105OSM    H9T10715   0.757   2.759   9.926  0.8184 -0.3097  1.8230
  105OSM   C10S10716   0.753   2.589   9.788  0.4340 -0.0729 -0.4791
  105OSM   H10S10717   0.647   2.596   9.758  0.3620  1.4379  0.0361
  105OSM   H10T10718   0.766   2.478   9.791  3.0988  0.1854  0.1507
  105OSM   C11S10719   0.851   2.648   9.685  0.7460 -0.1074 -0.0869
  105OSM   H11S10720   0.953   2.614   9.713  0.9826 -0.1162 -0.9392
  105OSM   H11T10721   0.839   2.758   9.683 -2.6017 -0.3790 -0.1432
  105OSM   C12S10722   0.832   2.616   9.534 -0.3738  1.0423 -0.4701
  105OSM   H12S10723   0.728   2.619   9.497 -0.0901  0.5596 -1.3386
  105OSM   H12T10724   0.863   2.510   9.521 -0.6583  0.8771  0.1502
  105OSM   C13S10725   0.917   2.704   9.442  0.0376  0.6130  0.1144
  105OSM   H13S10726   1.020   2.686   9.480 -0.1343 -0.3435  0.1555
  105OSM   H13T10727   0.887   2.810   9.456  1.1244  0.8871  0.4716
  105OSM   C14S10728   0.911   2.669   9.296  0.7180 -0.1076  0.5403
  105OSM   H14S10729   0.810   2.655   9.252  2.1645 -1.6100 -2.6056
  105OSM   H14T10730   0.967   2.577   9.270 -2.4638 -2.5226  1.6596
  105OSM   C15S10731   0.970   2.787   9.218  0.0146  0.2932 -0.4829
  105OSM   H15S10732   1.070   2.815   9.260 -0.1095  1.0357 -0.6594
  105OSM   H15T10733   0.901   2.873   9.233  0.3188  0.5909 -0.7564
  105OSM   C16S10734   0.974   2.772   9.068  0.3923  0.8174  0.0733
  105OSM   H16S10735   1.020   2.671   9.054 -2.2779 -0.3509 -1.0664
  105OSM   H16T10736   1.034   2.852   9.021  0.6039  1.4616  1.3981
  105OSM   C17S10737   0.834   2.773   9.004  1.1833 -0.3894  0.0374
  105OSM   H17S10738   0.797   2.877   8.987  0.8162 -0.1122  2.1347
  105OSM   H17T10739   0.749   2.730   9.063 -0.4566  1.5759 -0.7610
  105OSM   C18S10740   0.845   2.717   8.863 -0.3636  0.0905  0.7996
  105OSM   H18S10741   0.905   2.782   8.797 -1.9425  2.3565  1.4898
  105OSM   H18T10742   0.744   2.715   8.818  0.0301  2.4306 -0.3111
  105OSM   H18U10743   0.896   2.618   8.864  1.0877  0.6963 -2.2472
  105OSM    C1F10744   1.096   2.706  10.533  0.0571 -0.1352 -0.1612
  105OSM     OF10745   1.094   2.626  10.625 -0.4287  0.0131 -0.3906
  105OSM    C2F10746   1.203   2.694  10.429  0.0988 -0.2320  0.2241
  105OSM    H2F10747   1.294   2.743  10.471  0.4154 -1.0204  0.4683
  105OSM    H2G10748   1.168   2.754  10.342  1.4635  0.9547  0.4561
  105OSM    C3F10749   1.241   2.547  10.384  0.0707 -0.7720  1.1430
  105OSM    H3F10750   1.268   2.502  10.483 -1.5465 -2.2786  0.9384
  105OSM    H3G10751   1.335   2.559  10.327 -1.8153  1.3526 -1.7735
  105OSM    C4F10752   1.143   2.460  10.298 -0.0777 -0.6474 -0.1807
  105OSM    H4F10753   1.052   2.461  10.361  0.2326 -1.9930  0.3164
  105OSM    H4G10754   1.186   2.358  10.293  1.2746 -0.0719 -1.1414
  105OSM    C5F10755   1.106   2.512  10.162 -0.0433  0.2063  0.2207
  105OSM    H5F10756   1.067   2.615  10.177 -0.1147  0.0685  1.0464
  105OSM    H5G10757   1.014   2.459  10.129  0.3336 -0.1704 -0.2431
  105OSM    C6F10758   1.218   2.507  10.056  0.1473  0.2820 -0.1929
  105OSM    H6F10759   1.266   2.407  10.052 -0.4989 -0.1586  2.0200
  105OSM    H6G10760   1.296   2.579  10.088 -0.9643  1.2370  0.4306
  105OSM    C7F10761   1.169   2.542   9.915 -0.1309 -0.6907 -0.8731
  105OSM    H7F10762   1.111   2.635   9.935 -1.6401 -1.5935 -0.9046
  105OSM    H7G10763   1.094   2.466   9.883  0.0925 -0.8900 -0.9201
  105OSM    C8F10764   1.278   2.579   9.815 -0.3000  0.2407  0.0317
  105OSM    H8F10765   1.343   2.652   9.868  0.5769 -1.8956  2.1022
  105OSM    H8G10766   1.230   2.622   9.724 -0.0197  0.0518 -0.2070
  105OSM    C9F10767   1.366   2.457   9.786 -0.6955  0.1189 -0.0072
  105OSM    H9F10768   1.368   2.378   9.862 -3.5560  1.7482  1.9858
  105OSM   C10F10769   1.430   2.436   9.673  0.1423 -0.4459 -0.5940
  105OSM   H10F10770   1.505   2.355   9.679  0.1409 -0.7233 -3.0013
  105OSM   C11F10771   1.445   2.531   9.555 -0.6805  0.0837  0.0288
  105OSM   H11F10772   1.537   2.510   9.497 -1.0820  1.9065 -1.3575
  105OSM   H11G10773   1.441   2.640   9.577 -2.3281 -0.0610  0.6139
  105OSM   C12F10774   1.321   2.516   9.462  0.3867  0.4191  0.7704
  105OSM   H12F10775   1.308   2.599   9.389 -0.8697 -0.4693 -0.0534
  105OSM   H12G10776   1.223   2.523   9.514 -0.3971  1.2242 -0.7152
  105OSM   C13F10777   1.327   2.387   9.372  0.0537 -0.2512 -0.8470
  105OSM   H13F10778   1.336   2.298   9.438  1.1860 -1.0128 -1.9774
  105OSM   H13G10779   1.425   2.395   9.321  1.6677 -0.7899  1.9744
  105OSM   C14F10780   1.210   2.368   9.277 -0.2699 -0.4049 -0.1152
  105OSM   H14F10781   1.111   2.383   9.325 -0.4334 -2.1868  0.1492
  105OSM   H14G10782   1.206   2.265   9.235  0.5122 -0.6052  0.2702
  105OSM   C15F10783   1.219   2.472   9.159  0.5299  0.2661 -0.3560
  105OSM   H15F10784   1.225   2.576   9.196 -0.0475  0.3663 -0.5301
  105OSM   H15G10785   1.117   2.477   9.114  0.9383  1.8769 -1.1904
  105OSM   C16F10786   1.330   2.444   9.062  0.3136 -0.3735  0.1678
  105OSM   H16F10787   1.319   2.339   9.026  0.1602 -0.4263  0.3700
  105OSM   H16G10788   1.427   2.444   9.116  0.2798  1.0199  0.2609
  105OSM   C17F10789   1.306   2.530   8.938 -0.9167 -0.9466 -0.6164
  105OSM   H17F10790   1.319   2.637   8.965 -0.4915 -1.0043 -0.5839
  105OSM   H17G10791   1.203   2.532   8.898 -0.5379 -1.2249 -1.6429
  105OSM   C18F10792   1.412   2.506   8.838 -0.1115  0.1540  0.6505
  105OSM   H18F10793   1.390   2.543   8.736  1.9240  0.7993  0.3850
  105OSM   H18G10794   1.421   2.397   8.821  0.2015 -0.3366  3.5269
  105OSM   H18H10795   1.512   2.546   8.866  0.9064 -0.7004 -1.5433
  106OSM      N10796   2.022   0.946  10.948 -0.7877  0.5226 -0.5483
  106OSM    C1510797   2.142   0.858  10.969  0.7122  0.3044 -0.0533
  106OSM   H15A10798   2.111   0.761  11.005  0.8494  0.1784 -0.2708
  106OSM   H15B10799   2.211   0.899  11.042  0.4841  1.2204 -0.3529
  106OSM   H15C10800   2.193   0.849  10.874  2.0715  1.8146  0.4844
  106OSM    C1410801   1.960   0.964  11.084  0.3062 -0.1444  0.0532
  106OSM   H14A10802   1.902   0.877  11.114  0.5076 -0.6956 -1.1039
  106OSM   H14B10803   1.888   1.045  11.078 -0.9601 -1.2592 -0.4662
  106OSM   H14C10804   2.023   0.990  11.167  0.1538  1.4453 -0.3081
  106OSM    C1310805   2.076   1.081  10.907  0.1092 -0.0487  0.1344
  106OSM   H13A10806   2.147   1.071  10.827 -0.6418 -0.6762 -0.4807
  106OSM   H13B10807   2.113   1.125  10.997  2.1367  1.8190 -1.5131
  106OSM   H13C10808   1.994   1.146  10.880  1.2913  2.0513  1.3438
  106OSM    C1210809   1.922   0.890  10.843 -0.1704  0.6547 -0.4223
  106OSM   H12A10810   1.876   0.802  10.885 -0.2493  0.6208 -0.5801
  106OSM   H12B10811   1.987   0.852  10.766  0.1110 -2.1422  1.0663
  106OSM    C1110812   1.806   0.982  10.793  0.5191 -0.0252 -0.4163
  106OSM   H11A10813   1.762   0.924  10.709  0.7620  2.5078 -2.3991
  106OSM   H11B10814   1.857   1.072  10.753  1.9489 -0.8531 -0.5240
  106OSM      P10815   1.606   0.904  10.929  0.0143 -0.3472 -0.3319
  106OSM    O1310816   1.682   0.789  10.979  0.0125 -0.3163 -0.2711
  106OSM    O1410817   1.505   0.957  11.018  0.5700 -0.7159  0.1778
  106OSM    O1110818   1.552   0.879  10.784  1.0919  0.2652 -0.4113
  106OSM    O1210819   1.715   1.015  10.893 -0.6557  0.6294 -0.0662
  106OSM    C1S10820   1.432   0.950  10.736 -0.2283  0.6985 -0.8211
  106OSM    H1S10821   1.414   1.043  10.794  0.1464  0.3590 -0.1484
  106OSM    H1T10822   1.342   0.886  10.741  0.3980 -0.1126  0.6359
  106OSM     NF10823   1.379   1.094  10.544 -0.4204 -0.0725  0.0333
  106OSM    HNF10824   1.303   1.063  10.488  0.0313  1.5424 -1.5805
  106OSM    C2S10825   1.463   0.987  10.586  0.0310 -0.2644 -0.4150
  106OSM    H2S10826   1.566   1.030  10.581 -1.1137  2.8681  0.2463
  106OSM    C3S10827   1.454   0.852  10.510 -0.0974  0.4979  0.1056
  106OSM    H3S10828   1.361   0.797  10.535 -0.5891  1.4984  0.5320
  106OSM     O310829   1.564   0.766  10.531  0.1684 -0.2043  0.3942
  106OSM    HO310830   1.609   0.800  10.608  1.2647  0.2735 -0.4319
  106OSM    C4S10831   1.439   0.882  10.363 -0.5825 -0.0472 -0.2871
  106OSM    H4S10832   1.341   0.858  10.321 -0.3794 -0.3087 -0.6211
  106OSM    C5S10833   1.537   0.913  10.277 -0.1513 -0.2708 -1.1086
  106OSM    H5S10834   1.637   0.937  10.314 -0.4504  0.9647 -1.0587
  106OSM    C6S10835   1.525   0.931  10.130 -0.3080  0.2400 -0.1262
  106OSM    H6S10836   1.572   0.844  10.080  0.4694  0.6301 -0.0969
  106OSM    H6T10837   1.589   1.016  10.098  0.1267 -0.5725 -1.4832
  106OSM    C7S10838   1.391   0.969  10.058  0.0131 -0.3585  0.0027
  106OSM    H7S10839   1.351   1.055  10.115 -0.8183 -2.5987  3.0434
  106OSM    H7T10840   1.319   0.885  10.070  0.2791 -0.5841  0.0286
  106OSM    C8S10841   1.404   1.003   9.909 -0.3209  0.7780 -0.2741
  106OSM    H8S10842   1.447   0.916   9.855  1.5404  1.2996  0.2829
  106OSM    H8T10843   1.495   1.066   9.891 -0.2739  0.9851  0.6318
  106OSM    C9S10844   1.274   1.057   9.850  0.4340 -0.0225 -0.0596
  106OSM    H9S10845   1.229   1.133   9.917  0.1440  1.1801 -1.5753
  106OSM    H9T10846   1.205   0.970   9.845  1.3466 -0.8082  0.5321
  106OSM   C10S10847   1.277   1.111   9.708 -0.5444  1.0134 -0.3775
  106OSM   H10S10848   1.385   1.127   9.685  0.0018  0.6614  1.6969
  106OSM   H10T10849   1.229   1.211   9.719 -2.4051  0.0483  0.7394
  106OSM   C11S10850   1.215   1.012   9.602  0.5887 -0.2695  0.8880
  106OSM   H11S10851   1.123   0.963   9.640 -0.2275  1.1437  0.7943
  106OSM   H11T10852   1.289   0.934   9.571 -0.8824 -0.9293 -1.1413
  106OSM   C12S10853   1.173   1.085   9.471  0.3157  0.2410  0.1002
  106OSM   H12S10854   1.263   1.134   9.429  1.2589  0.0424  1.7785
  106OSM   H12T10855   1.096   1.158   9.505 -1.1426  0.6252 -3.6359
  106OSM   C13S10856   1.115   0.991   9.367 -0.1936  0.1870 -0.7243
  106OSM   H13S10857   1.009   0.967   9.389  0.1932  0.7120  2.0638
  106OSM   H13T10858   1.189   0.908   9.358  1.8077  1.7402  0.5799
  106OSM   C14S10859   1.123   1.064   9.229  0.0721 -0.1775  0.2927
  106OSM   H14S10860   1.226   1.094   9.199  0.4761 -0.1001  1.6661
  106OSM   H14T10861   1.041   1.138   9.221 -0.0529 -0.4878 -2.0362
  106OSM   C15S10862   1.099   0.961   9.114  0.0312  0.3908  0.2262
  106OSM   H15S10863   1.015   0.896   9.147  1.7111 -1.4381  1.1252
  106OSM   H15T10864   1.193   0.902   9.107  0.7975  1.6448 -0.4794
  106OSM   C16S10865   1.071   1.023   8.977 -0.4020  0.0407 -0.4707
  106OSM   H16S10866   1.159   1.086   8.951 -0.8310  0.5268 -0.7708
  106OSM   H16T10867   0.986   1.093   8.995 -0.0879  0.5095 -0.7721
  106OSM   C17S10868   1.052   0.924   8.869  0.3586  0.3383  0.8625
  106OSM   H17S10869   0.964   0.857   8.881  0.6844 -0.2824 -0.0540
  106OSM   H17T10870   1.145   0.864   8.863  1.7289  2.4610 -2.4666
  106OSM   C18S10871   1.033   0.999   8.733  0.5869  0.8760  0.7467
  106OSM   H18S10872   0.931   1.044   8.728  0.7671  1.1484 -1.2155
  106OSM   H18T10873   1.039   0.922   8.653  0.1820 -0.8784  2.3237
  106OSM   H18U10874   1.113   1.073   8.715  0.8162  0.5888  0.5874
  106OSM    C1F10875   1.386   1.211  10.603  0.1238  0.1928  0.2746
  106OSM     OF10876   1.479   1.237  10.676  0.6448 -0.2706  0.1697
  106OSM    C2F10877   1.269   1.303  10.593  0.4112  0.0013  0.3399
  106OSM    H2F10878   1.230   1.314  10.697 -0.0263  1.3027  0.0515
  106OSM    H2G10879   1.193   1.253  10.528 -0.0931  0.1587  0.7992
  106OSM    C3F10880   1.306   1.444  10.536 -0.0658 -0.0677 -0.6184
  106OSM    H3F10881   1.365   1.491  10.618 -1.3954 -1.1682  1.0217
  106OSM    H3G10882   1.207   1.495  10.529  0.9355  2.0030 -0.6426
  106OSM    C4F10883   1.378   1.456  10.403 -0.2973  0.3904  0.8719
  106OSM    H4F10884   1.475   1.402  10.399 -0.7764 -0.4414 -1.4198
  106OSM    H4G10885   1.396   1.564  10.389  1.0293  0.0469 -0.2351
  106OSM    C5F10886   1.307   1.415  10.271  1.1136  0.3144  0.0896
  106OSM    H5F10887   1.211   1.470  10.280  0.3218 -0.5761 -2.1328
  106OSM    H5G10888   1.285   1.306  10.270  3.6833 -0.2872  1.4464
  106OSM    C6F10889   1.372   1.461  10.133  0.3285 -0.7944 -0.0000
  106OSM    H6F10890   1.465   1.402  10.118  0.6140 -0.4489  0.3654
  106OSM    H6G10891   1.396   1.570  10.135  3.0900 -1.3240 -0.4463
  106OSM    C7F10892   1.288   1.418  10.016 -0.0585 -0.0694 -0.1498
  106OSM    H7F10893   1.192   1.472  10.028 -0.4816 -0.4253 -1.7606
  106OSM    H7G10894   1.276   1.308  10.025  1.6494 -0.1945  1.4905
  106OSM    C8F10895   1.340   1.466   9.882 -0.2991 -0.1078 -0.3323
  106OSM    H8F10896   1.344   1.577   9.885 -0.9131 -0.0995  0.3416
  106OSM    H8G10897   1.253   1.448   9.815 -1.7180 -0.2821  1.5059
  106OSM    C9F10898   1.465   1.404   9.819  0.7015 -0.1304  0.2581
  106OSM    H9F10899   1.521   1.343   9.891 -0.7089 -0.1711  1.3606
  106OSM   C10F10900   1.505   1.413   9.696  0.4576  0.8466 -0.5405
  106OSM   H10F10901   1.588   1.346   9.669  0.2789  1.6924 -3.5624
  106OSM   C11F10902   1.444   1.480   9.576  1.0650 -0.0335 -0.8485
  106OSM   H11F10903   1.506   1.563   9.535 -1.5945  2.3761 -0.3604
  106OSM   H11G10904   1.351   1.536   9.601  1.0699 -0.7661  0.9551
  106OSM   C12F10905   1.399   1.389   9.465 -0.6655 -0.8282  0.9927
  106OSM   H12F10906   1.325   1.311   9.493 -1.9655 -0.4981 -1.2643
  106OSM   H12G10907   1.477   1.337   9.406 -1.0896 -0.8389  0.4303
  106OSM   C13F10908   1.331   1.474   9.357  0.2320 -0.3854 -0.2216
  106OSM   H13F10909   1.397   1.552   9.314  0.4379 -1.1717 -1.4042
  106OSM   H13G10910   1.243   1.528   9.399 -1.7037 -0.6587 -3.5074
  106OSM   C14F10911   1.287   1.390   9.233  0.5690 -0.2549 -0.1741
  106OSM   H14F10912   1.192   1.340   9.264 -0.7481  1.0181 -1.9307
  106OSM   H14G10913   1.364   1.313   9.211  2.2568  1.3165 -0.0544
  106OSM   C15F10914   1.253   1.466   9.109 -0.5247 -0.2989  0.1819
  106OSM   H15F10915   1.347   1.509   9.069 -0.3002  1.2003  2.1248
  106OSM   H15G10916   1.195   1.553   9.149  1.4332  1.2430 -0.1873
  106OSM   C16F10917   1.180   1.389   8.998 -0.5360 -0.2496  0.1852
  106OSM   H16F10918   1.082   1.350   9.033 -1.8091  2.7231  0.2349
  106OSM   H16G10919   1.239   1.308   8.950  0.4288  0.5800 -0.0737
  106OSM   C17F10920   1.166   1.493   8.892 -0.1550 -0.2453  0.2363
  106OSM   H17F10921   1.261   1.537   8.855 -0.1662  0.5130  1.0748
  106OSM   H17G10922   1.116   1.580   8.940  0.2439  0.9832 -1.4829
  106OSM   C18F10923   1.073   1.450   8.778  0.2384 -0.7845 -0.1339
  106OSM   H18F10924   1.127   1.384   8.706  1.3168 -2.3374  2.0045
  106OSM   H18G10925   1.017   1.531   8.726 -1.3323 -1.1149  0.9691
  106OSM   H18H10926   1.000   1.383   8.828  0.2689  0.5361  1.7978
  107OSM      N10927   4.732   4.649  11.128 -0.5270 -0.2966 -0.3087
  107OSM    C1510928   4.701   4.529  11.039  0.2969 -0.1409  0.0674
  107OSM   H15A10929   4.762   4.508  10.952  1.0662 -0.9523  0.7752
  107OSM   H15B10930   4.598   4.525  11.006  0.3150 -1.3504  0.0831
  107OSM   H15C10931   4.701   4.436  11.095  0.5360  0.9688  2.0240
  107OSM    C1410932   4.886   4.657  11.142  0.5075  0.0512 -0.4563
  107OSM   H14A10933   4.924   4.574  11.200  1.0681  0.9282  0.4689
  107OSM   H14B10934   4.917   4.751  11.183  1.9094  1.2631 -3.9832
  107OSM   H14C10935   4.937   4.646  11.047 -0.0601  2.6869 -1.1292
  107OSM    C1310936   4.692   4.777  11.048  0.2660  0.5027 -0.5292
  107OSM   H13A10937   4.725   4.863  11.104  2.3427 -1.0175  0.7059
  107OSM   H13B10938   4.586   4.770  11.030 -0.0093 -0.2414  1.2257
  107OSM   H13C10939   4.725   4.759  10.946  1.0391 -1.0830 -0.0322
  107OSM    C1210940   4.660   4.653  11.262  0.1337 -0.1794 -0.6389
  107OSM   H12A10941   4.712   4.732  11.313  2.4629 -1.8666 -0.2606
  107OSM   H12B10942   4.685   4.559  11.309 -1.2051 -0.7684 -1.0461
  107OSM    C1110943   4.513   4.669  11.254  0.5333  0.0037  0.1235
  107OSM   H11A10944   4.483   4.762  11.200 -1.1525 -1.2962 -1.2990
  107OSM   H11B10945   4.477   4.687  11.357 -1.1449  0.3193 -0.4792
  107OSM      P10946   4.302   4.570  11.129 -0.0034  0.1616  0.2822
  107OSM    O1310947   4.220   4.467  11.204  0.0081 -0.7588 -0.1566
  107OSM    O1410948   4.260   4.714  11.129  0.3630  0.3498  0.3498
  107OSM    O1110949   4.322   4.522  10.979  0.0752  0.3977  0.5093
  107OSM    O1210950   4.445   4.557  11.193 -0.0947 -0.0605 -0.6485
  107OSM    C1S10951   4.224   4.492  10.882 -0.3599  0.3458  0.3815
  107OSM    H1S10952   4.122   4.513  10.920  0.1592  0.6421  1.6355
  107OSM    H1T10953   4.224   4.387  10.846  0.9251  1.1877 -2.4187
  107OSM     NF10954   4.129   4.548  10.648  0.3475  1.2743  0.2466
  107OSM    HNF10955   4.140   4.499  10.562 -0.0309  0.9643  0.3687
  107OSM    C2S10956   4.241   4.565  10.738  0.0476  0.3356  0.1650
  107OSM    H2S10957   4.244   4.673  10.764  0.3345 -0.0950  2.0355
  107OSM    C3S10958   4.380   4.521  10.681  0.7473  0.0172  0.3435
  107OSM    H3S10959   4.371   4.410  10.671 -0.8799  0.0893  0.7830
  107OSM     O310960   4.488   4.541  10.773  0.5964 -0.5774 -0.5395
  107OSM    HO310961   4.447   4.538  10.859  0.5900 -0.1185 -0.5287
  107OSM    C4S10962   4.416   4.579  10.548  0.3561 -0.1367 -0.2449
  107OSM    H4S10963   4.373   4.522  10.465 -3.0285  2.2663 -0.3471
  107OSM    C5S10964   4.498   4.681  10.521  0.0296 -0.1084 -0.1385
  107OSM    H5S10965   4.527   4.753  10.599  2.3714  0.5633 -1.5526
  107OSM    C6S10966   4.518   4.724  10.383  0.4991 -0.4084 -0.3295
  107OSM    H6S10967   4.625   4.710  10.354  0.4828  0.8451 -1.0712
  107OSM    H6T10968   4.510   4.834  10.393 -0.8011 -0.5119 -0.0573
  107OSM    C7S10969   4.415   4.689  10.271  0.0968 -0.5418  0.3181
  107OSM    H7S10970   4.321   4.741  10.300 -1.1274 -1.4526 -1.7825
  107OSM    H7T10971   4.398   4.579  10.268  1.1431 -0.6970 -1.2640
  107OSM    C8S10972   4.461   4.736  10.127 -0.2843  0.1532  0.3066
  107OSM    H8S10973   4.561   4.698  10.097  0.1030  1.9880 -0.9065
  107OSM    H8T10974   4.463   4.847  10.129  3.6162  0.2478  3.5961
  107OSM    C9S10975   4.371   4.691  10.014 -0.4793  0.0522  0.2075
  107OSM    H9S10976   4.267   4.699  10.052 -0.2762  0.3129  0.7275
  107OSM    H9T10977   4.373   4.580  10.012 -3.0910 -0.1266  2.0546
  107OSM   C10S10978   4.413   4.762   9.884  0.4430 -0.1449  0.0564
  107OSM   H10S10979   4.524   4.761   9.872  0.4759  3.5276 -1.3448
  107OSM   H10T10980   4.378   4.866   9.902 -1.5115 -0.6339 -0.7086
  107OSM   C11S10981   4.346   4.702   9.757  0.8171  0.5372  0.4152
  107OSM   H11S10982   4.236   4.709   9.771  0.9012  0.8049  0.9798
  107OSM   H11T10983   4.368   4.593   9.762  1.8784  0.7440  0.5470
  107OSM   C12S10984   4.383   4.782   9.631 -0.4925  0.2600 -0.1958
  107OSM   H12S10985   4.494   4.776   9.623 -0.3663 -0.8005  1.6298
  107OSM   H12T10986   4.346   4.886   9.640 -1.8458 -0.2745  0.8985
  107OSM   C13S10987   4.335   4.697   9.508 -0.3577  0.1985 -0.6803
  107OSM   H13S10988   4.233   4.659   9.529 -0.2886  0.0148 -0.6727
  107OSM   H13T10989   4.405   4.613   9.491 -0.2853 -0.1281  1.0838
  107OSM   C14S10990   4.339   4.788   9.389 -0.0862  0.6521 -0.3535
  107OSM   H14S10991   4.436   4.839   9.375  0.0960  0.5105  0.3452
  107OSM   H14T10992   4.267   4.872   9.404 -2.1500 -1.1156  0.2524
  107OSM   C15S10993   4.289   4.728   9.257 -0.3743 -0.1521 -0.9706
  107OSM   H15S10994   4.282   4.818   9.193  1.9971  1.4387  0.8227
  107OSM   H15T10995   4.182   4.701   9.271 -0.1574 -0.8015 -0.5206
  107OSM   C16S10996   4.375   4.616   9.202  0.3358  0.0721  0.9916
  107OSM   H16S10997   4.386   4.525   9.266 -0.4363 -0.0315  0.9802
  107OSM   H16T10998   4.479   4.645   9.176 -0.3567  1.0353 -0.8623
  107OSM   C17S10999   4.311   4.553   9.080  0.9876  1.0089  0.5843
  107OSM   H17S11000   4.323   4.631   9.002  1.1794  2.0063  1.5901
  107OSM   H17T11001   4.202   4.534   9.087  1.0764  0.8491  1.9271
  107OSM   C18S11002   4.378   4.422   9.032  0.5174  0.4198 -0.1412
  107OSM   H18S11003   4.354   4.334   9.096 -0.8349  0.7746 -0.1318
  107OSM   H18T11004   4.488   4.428   9.020  0.2324  0.1594 -4.2987
  107OSM   H18U11005   4.338   4.395   8.932  0.4178  0.8106 -0.2068
  107OSM    C1F11006   4.009   4.593  10.689  0.2665 -0.9039 -0.1299
  107OSM     OF11007   3.998   4.678  10.774 -0.1172  0.4994 -0.1229
  107OSM    C2F11008   3.889   4.541  10.628 -0.3887 -0.1090 -0.5987
  107OSM    H2F11009   3.821   4.480  10.691 -0.2745 -2.3263 -2.4901
  107OSM    H2G11010   3.921   4.474  10.545 -0.0472 -0.3209 -0.2968
  107OSM    C3F11011   3.791   4.642  10.572 -0.0170 -0.3399  0.9871
  107OSM    H3F11012   3.838   4.737  10.539 -0.8808  0.3444  1.6878
  107OSM    H3G11013   3.710   4.675  10.641 -1.3349  1.2079 -1.1821
  107OSM    C4F11014   3.716   4.578  10.451 -0.0491  1.0224  0.0415
  107OSM    H4F11015   3.791   4.543  10.377  1.0924  1.1557  1.1065
  107OSM    H4G11016   3.647   4.650  10.402 -1.5117 -1.9265 -2.5054
  107OSM    C5F11017   3.626   4.461  10.494 -0.5246  0.1986  0.6444
  107OSM    H5F11018   3.561   4.494  10.578 -0.6992 -0.6069  0.8321
  107OSM    H5G11019   3.684   4.370  10.520 -0.1768  0.3048  0.2497
  107OSM    C6F11020   3.529   4.423  10.376  0.2746  0.9136 -0.5188
  107OSM    H6F11021   3.458   4.506  10.352  0.4329  0.9180 -0.9763
  107OSM    H6G11022   3.471   4.333  10.407  0.6648  0.1584 -1.9368
  107OSM    C7F11023   3.607   4.378  10.253  0.1322  0.2399 -0.0369
  107OSM    H7F11024   3.682   4.310  10.296 -1.2693 -1.1163  0.3546
  107OSM    H7G11025   3.660   4.461  10.201  1.5512  1.1891  2.7497
  107OSM    C8F11026   3.527   4.297  10.149  0.4721  0.8014 -0.3186
  107OSM    H8F11027   3.462   4.223  10.200 -0.5699 -0.0720 -2.7695
  107OSM    H8G11028   3.604   4.245  10.088  0.9164  1.9797 -0.8005
  107OSM    C9F11029   3.452   4.375  10.048  0.3607  0.0359 -0.5877
  107OSM    H9F11030   3.427   4.481  10.067  1.9508  0.3011  0.1633
  107OSM   C10F11031   3.401   4.316   9.939 -0.1828 -0.1966  0.5395
  107OSM   H10F11032   3.348   4.379   9.866  1.9792  1.3841  0.2116
  107OSM   C11F11033   3.410   4.172   9.897  0.2816 -1.1573  0.6100
  107OSM   H11F11034   3.322   4.104   9.905 -0.1879 -0.5303  0.9612
  107OSM   H11G11035   3.476   4.119   9.969 -0.1384 -0.2358  1.7157
  107OSM   C12F11036   3.467   4.156   9.752 -0.2622 -0.1154 -0.2000
  107OSM   H12F11037   3.472   4.050   9.720  0.6705  0.0356 -0.5871
  107OSM   H12G11038   3.570   4.197   9.754  0.3736 -1.6503  0.2207
  107OSM   C13F11039   3.386   4.224   9.635 -0.1605  0.6471  0.0361
  107OSM   H13F11040   3.449   4.193   9.549  1.0311  0.1413  1.0687
  107OSM   H13G11041   3.383   4.335   9.646  0.2328  0.7697 -1.0130
  107OSM   C14F11042   3.237   4.180   9.635  0.1274  0.1314  0.5231
  107OSM   H14F11043   3.198   4.207   9.736 -1.6449  0.4071 -0.2086
  107OSM   H14G11044   3.233   4.069   9.629  1.0358  0.1092  0.0983
  107OSM   C15F11045   3.146   4.226   9.520  0.1090 -1.0579 -0.3717
  107OSM   H15F11046   3.158   4.337   9.521 -0.0999 -1.0359 -0.3735
  107OSM   H15G11047   3.036   4.215   9.529 -0.3989  2.1911 -1.3542
  107OSM   C16F11048   3.188   4.182   9.375 -0.6154 -0.9066 -0.5146
  107OSM   H16F11049   3.289   4.215   9.343 -0.0861 -3.7945 -2.2044
  107OSM   H16G11050   3.133   4.243   9.302  1.8217 -0.2690 -1.9403
  107OSM   C17F11051   3.173   4.031   9.353 -0.5310 -0.1293  0.6719
  107OSM   H17F11052   3.084   3.992   9.407 -1.0304 -1.1275 -0.8389
  107OSM   H17G11053   3.257   3.981   9.405 -0.0539  0.0602  0.0851
  107OSM   C18F11054   3.172   3.991   9.207  0.2550 -0.3263  0.2537
  107OSM   H18F11055   3.138   3.886   9.195  0.7000 -0.1829 -3.7855
  107OSM   H18G11056   3.278   3.999   9.176 -0.0595 -0.6182 -0.9444
  107OSM   H18H11057   3.117   4.069   9.149  0.5661  1.5421  2.3272
  108OSM      N11058   6.685   2.828  11.109 -0.2280  0.4453  0.0056
  108OSM    C1511059   6.686   2.980  11.106  1.0239  0.6721  0.0378
  108OSM   H15A11060   6.728   3.024  11.196 -0.7706  0.7443  0.8848
  108OSM   H15B11061   6.582   3.008  11.113  0.8103 -0.1898  0.4863
  108OSM   H15C11062   6.728   3.034  11.023 -0.8324  2.1234 -0.0179
  108OSM    C1411063   6.624   2.787  11.242  0.3192 -0.1603  0.2673
  108OSM   H14A11064   6.521   2.820  11.248 -0.5276 -2.7564  1.7673
  108OSM   H14B11065   6.682   2.829  11.322  1.7107 -0.9836 -0.2816
  108OSM   H14C11066   6.633   2.680  11.258 -1.9549 -0.6721 -1.3643
  108OSM    C1311067   6.605   2.768  10.996  0.1923 -0.1508 -0.4952
  108OSM   H13A11068   6.617   2.661  10.988  3.4698  0.0469  0.5610
  108OSM   H13B11069   6.633   2.809  10.900  0.6700 -0.4903 -0.4997
  108OSM   H13C11070   6.501   2.797  11.002 -0.2984 -1.8689 -0.1410
  108OSM    C1211071   6.817   2.768  11.089 -0.2726  0.9096 -0.3124
  108OSM   H12A11072   6.886   2.839  11.133  0.6951 -0.6416  0.7677
  108OSM   H12B11073   6.841   2.755  10.984  1.4949  0.8464  0.0715
  108OSM    C1111074   6.842   2.631  11.154  0.2494 -0.8722 -0.7718
  108OSM   H11A11075   6.802   2.616  11.257  0.0514 -1.4774 -0.9315
  108OSM   H11B11076   6.951   2.608  11.160  0.3700 -0.1750 -0.1550
  108OSM      P11077   6.815   2.435  10.966  0.0628  0.0058 -0.4977
  108OSM    O1311078   6.924   2.351  11.023 -0.1260  0.4518  0.0888
  108OSM    O1411079   6.701   2.359  10.912  0.1265  0.4577 -0.2173
  108OSM    O1111080   6.885   2.533  10.866 -0.8892  0.6466 -0.2613
  108OSM    O1211081   6.769   2.536  11.083 -0.6174 -0.0059 -0.2492
  108OSM    C1S11082   7.018   2.508  10.818  0.1076 -0.2110 -0.6952
  108OSM    H1S11083   7.040   2.401  10.802  1.1862  0.2999 -3.0035
  108OSM    H1T11084   7.085   2.557  10.893 -0.9104  1.6672 -0.9540
  108OSM     NF11085   7.186   2.537  10.646  0.0156 -0.4104 -0.7684
  108OSM    HNF11086   7.261   2.588  10.687 -0.5106 -1.8309  2.2243
  108OSM    C2S11087   7.060   2.584  10.691  0.5005 -0.3593 -0.4294
  108OSM    H2S11088   6.982   2.551  10.620  0.2270 -1.4869  0.3634
  108OSM    C3S11089   7.052   2.732  10.734 -0.7032  0.5521 -0.1780
  108OSM    H3S11090   7.136   2.745  10.805 -1.2441 -0.7318  0.7420
  108OSM     O311091   6.929   2.770  10.801  0.1504  0.5235  0.2767
  108OSM    HO311092   6.893   2.683  10.823  0.1487  0.8937  1.9135
  108OSM    C4S11093   7.070   2.816  10.609 -0.2074 -0.1026 -0.0178
  108OSM    H4S11094   7.178   2.824  10.588 -0.1816  1.4011  0.5646
  108OSM    C5S11095   6.983   2.893  10.534  0.2169  0.2852 -0.1841
  108OSM    H5S11096   6.881   2.905  10.572 -0.7136 -0.7963 -2.2035
  108OSM    C6S11097   7.014   2.964  10.412 -0.0457  0.1758 -0.8631
  108OSM    H6S11098   7.077   3.052  10.437 -1.5043  1.5488 -1.7323
  108OSM    H6T11099   6.929   3.016  10.362 -0.1279  0.0973 -0.8060
  108OSM    C7S11100   7.100   2.884  10.309  0.7652 -0.2984  0.7618
  108OSM    H7S11101   7.061   2.781  10.297  0.0215  0.1211 -0.6293
  108OSM    H7T11102   7.203   2.877  10.351  0.8039 -1.3695  0.5191
  108OSM    C8S11103   7.097   2.941  10.163  0.2403  0.5461 -0.3721
  108OSM    H8S11104   7.113   3.050  10.178 -0.0139  0.2516  2.6876
  108OSM    H8T11105   6.997   2.949  10.116  1.0489  0.1978 -2.2629
  108OSM    C9S11106   7.193   2.870  10.059 -0.0989 -0.1560  0.3744
  108OSM    H9S11107   7.157   2.769  10.031  1.6660 -0.0954 -2.5276
  108OSM    H9T11108   7.298   2.873  10.095 -0.0377 -0.7725  0.2701
  108OSM   C10S11109   7.192   2.952   9.927 -0.5360 -0.0208 -0.5178
  108OSM   H10S11110   7.266   3.032   9.947  0.2860 -1.5041  3.2584
  108OSM   H10T11111   7.089   2.993   9.925 -1.3085 -1.8723 -1.9099
  108OSM   C11S11112   7.220   2.860   9.806  0.9296 -0.5094  0.8719
  108OSM   H11S11113   7.130   2.801   9.780  0.7950 -0.0228  0.2024
  108OSM   H11T11114   7.305   2.789   9.812  1.1012 -0.5062 -0.9442
  108OSM   C12S11115   7.249   2.941   9.669 -0.3552 -0.3751 -0.5505
  108OSM   H12S11116   7.325   3.018   9.693 -2.0239  1.0952  0.3555
  108OSM   H12T11117   7.150   2.991   9.656 -1.0262 -0.8936  2.0160
  108OSM   C13S11118   7.284   2.856   9.551  0.5274 -0.2984 -0.2216
  108OSM   H13S11119   7.213   2.774   9.527  1.4524 -1.5284  1.0868
  108OSM   H13T11120   7.371   2.800   9.592 -0.0887 -0.4434  0.9468
  108OSM   C14S11121   7.321   2.951   9.428  0.2776  0.5701 -0.1666
  108OSM   H14S11122   7.418   2.998   9.454 -1.7347  5.2021  0.0116
  108OSM   H14T11123   7.247   3.032   9.409  0.8120  1.2624  0.6204
  108OSM   C15S11124   7.344   2.862   9.308  0.4213 -0.0030  0.8497
  108OSM   H15S11125   7.377   2.759   9.333  2.0998  0.5671  1.0955
  108OSM   H15T11126   7.428   2.898   9.246  0.1816  1.2416  1.1967
  108OSM   C16S11127   7.227   2.851   9.207  0.0298  0.1979  0.3443
  108OSM   H16S11128   7.141   2.840   9.275 -2.1136 -2.1627 -2.4865
  108OSM   H16T11129   7.236   2.760   9.143 -0.0084  0.4620 -0.0443
  108OSM   C17S11130   7.199   2.974   9.116 -0.0773 -0.2517 -0.1244
  108OSM   H17S11131   7.287   3.021   9.067 -0.1759 -0.3374 -0.3898
  108OSM   H17T11132   7.157   3.046   9.189 -0.2272  0.7957 -1.2122
  108OSM   C18S11133   7.102   2.932   8.997  0.3896 -0.4603  0.8110
  108OSM   H18S11134   7.147   2.848   8.940 -1.1565 -2.4597  2.3889
  108OSM   H18T11135   7.097   3.020   8.930  1.8366  0.1941  1.5182
  108OSM   H18U11136   7.006   2.892   9.035 -1.0056  2.1607  0.2578
  108OSM    C1F11137   7.206   2.412  10.597  0.4057 -0.4459  0.3176
  108OSM     OF11138   7.117   2.339  10.560  0.0478  0.1231  0.4674
  108OSM    C2F11139   7.347   2.369  10.588  0.4435 -0.1960  0.1244
  108OSM    H2F11140   7.366   2.309  10.679 -1.8709 -3.2445 -1.1900
  108OSM    H2G11141   7.409   2.459  10.572  1.3877 -0.9635 -0.6232
  108OSM    C3F11142   7.362   2.273  10.467  0.2589 -0.2383 -0.2126
  108OSM    H3F11143   7.340   2.316  10.367 -0.5537  1.0042  0.4696
  108OSM    H3G11144   7.288   2.190  10.474 -0.1286  0.1726  0.6153
  108OSM    C4F11145   7.501   2.202  10.454  0.0030 -0.0822  0.2607
  108OSM    H4F11146   7.529   2.179  10.559  0.7515  1.2095  0.3649
  108OSM    H4G11147   7.576   2.268  10.406 -1.4666  1.2055 -0.3181
  108OSM    C5F11148   7.503   2.073  10.368  0.3489  0.4059 -0.2673
  108OSM    H5F11149   7.417   2.004  10.380  0.9910 -0.0427  2.6966
  108OSM    H5G11150   7.596   2.018  10.395  0.2460  0.5558  0.4174
  108OSM    C6F11151   7.492   2.106  10.218  0.3846  0.1569  0.1626
  108OSM    H6F11152   7.393   2.154  10.206  0.2312 -0.2492 -0.1962
  108OSM    H6G11153   7.493   2.014  10.156  0.0854  1.1403 -1.3499
  108OSM    C7F11154   7.603   2.199  10.156  0.0297  0.2761 -0.1773
  108OSM    H7F11155   7.701   2.173  10.200 -0.4640  0.3205  0.9753
  108OSM    H7G11156   7.577   2.301  10.190 -0.1967 -0.0008  0.4906
  108OSM    C8F11157   7.618   2.164  10.006  0.6450  0.0355 -0.1662
  108OSM    H8F11158   7.665   2.066   9.986  0.9249 -0.1120  1.1302
  108OSM    H8G11159   7.683   2.240   9.957  0.2861  0.9814  0.7613
  108OSM    C9F11160   7.481   2.172   9.943 -0.6433  0.0428  0.2608
  108OSM    H9F11161   7.415   2.259   9.959 -1.6602 -1.2380  4.3020
  108OSM   C10F11162   7.432   2.072   9.865  0.5178 -0.4016  0.5918
  108OSM   H10F11163   7.341   2.092   9.806  1.1401  2.9716  0.5855
  108OSM   C11F11164   7.490   1.941   9.825 -0.4259  0.1798  0.8218
  108OSM   H11F11165   7.435   1.859   9.877  1.9309 -2.3607 -0.3946
  108OSM   H11G11166   7.597   1.927   9.851 -0.0295 -0.4981 -1.0554
  108OSM   C12F11167   7.481   1.924   9.671  0.2880  0.3653  0.1818
  108OSM   H12F11168   7.386   1.955   9.624  0.9033  1.1045 -0.5996
  108OSM   H12G11169   7.483   1.815   9.648  0.9362  0.3643  0.2213
  108OSM   C13F11170   7.584   2.009   9.588 -0.1018  0.8308  0.1386
  108OSM   H13F11171   7.679   1.950   9.588 -0.1161  0.8044  0.6401
  108OSM   H13G11172   7.593   2.109   9.634  0.4230  1.1047 -0.5320
  108OSM   C14F11173   7.528   2.040   9.448  0.6133 -0.2304 -0.0079
  108OSM   H14F11174   7.432   2.094   9.465  0.4249 -0.3563 -0.6460
  108OSM   H14G11175   7.516   1.946   9.391  1.1057 -0.8281  0.8547
  108OSM   C15F11176   7.630   2.117   9.363  0.9263 -0.1765 -0.3830
  108OSM   H15F11177   7.712   2.053   9.323  0.4156 -1.3006  0.3091
  108OSM   H15G11178   7.660   2.212   9.411  0.3445 -1.0600  1.8740
  108OSM   C16F11179   7.575   2.151   9.224  0.0183  0.0440 -0.4332
  108OSM   H16F11180   7.467   2.170   9.246  0.1271  0.1462  0.0310
  108OSM   H16G11181   7.578   2.060   9.160 -2.4804  0.2682 -0.9775
  108OSM   C17F11182   7.645   2.274   9.163 -1.3952  0.1216 -0.3083
  108OSM   H17F11183   7.745   2.231   9.140 -0.2848  1.5511  1.5340
  108OSM   H17G11184   7.658   2.359   9.234 -2.5584 -0.0228  0.0905
  108OSM   C18F11185   7.578   2.323   9.030 -0.3782 -0.0751  0.2459
  108OSM   H18F11186   7.577   2.242   8.955 -1.1496 -0.8273  1.0420
  108OSM   H18G11187   7.631   2.412   8.990 -1.9794  0.5253 -0.6421
  108OSM   H18H11188   7.471   2.348   9.045 -0.3823 -0.5298  1.0106
  109OSM      N11189   1.648   3.376  11.039 -0.5802 -0.1173  0.3496
  109OSM    C1511190   1.684   3.276  11.147 -0.2046 -0.0364 -1.0196
  109OSM   H15A11191   1.790   3.269  11.167 -0.4894 -0.2954  0.5455
  109OSM   H15B11192   1.659   3.177  11.114 -0.2755  0.3329 -2.1130
  109OSM   H15C11193   1.623   3.283  11.236 -0.7175 -0.6920 -1.3177
  109OSM    C1411194   1.650   3.512  11.097  0.0273  0.3765 -0.2556
  109OSM   H14A11195   1.569   3.531  11.167  0.2478  0.1866  0.0558
  109OSM   H14B11196   1.632   3.592  11.027 -4.3799  0.2052  0.3520
  109OSM   H14C11197   1.740   3.539  11.151 -1.0464  2.5451  0.5686
  109OSM    C1311198   1.748   3.367  10.925 -0.6978  0.0473  0.1123
  109OSM   H13A11199   1.846   3.383  10.967 -0.9000 -2.1209  1.5241
  109OSM   H13B11200   1.742   3.449  10.855  1.9942 -0.0253 -0.2762
  109OSM   H13C11201   1.748   3.272  10.874  2.1337  0.0956 -0.1156
  109OSM    C1211202   1.512   3.332  10.982 -0.0680  0.0993  0.3485
  109OSM   H12A11203   1.438   3.310  11.057  1.3663 -3.4539  0.9223
  109OSM   H12B11204   1.521   3.239  10.927  1.2228  0.0261  0.6503
  109OSM    C1111205   1.450   3.425  10.866 -0.0871  0.0620 -0.4711
  109OSM   H11A11206   1.359   3.376  10.827 -0.5080 -0.0551  0.6253
  109OSM   H11B11207   1.531   3.421  10.790  0.0372  2.0586 -0.4953
  109OSM      P11208   1.487   3.678  10.825  0.4024  0.2144 -0.0523
  109OSM    O1311209   1.485   3.807  10.895  0.0245 -0.2496 -0.4632
  109OSM    O1411210   1.618   3.635  10.764  0.9359 -0.8371  0.2080
  109OSM    O1111211   1.380   3.680  10.710 -0.5610 -0.0663  0.3967
  109OSM    O1211212   1.428   3.565  10.917 -0.3706 -0.1041  0.6498
  109OSM    C1S11213   1.369   3.790  10.621  0.4751  0.0141 -0.3842
  109OSM    H1S11214   1.465   3.841  10.601  0.1765 -0.3444 -3.1303
  109OSM    H1T11215   1.295   3.863  10.662 -0.5846 -0.8668 -0.6672
  109OSM     NF11216   1.311   3.861  10.385  0.0548  0.1485 -0.0446
  109OSM    HNF11217   1.221   3.895  10.360  0.3767  0.6449 -0.5455
  109OSM    C2S11218   1.308   3.746  10.480 -0.2864  1.0017 -0.3773
  109OSM    H2S11219   1.370   3.669  10.430 -2.1402  0.1496 -1.4805
  109OSM    C3S11220   1.164   3.678  10.504 -0.5059  0.0394  0.2402
  109OSM    H3S11221   1.088   3.754  10.533 -1.5654 -0.6839 -0.5241
  109OSM     O311222   1.164   3.584  10.606 -0.0508  0.4357 -0.1952
  109OSM    HO311223   1.246   3.590  10.656  0.0657 -2.2531  0.1053
  109OSM    C4S11224   1.106   3.620  10.379 -0.1095 -0.5458 -0.2889
  109OSM    H4S11225   1.175   3.555  10.322 -0.2808 -2.5059  1.6104
  109OSM    C5S11226   0.984   3.633  10.335 -0.6271 -0.6629  0.2824
  109OSM    H5S11227   0.910   3.698  10.384 -1.2705 -0.1042 -1.3403
  109OSM    C6S11228   0.936   3.572  10.207 -0.1818 -0.0608  0.0775
  109OSM    H6S11229   0.829   3.597  10.197 -0.4675 -1.1861  0.1429
  109OSM    H6T11230   0.940   3.462  10.220 -0.7938 -0.1697 -0.6099
  109OSM    C7S11231   1.015   3.610  10.088 -0.1304 -0.4280  0.1714
  109OSM    H7S11232   1.126   3.603  10.098 -0.1657 -0.9908  0.2369
  109OSM    H7T11233   0.997   3.714  10.055 -0.5845  0.4668  3.0026
  109OSM    C8S11234   0.982   3.527   9.964 -0.3456  0.2565  0.4174
  109OSM    H8S11235   0.872   3.521   9.951 -0.2604 -2.6291  0.2899
  109OSM    H8T11236   1.027   3.426   9.971 -2.2344 -0.7333 -0.8238
  109OSM    C9S11237   1.050   3.596   9.841 -0.6138 -0.7152  0.1709
  109OSM    H9S11238   1.152   3.627   9.869 -0.6900 -1.8998  1.9392
  109OSM    H9T11239   0.997   3.690   9.814 -1.1749 -1.0571  0.0661
  109OSM   C10S11240   1.044   3.518   9.711  0.1963  0.5068 -0.8173
  109OSM   H10S11241   0.940   3.526   9.671 -0.7010  0.3281  1.3610
  109OSM   H10T11242   1.065   3.410   9.730  0.8407  0.6514 -0.6873
  109OSM   C11S11243   1.137   3.562   9.598  0.2373  0.0815 -0.2707
  109OSM   H11S11244   1.239   3.523   9.622 -0.3290 -0.1834  1.8349
  109OSM   H11T11245   1.124   3.671   9.581 -0.0536 -0.0054 -0.5995
  109OSM   C12S11246   1.101   3.512   9.459  0.3129  0.8533 -0.8915
  109OSM   H12S11247   0.996   3.537   9.434  0.0902  1.6101  0.6936
  109OSM   H12T11248   1.103   3.402   9.449  0.5290  0.8103 -0.3952
  109OSM   C13S11249   1.196   3.570   9.362 -0.4503 -0.1291  0.1381
  109OSM   H13S11250   1.302   3.563   9.393  0.2540  2.0920 -1.5181
  109OSM   H13T11251   1.167   3.677   9.359  2.5429  0.7477 -0.5466
  109OSM   C14S11252   1.196   3.503   9.223  0.3212 -0.0924  0.4043
  109OSM   H14S11253   1.092   3.523   9.190 -0.2979  0.3449  2.4306
  109OSM   H14T11254   1.209   3.392   9.219  1.5832  0.0527 -3.4416
  109OSM   C15S11255   1.297   3.574   9.120  0.6691  0.2394 -0.1769
  109OSM   H15S11256   1.400   3.551   9.154  0.6644  0.9825  0.3876
  109OSM   H15T11257   1.279   3.682   9.140 -4.7149 -0.6019  1.0908
  109OSM   C16S11258   1.303   3.531   8.972 -0.0625 -0.1436 -0.3290
  109OSM   H16S11259   1.199   3.542   8.933 -0.9477  1.3522  2.1578
  109OSM   H16T11260   1.327   3.426   9.000 -0.2325  0.3779  2.0268
  109OSM   C17S11261   1.403   3.602   8.880  0.4737 -0.1905 -0.7419
  109OSM   H17S11262   1.403   3.568   8.774 -0.6888 -0.0044 -0.8045
  109OSM   H17T11263   1.505   3.588   8.923  0.0682 -0.3319  0.2034
  109OSM   C18S11264   1.370   3.751   8.878 -0.9086 -0.2844 -0.0845
  109OSM   H18S11265   1.434   3.797   8.799 -0.1251 -0.2842  0.5377
  109OSM   H18T11266   1.409   3.787   8.975  2.2507 -0.6436 -1.0874
  109OSM   H18U11267   1.261   3.771   8.873 -1.2834 -1.6022  1.7688
  109OSM    C1F11268   1.417   3.926  10.343  0.7410 -0.2993  0.0575
  109OSM     OF11269   1.529   3.878  10.355  0.3136 -1.3890  0.2676
  109OSM    C2F11270   1.393   4.062  10.293 -0.4829 -0.0579  0.3299
  109OSM    H2F11271   1.336   4.111  10.375 -0.1710  0.2397  0.3678
  109OSM    H2G11272   1.317   4.069  10.212  0.4032  0.8012 -0.4587
  109OSM    C3F11273   1.517   4.147  10.263  0.2158 -0.4141  0.0127
  109OSM    H3F11274   1.594   4.091  10.205 -0.3486 -1.3682  0.1686
  109OSM    H3G11275   1.573   4.166  10.357 -0.7871  0.3973  0.4664
  109OSM    C4F11276   1.473   4.286  10.201 -0.3340 -0.2482 -0.2822
  109OSM    H4F11277   1.557   4.358  10.187 -1.5060  1.0760 -0.7685
  109OSM    H4G11278   1.395   4.336  10.261 -1.5370  0.5280 -2.4087
  109OSM    C5F11279   1.419   4.270  10.056  1.2851 -0.3071  0.7666
  109OSM    H5F11280   1.314   4.237  10.066  1.4256 -2.4482 -3.0595
  109OSM    H5G11281   1.469   4.187  10.002  0.2753  0.5027 -1.5046
  109OSM    C6F11282   1.411   4.397   9.973 -0.4606  0.6596  0.2762
  109OSM    H6F11283   1.509   4.422   9.928 -0.0954 -2.3724 -0.8505
  109OSM    H6G11284   1.372   4.476  10.041 -0.3749  0.7883  0.1768
  109OSM    C7F11285   1.304   4.377   9.859 -0.4111  0.7113 -0.2801
  109OSM    H7F11286   1.213   4.357   9.920 -0.3149  0.8638 -0.0850
  109OSM    H7G11287   1.333   4.297   9.788 -1.1454  2.8769 -3.2358
  109OSM    C8F11288   1.272   4.501   9.778 -1.0474 -0.1173  0.8031
  109OSM    H8F11289   1.271   4.594   9.839  3.3657  1.1593 -0.6864
  109OSM    H8G11290   1.177   4.474   9.728 -0.5392 -1.1098  0.3314
  109OSM    C9F11291   1.382   4.509   9.681 -0.6573 -0.7339  0.0050
  109OSM    H9F11292   1.472   4.550   9.730 -1.4436 -1.6066  2.2703
  109OSM   C10F11293   1.384   4.496   9.542  0.0216  0.3899 -0.4213
  109OSM   H10F11294   1.480   4.511   9.491 -0.5771 -0.1468 -1.7806
  109OSM   C11F11295   1.270   4.469   9.444 -0.0601 -0.0870  0.2871
  109OSM   H11F11296   1.171   4.450   9.490  0.1481 -0.6002  0.5181
  109OSM   H11G11297   1.284   4.385   9.373  0.4401 -0.2920  0.6296
  109OSM   C12F11298   1.259   4.601   9.364  0.0558 -0.6791 -0.4891
  109OSM   H12F11299   1.272   4.685   9.435  1.9010  0.1579 -1.7553
  109OSM   H12G11300   1.153   4.607   9.331 -0.5519 -0.4184  1.4237
  109OSM   C13F11301   1.361   4.637   9.257 -0.6572  0.4686 -0.4728
  109OSM   H13F11302   1.464   4.620   9.294 -0.7722 -1.6520 -1.0001
  109OSM   H13G11303   1.348   4.744   9.232  0.6246  1.0749  1.2931
  109OSM   C14F11304   1.354   4.559   9.125 -0.3356  0.5816 -1.0214
  109OSM   H14F11305   1.352   4.452   9.156  1.3335 -0.4579 -4.1321
  109OSM   H14G11306   1.441   4.591   9.065  0.0737  0.1782 -0.6526
  109OSM   C15F11307   1.218   4.581   9.052 -0.2592 -0.3728  0.3534
  109OSM   H15F11308   1.220   4.689   9.027  0.3851  0.1934  2.5687
  109OSM   H15G11309   1.131   4.558   9.117 -0.0604  0.9054  1.1008
  109OSM   C16F11310   1.202   4.484   8.924  0.5541  0.0749  0.3008
  109OSM   H16F11311   1.105   4.509   8.876  0.4452 -1.0262 -0.0928
  109OSM   H16G11312   1.195   4.377   8.954 -0.7329  0.4898  1.5852
  109OSM   C17F11313   1.313   4.496   8.815 -0.0749  0.1926  0.6575
  109OSM   H17F11314   1.400   4.439   8.853  0.0774  0.0800  0.1419
  109OSM   H17G11315   1.323   4.606   8.804 -1.4446  0.2487 -0.2104
  109OSM   C18F11316   1.286   4.443   8.674 -0.0369 -0.4022 -0.6773
  109OSM   H18F11317   1.189   4.475   8.631 -1.2413 -1.0635  1.3978
  109OSM   H18G11318   1.275   4.333   8.674 -1.7640 -0.2721 -2.3921
  109OSM   H18H11319   1.361   4.478   8.600  0.3086  0.7563  0.1917
  110OSM      N11320   2.229   2.490  10.989 -0.5899  0.1049  0.1847
  110OSM    C1511321   2.180   2.553  10.866 -0.0902  0.0466 -0.2673
  110OSM   H15A11322   2.159   2.476  10.793  4.9663 -0.5540 -1.4771
  110OSM   H15B11323   2.252   2.618  10.818  0.5344  0.2059  0.8536
  110OSM   H15C11324   2.096   2.618  10.887  0.7106  1.3711 -0.9867
  110OSM    C1411325   2.362   2.424  10.964 -0.7331  0.1557 -0.5142
  110OSM   H14A11326   2.397   2.368  11.049 -2.0573 -3.1147 -1.9252
  110OSM   H14B11327   2.429   2.506  10.945 -0.0803 -0.2454  0.0226
  110OSM   H14C11328   2.368   2.365  10.874  4.1425  0.4133 -0.6165
  110OSM    C1311329   2.248   2.594  11.093 -0.0596  0.5419  0.0795
  110OSM   H13A11330   2.297   2.552  11.180 -1.8005 -2.4382 -0.2368
  110OSM   H13B11331   2.155   2.646  11.105  1.5691  3.6936  0.2332
  110OSM   H13C11332   2.310   2.669  11.045  0.9663 -1.5219 -2.0259
  110OSM    C1211333   2.135   2.383  11.043  0.2479  0.1008  0.6120
  110OSM   H12A11334   2.188   2.350  11.130  1.6618  1.4237  0.2888
  110OSM   H12B11335   2.130   2.298  10.977  0.7955  0.3704  0.2163
  110OSM    C1111336   1.995   2.421  11.093 -0.5728 -0.2397 -0.0501
  110OSM   H11A11337   2.007   2.508  11.160 -0.4968 -0.3964  0.1389
  110OSM   H11B11338   1.955   2.334  11.149  1.0989 -2.6347 -2.2961
  110OSM      P11339   1.811   2.375  10.909  0.0242  0.4964 -0.3051
  110OSM    O1311340   1.877   2.277  10.826 -0.3086 -0.0168  0.8250
  110OSM    O1411341   1.704   2.318  10.991 -0.3452 -0.8409 -1.1095
  110OSM    O1111342   1.737   2.474  10.811  0.1534 -1.1603  0.3621
  110OSM    O1211343   1.906   2.465  10.992 -0.1116  0.0025 -0.4387
  110OSM    C1S11344   1.811   2.561  10.726 -0.6039 -0.3315 -0.0288
  110OSM    H1S11345   1.921   2.553  10.745 -0.2691 -1.2355 -2.0243
  110OSM    H1T11346   1.776   2.666  10.734 -2.7717 -1.1537  3.8554
  110OSM     NF11347   1.874   2.598  10.499 -0.6758  0.0799  0.4558
  110OSM    HNF11348   1.832   2.666  10.440  4.5205  1.4911 -2.1748
  110OSM    C2S11349   1.794   2.521  10.584  0.4314 -0.4071 -0.5899
  110OSM    H2S11350   1.838   2.420  10.573 -0.5219 -1.0981  1.3421
  110OSM    C3S11351   1.642   2.525  10.543  0.2548 -1.1151 -1.0777
  110OSM    H3S11352   1.593   2.625  10.550 -0.2215 -1.2899 -1.8280
  110OSM     O311353   1.559   2.448  10.635  0.2866 -0.3981  0.1313
  110OSM    HO311354   1.620   2.408  10.698 -1.7263 -2.3775  0.9294
  110OSM    C4S11355   1.626   2.462  10.416 -0.2043  0.2903  0.3395
  110OSM    H4S11356   1.646   2.354  10.423  0.8972  0.5152  0.8587
  110OSM    C5S11357   1.602   2.516  10.298 -0.8148  0.0145  0.3505
  110OSM    H5S11358   1.581   2.623  10.285 -0.6192  0.1025  0.7354
  110OSM    C6S11359   1.594   2.431  10.173  0.6462  0.5382 -0.4172
  110OSM    H6S11360   1.497   2.445  10.121 -0.3442  0.4658  1.3135
  110OSM    H6T11361   1.581   2.323  10.194 -0.1857  0.2684 -2.1656
  110OSM    C7S11362   1.720   2.441  10.085  0.4635 -0.1345 -1.3495
  110OSM    H7S11363   1.811   2.409  10.141  1.4736  2.2691 -1.4988
  110OSM    H7T11364   1.739   2.548  10.062 -0.3225  0.3240  0.0129
  110OSM    C8S11365   1.704   2.356   9.952 -0.5475  0.1203 -0.4680
  110OSM    H8S11366   1.626   2.420   9.906 -0.8021  0.8891  0.9859
  110OSM    H8T11367   1.670   2.253   9.978  0.8235  0.1661  1.8714
  110OSM    C9S11368   1.824   2.340   9.855 -0.1011 -0.0436  0.4557
  110OSM    H9S11369   1.886   2.252   9.880 -1.4088 -0.9474  0.6014
  110OSM    H9T11370   1.891   2.426   9.878 -1.6008  0.3213  4.2848
  110OSM   C10S11371   1.785   2.330   9.713  0.3161 -0.1419 -0.4331
  110OSM   H10S11372   1.749   2.431   9.685 -0.8055 -1.0007 -2.2652
  110OSM   H10T11373   1.703   2.256   9.704  0.6388 -0.2963 -2.4814
  110OSM   C11S11374   1.903   2.284   9.618  0.3721  0.1748  0.1786
  110OSM   H11S11375   1.961   2.200   9.660  2.0291  1.4182  0.4787
  110OSM   H11T11376   1.970   2.371   9.602 -1.6497  1.5630 -1.2579
  110OSM   C12S11377   1.856   2.242   9.477  0.3464  0.2474  0.3227
  110OSM   H12S11378   1.786   2.157   9.473  1.8440 -1.1755  2.1908
  110OSM   H12T11379   1.946   2.193   9.434 -2.2565 -2.0883 -2.9031
  110OSM   C13S11380   1.817   2.370   9.400 -0.1674 -0.3025 -0.1244
  110OSM   H13S11381   1.883   2.456   9.425 -1.3640  0.3956  0.7065
  110OSM   H13T11382   1.716   2.406   9.429 -0.5313 -1.1090 -0.3610
  110OSM   C14S11383   1.814   2.347   9.252  0.0975 -0.3010  0.8922
  110OSM   H14S11384   1.737   2.277   9.213  2.0028 -2.1078  0.1505
  110OSM   H14T11385   1.911   2.299   9.227 -0.1187 -1.3476  1.9808
  110OSM   C15S11386   1.789   2.477   9.176 -0.3950 -0.2556 -0.1913
  110OSM   H15S11387   1.853   2.562   9.208  0.2469 -0.4802 -0.8537
  110OSM   H15T11388   1.693   2.530   9.190  0.5269  1.1407  1.1859
  110OSM   C16S11389   1.810   2.465   9.023  0.0625 -0.0486 -0.1740
  110OSM   H16S11390   1.710   2.460   8.975 -0.0877 -0.4665  0.1671
  110OSM   H16T11391   1.869   2.371   9.010 -0.8158 -0.5502 -0.5786
  110OSM   C17S11392   1.871   2.590   8.959 -0.1584 -0.2283  0.3174
  110OSM   H17S11393   1.876   2.567   8.850 -1.0796 -2.4198  0.6707
  110OSM   H17T11394   1.971   2.604   9.003 -0.8273  0.3988  1.6819
  110OSM   C18S11395   1.782   2.712   8.987 -1.1805  0.0455  0.1512
  110OSM   H18S11396   1.683   2.699   8.939 -1.1680  1.2529 -0.2365
  110OSM   H18T11397   1.842   2.798   8.949  0.5810 -1.9278 -1.7817
  110OSM   H18U11398   1.764   2.730   9.095 -0.6452  3.3469 -0.1892
  110OSM    C1F11399   2.006   2.603  10.495  0.8167 -0.9493  0.3737
  110OSM     OF11400   2.069   2.520  10.555 -0.3962  0.2382  0.7506
  110OSM    C2F11401   2.063   2.710  10.415  0.4386  0.8581 -0.2721
  110OSM    H2F11402   2.142   2.756  10.479  1.2760 -1.7262  0.6693
  110OSM    H2G11403   1.984   2.781  10.383 -0.1839  0.3651  0.1485
  110OSM    C3F11404   2.136   2.666  10.281  0.5822  0.6429 -1.3326
  110OSM    H3F11405   2.197   2.574  10.293  1.8236  1.2831 -2.5579
  110OSM    H3G11406   2.200   2.750  10.249  0.2355  1.8570  0.9556
  110OSM    C4F11407   2.036   2.648  10.168 -0.0223  0.2685 -0.0151
  110OSM    H4F11408   1.981   2.743  10.153 -0.8251 -0.4030 -1.4442
  110OSM    H4G11409   1.968   2.567  10.201 -0.0854 -1.0962 -3.1455
  110OSM    C5F11410   2.087   2.606  10.036 -0.3421  0.6880  0.1265
  110OSM    H5F11411   2.072   2.496  10.025  0.9127  0.4466  0.6567
  110OSM    H5G11412   2.198   2.617  10.041 -0.4154  1.8431 -0.5925
  110OSM    C6F11413   2.037   2.682   9.916  0.2801 -1.3625  0.0791
  110OSM    H6F11414   2.035   2.792   9.932 -1.3922 -1.0860 -1.7178
  110OSM    H6G11415   1.936   2.644   9.892 -0.1006 -2.5001  3.0429
  110OSM    C7F11416   2.127   2.671   9.792  0.0443  0.6133  0.1356
  110OSM    H7F11417   2.165   2.567   9.798 -4.3292 -1.1275  1.8002
  110OSM    H7G11418   2.204   2.751   9.796  2.6421 -1.4503 -3.1830
  110OSM    C8F11419   2.062   2.687   9.657 -0.0038 -0.1924  0.0318
  110OSM    H8F11420   2.051   2.796   9.641 -0.3948 -0.5888 -2.8422
  110OSM    H8G11421   1.961   2.640   9.661 -0.0652 -0.0127  3.3215
  110OSM    C9F11422   2.159   2.627   9.553 -0.8356 -0.6217 -0.5864
  110OSM    H9F11423   2.213   2.542   9.597 -2.0914 -0.4225  1.4536
  110OSM   C10F11424   2.195   2.682   9.435  0.0485  0.4215 -0.8951
  110OSM   H10F11425   2.250   2.614   9.369 -1.8253 -2.9578  0.7414
  110OSM   C11F11426   2.149   2.811   9.382 -0.2140  0.4231 -0.2515
  110OSM   H11F11427   2.229   2.886   9.402  1.1166 -1.4812  2.2219
  110OSM   H11G11428   2.059   2.854   9.432  1.1057  1.4327  1.3676
  110OSM   C12F11429   2.134   2.813   9.229 -0.4700  0.2586  0.4557
  110OSM   H12F11430   2.056   2.744   9.190  0.8473 -1.0241  0.0336
  110OSM   H12G11431   2.228   2.779   9.181  0.1720  2.0835  0.3365
  110OSM   C13F11432   2.124   2.958   9.176  0.3759  0.1042 -0.0626
  110OSM   H13F11433   2.161   3.026   9.256 -1.0600  1.3857 -0.4360
  110OSM   H13G11434   2.027   2.995   9.136  0.3466 -1.6671 -1.7578
  110OSM   C14F11435   2.213   2.973   9.059 -0.6247 -0.3249 -0.0045
  110OSM   H14F11436   2.197   2.887   8.990  1.8110 -1.4068  0.6687
  110OSM   H14G11437   2.322   2.965   9.079 -0.0700  1.2842 -1.9848
  110OSM   C15F11438   2.166   3.108   8.994 -0.0124  0.6112 -0.3750
  110OSM   H15F11439   2.186   3.195   9.061 -0.0951 -0.1808  0.6994
  110OSM   H15G11440   2.056   3.095   8.990  0.1828 -1.4203  0.1113
  110OSM   C16F11441   2.251   3.122   8.863 -0.1767  0.8223 -0.0837
  110OSM   H16F11442   2.190   3.189   8.798 -1.1280  0.6403  0.5985
  110OSM   H16G11443   2.269   3.029   8.805 -3.4875  0.0468 -0.0650
  110OSM   C17F11444   2.383   3.182   8.900 -0.0378 -0.3600 -0.5749
  110OSM   H17F11445   2.437   3.110   8.965  0.8598  0.5463 -0.2836
  110OSM   H17G11446   2.362   3.268   8.967 -0.3537  0.5086 -1.7438
  110OSM   C18F11447   2.468   3.237   8.785 -0.0896 -0.3051 -0.2173
  110OSM   H18F11448   2.416   3.327   8.744  0.1541 -0.1769 -0.2446
  110OSM   H18G11449   2.486   3.159   8.708  2.8425 -1.0410  1.0747
  110OSM   H18H11450   2.568   3.265   8.823  0.6038 -0.0962 -2.0796
  111OSM      N11451   4.019   6.049  11.074 -0.6398  0.5480  0.4448
  111OSM    C1511452   4.042   5.928  10.986 -0.8300  0.2121 -0.4745
  111OSM   H15A11453   3.955   5.868  10.967 -1.8553  0.6486  2.2837
  111OSM   H15B11454   4.127   5.873  11.025 -0.4270  1.8210  1.0548
  111OSM   H15C11455   4.064   5.954  10.884 -4.3610 -1.4727 -1.8337
  111OSM    C1411456   3.984   6.000  11.208  0.4653  1.0782 -0.2737
  111OSM   H14A11457   3.892   5.943  11.195  1.3089 -0.1068 -1.2479
  111OSM   H14B11458   3.958   6.081  11.275 -2.2991 -0.5558  0.8209
  111OSM   H14C11459   4.057   5.931  11.247 -0.3948 -0.0296 -0.5729
  111OSM    C1311460   4.154   6.114  11.074  0.5073 -0.2847 -0.4107
  111OSM   H13A11461   4.150   6.181  11.158 -2.0846 -0.4601 -0.3168
  111OSM   H13B11462   4.173   6.186  10.995  0.4069  1.4906  1.1332
  111OSM   H13C11463   4.231   6.038  11.073 -0.4774 -1.3661  1.5147
  111OSM    C1211464   3.903   6.132  11.026 -0.4593  0.1887 -0.1145
  111OSM   H12A11465   3.897   6.218  11.091  0.1502  0.0216  0.1726
  111OSM   H12B11466   3.814   6.072  11.040  1.2785 -2.6867 -0.6465
  111OSM    C1111467   3.915   6.186  10.881  0.2196 -0.2357 -0.4673
  111OSM   H11A11468   3.827   6.240  10.841  0.6961  1.1822  0.3299
  111OSM   H11B11469   3.938   6.109  10.804  3.1533  0.6763 -0.6451
  111OSM      P11470   3.991   6.429  10.922  0.2640 -0.1072 -0.4415
  111OSM    O1311471   3.869   6.427  11.009  0.8710  0.3363  0.1406
  111OSM    O1411472   4.112   6.491  10.980  0.3461  0.6040 -0.0438
  111OSM    O1111473   3.962   6.504  10.794 -0.0792 -1.0608  0.5316
  111OSM    O1211474   4.019   6.281  10.880 -0.2364  0.4383 -0.3599
  111OSM    C1S11475   4.004   6.453  10.665  0.2512  0.2781 -0.2612
  111OSM    H1S11476   3.920   6.383  10.645 -2.1902  1.6300  3.9035
  111OSM    H1T11477   4.099   6.396  10.664  0.7189  1.0491 -0.1701
  111OSM     NF11478   4.015   6.493  10.430 -0.7714 -0.3300 -0.0072
  111OSM    HNF11479   4.105   6.467  10.397 -0.5845  1.0004 -0.6341
  111OSM    C2S11480   4.010   6.559  10.557  0.1521 -0.3661  0.0884
  111OSM    H2S11481   3.917   6.620  10.558  1.2281  1.4329 -1.6377
  111OSM    C3S11482   4.127   6.661  10.577 -0.2917  0.6598  0.1069
  111OSM    H3S11483   4.220   6.601  10.572  0.2566  1.5160 -0.1607
  111OSM     O311484   4.131   6.721  10.706  0.1295 -0.1225  0.0500
  111OSM    HO311485   4.075   6.656  10.749  2.4455 -3.5574 -1.7228
  111OSM    C4S11486   4.127   6.772  10.477  0.3103 -0.0924  0.2093
  111OSM    H4S11487   4.194   6.758  10.391  1.8856  3.1460  0.7565
  111OSM    C5S11488   4.046   6.885  10.482 -0.0484  0.2106 -0.9180
  111OSM    H5S11489   3.973   6.894  10.564 -0.7974 -1.6879 -1.3106
  111OSM    C6S11490   4.034   6.991  10.374 -0.1481 -0.8895 -0.0941
  111OSM    H6S11491   4.070   7.093  10.401 -1.5319 -0.5510  0.5698
  111OSM    H6T11492   3.928   7.008  10.343 -0.8429 -1.1361  1.9275
  111OSM    C7S11493   4.099   6.957  10.240  0.2811 -0.0293 -0.1968
  111OSM    H7S11494   4.072   6.864  10.186  0.2475 -0.2461  0.1931
  111OSM    H7T11495   4.210   6.952  10.254  0.2070  0.6520  0.7039
  111OSM    C8S11496   4.080   7.071  10.144 -0.7525 -0.3176 -0.0029
  111OSM    H8S11497   4.107   7.169  10.189  0.1942 -0.4663 -0.2252
  111OSM    H8T11498   3.971   7.071  10.121 -0.7625 -3.6147 -0.3586
  111OSM    C9S11499   4.154   7.056  10.009  1.0028  0.5475  0.0201
  111OSM    H9S11500   4.164   6.950   9.979 -2.1890 -0.3664  1.7457
  111OSM    H9T11501   4.258   7.095  10.017  1.0797  0.0808  2.0468
  111OSM   C10S11502   4.075   7.122   9.896 -0.5884 -0.4255 -0.1477
  111OSM   H10S11503   4.037   7.225   9.912 -1.5113 -0.2487 -2.8409
  111OSM   H10T11504   3.992   7.055   9.864 -0.8766  0.6653 -1.8167
  111OSM   C11S11505   4.165   7.135   9.768  0.5031  0.2901 -0.6172
  111OSM   H11S11506   4.200   7.034   9.737  0.1286 -0.5437  1.4949
  111OSM   H11T11507   4.250   7.206   9.778 -1.3210  2.3484  1.9384
  111OSM   C12S11508   4.076   7.201   9.654 -0.0093  0.0279 -0.3163
  111OSM   H12S11509   4.043   7.303   9.682  1.7777  1.2616 -2.4170
  111OSM   H12T11510   3.987   7.136   9.638 -0.3289  0.9841 -2.8592
  111OSM   C13S11511   4.150   7.200   9.519  0.6711  0.5570 -0.7813
  111OSM   H13S11512   4.171   7.100   9.476  2.0957  0.0184  1.0403
  111OSM   H13T11513   4.251   7.245   9.528  1.4225 -0.8180 -1.8690
  111OSM   C14S11514   4.067   7.276   9.424 -0.9001 -0.2050 -0.1416
  111OSM   H14S11515   4.014   7.367   9.460  0.7436  0.9849 -0.6200
  111OSM   H14T11516   3.985   7.213   9.382  0.5938 -1.1438 -1.8159
  111OSM   C15S11517   4.145   7.307   9.294 -0.1843 -0.0190  0.6321
  111OSM   H15S11518   4.194   7.212   9.264 -1.8627 -1.3910  2.0769
  111OSM   H15T11519   4.234   7.372   9.308  1.1462 -1.6408 -0.0439
  111OSM   C16S11520   4.063   7.354   9.169  0.4005  0.2511  0.1353
  111OSM   H16S11521   4.005   7.447   9.187  0.4768  0.3127  0.0558
  111OSM   H16T11522   3.994   7.268   9.151 -2.5023  2.6145 -0.7690
  111OSM   C17S11523   4.144   7.378   9.039  0.5556  0.7739 -0.2688
  111OSM   H17S11524   4.072   7.374   8.955 -0.5961 -1.6771  0.7408
  111OSM   H17T11525   4.213   7.292   9.027 -0.2591  0.2766 -1.5797
  111OSM   C18S11526   4.223   7.504   9.025  0.1898 -0.3092 -0.8436
  111OSM   H18S11527   4.271   7.506   8.925  0.4733 -0.0955 -0.7063
  111OSM   H18T11528   4.301   7.513   9.104 -0.1053  1.5123 -0.7123
  111OSM   H18U11529   4.157   7.594   9.024 -1.6141 -1.5831 -1.1537
  111OSM    C1F11530   3.904   6.431  10.384 -0.8145  0.2925  0.2066
  111OSM     OF11531   3.795   6.461  10.425 -0.2407  0.1525 -0.3679
  111OSM    C2F11532   3.926   6.315  10.290 -0.6536 -0.1619  0.0770
  111OSM    H2F11533   3.947   6.220  10.342  2.1635  0.8668  1.0381
  111OSM    H2G11534   4.014   6.330  10.224  0.1164 -2.5093  0.4966
  111OSM    C3F11535   3.806   6.287  10.197 -0.1724  0.9360  0.3957
  111OSM    H3F11536   3.769   6.379  10.148  0.0233  0.4029 -0.7681
  111OSM    H3G11537   3.722   6.248  10.259 -0.1007  0.5435  0.2494
  111OSM    C4F11538   3.831   6.174  10.085 -0.0946 -0.6879 -0.2402
  111OSM    H4F11539   3.743   6.108  10.071  0.2479 -1.1704 -0.1260
  111OSM    H4G11540   3.917   6.115  10.122  0.2459 -0.4601 -0.6555
  111OSM    C5F11541   3.863   6.237   9.950  0.4342  0.5252  0.1603
  111OSM    H5F11542   3.937   6.319   9.942 -0.8243  1.6198 -0.7623
  111OSM    H5G11543   3.774   6.291   9.912  0.5290  0.8074  0.3405
  111OSM    C6F11544   3.912   6.128   9.860 -0.5584  0.5048 -0.6684
  111OSM    H6F11545   3.847   6.038   9.865 -1.8386  1.4545  1.1316
  111OSM    H6G11546   4.014   6.097   9.892  0.1999 -1.3368 -4.4186
  111OSM    C7F11547   3.922   6.159   9.705  0.4634 -0.1978  0.4115
  111OSM    H7F11548   3.955   6.263   9.685 -1.0070  0.3460  0.6532
  111OSM    H7G11549   3.819   6.162   9.663  1.2845 -0.4505 -1.6999
  111OSM    C8F11550   3.983   6.045   9.632 -0.2379  0.6686  0.3344
  111OSM    H8F11551   3.936   6.035   9.532  0.1992  0.4813  0.1450
  111OSM    H8G11552   3.968   5.945   9.679 -0.5339  0.5823  0.0532
  111OSM    C9F11553   4.125   6.072   9.615 -0.5274 -0.6284  0.7665
  111OSM    H9F11554   4.193   6.050   9.698  0.8635  0.4822 -0.0227
  111OSM   C10F11555   4.178   6.157   9.523 -0.4899  0.3717 -0.3499
  111OSM   H10F11556   4.285   6.178   9.534  0.0676 -2.8132  1.5564
  111OSM   C11F11557   4.109   6.223   9.412  0.0488  1.2199  0.2172
  111OSM   H11F11558   4.137   6.331   9.417  0.2368  1.1443  0.9229
  111OSM   H11G11559   3.999   6.220   9.428  0.0736 -0.1861  0.2455
  111OSM   C12F11560   4.135   6.155   9.270  0.4854  0.0438 -0.5487
  111OSM   H12F11561   4.123   6.044   9.270  0.6921  0.0111  0.2463
  111OSM   H12G11562   4.243   6.173   9.252  0.4645 -0.6040 -1.3723
  111OSM   C13F11563   4.057   6.203   9.145  1.0562  0.1226 -0.7223
  111OSM   H13F11564   4.119   6.170   9.059  0.0571  3.2030 -2.8102
  111OSM   H13G11565   4.059   6.314   9.149  1.6888  0.0722  1.1924
  111OSM   C14F11566   3.914   6.152   9.125  0.9629 -0.5725 -0.3319
  111OSM   H14F11567   3.856   6.201   9.206  2.1829  3.0961 -1.4776
  111OSM   H14G11568   3.904   6.042   9.137  1.7026 -0.4182  2.5431
  111OSM   C15F11569   3.833   6.191   9.004 -0.3891 -0.6928  0.4821
  111OSM   H15F11570   3.805   6.298   9.016 -1.1238 -0.8452  0.1634
  111OSM   H15G11571   3.740   6.132   9.021 -1.4193  1.3687  2.4819
  111OSM   C16F11572   3.899   6.147   8.873 -0.0229 -0.3345 -0.5671
  111OSM   H16F11573   3.915   6.038   8.882 -1.6137 -0.4670  1.1267
  111OSM   H16G11574   3.998   6.198   8.878  1.3755 -2.8960 -0.1875
  111OSM   C17F11575   3.809   6.149   8.750 -0.1696 -0.0732 -0.2914
  111OSM   H17F11576   3.794   6.256   8.729 -0.8589  0.5458  2.8308
  111OSM   H17G11577   3.707   6.116   8.779  0.4008 -1.5305  0.1689
  111OSM   C18F11578   3.864   6.064   8.626  0.3935 -0.1501  0.3014
  111OSM   H18F11579   3.791   6.087   8.545  2.2242  1.5679 -0.9431
  111OSM   H18G11580   3.869   5.955   8.648  0.1761  0.1071  1.7408
  111OSM   H18H11581   3.965   6.085   8.587  0.7536 -0.4363  1.0663
  112OSM      N11582   2.776   3.969  11.579  0.3321  0.7436 -0.2229
  112OSM    C1511583   2.871   4.072  11.613 -0.0924 -0.2944  0.4939
  112OSM   H15A11584   2.847   4.131  11.700 -2.4434  0.3516 -0.5104
  112OSM   H15B11585   2.877   4.142  11.531 -0.3266 -0.5001  0.3025
  112OSM   H15C11586   2.968   4.027  11.629  0.1610  0.1809  0.3390
  112OSM    C1411587   2.793   3.868  11.698 -0.0349 -0.4080  0.4622
  112OSM   H14A11588   2.758   3.923  11.784  0.1500  1.2866 -0.5155
  112OSM   H14B11589   2.897   3.847  11.715  0.9207  4.0814  1.4458
  112OSM   H14C11590   2.736   3.777  11.683 -0.1933 -0.1012 -0.9046
  112OSM    C1311591   2.636   4.019  11.568  0.0193 -0.0154  0.1567
  112OSM   H13A11592   2.559   3.943  11.566  1.1154 -1.1417 -1.6449
  112OSM   H13B11593   2.626   4.092  11.489  3.3832  0.1591 -0.2445
  112OSM   H13C11594   2.606   4.064  11.662 -0.2231  0.5918 -0.2056
  112OSM    C1211595   2.821   3.902  11.456 -0.4006 -0.5472 -0.4071
  112OSM   H12A11596   2.763   3.815  11.428  0.6703 -1.3887 -0.0882
  112OSM   H12B11597   2.913   3.849  11.474 -0.2379 -1.4826 -3.4160
  112OSM    C1111598   2.846   3.996  11.334 -0.2235 -0.2804  0.2263
  112OSM   H11A11599   2.895   3.943  11.250  1.6033  1.4239  0.1498
  112OSM   H11B11600   2.925   4.072  11.353  0.6241 -0.6606 -1.5402
  112OSM      P11601   2.705   4.186  11.227  0.0159  0.0635 -0.2709
  112OSM    O1311602   2.558   4.197  11.193 -0.3175 -0.8141  0.7066
  112OSM    O1411603   2.764   4.278  11.326  0.2327 -0.1776  0.0595
  112OSM    O1111604   2.794   4.199  11.092  0.2536  0.0495  0.0252
  112OSM    O1211605   2.728   4.042  11.283  0.1223 -0.9968 -0.3575
  112OSM    C1S11606   2.763   4.093  10.992  0.0342 -0.1072 -0.2038
  112OSM    H1S11607   2.658   4.057  10.990  0.3369 -0.9592 -1.8836
  112OSM    H1T11608   2.826   4.006  11.020 -0.6379  0.7285  4.9281
  112OSM     NF11609   2.760   4.017  10.770  0.3684 -0.1702 -0.3505
  112OSM    HNF11610   2.805   3.928  10.776 -0.0756 -0.5181 -1.7783
  112OSM    C2S11611   2.809   4.123  10.852 -0.6090 -0.9705 -0.0724
  112OSM    H2S11612   2.768   4.223  10.827  0.5904 -0.0779  1.3332
  112OSM    C3S11613   2.961   4.144  10.854 -0.9837  0.0517 -0.0110
  112OSM    H3S11614   3.002   4.048  10.891  3.4210  1.2820 -1.0967
  112OSM     O311615   3.005   4.255  10.939 -0.1496  0.5473  0.0127
  112OSM    HO311616   2.921   4.273  10.983 -0.4238 -0.0714 -0.2435
  112OSM    C4S11617   3.008   4.189  10.722  1.3820 -0.2802  0.6417
  112OSM    H4S11618   2.970   4.281  10.675 -1.2184 -1.4295  0.3059
  112OSM    C5S11619   3.098   4.115  10.658 -0.7319 -0.5951  0.8396
  112OSM    H5S11620   3.148   4.028  10.704  0.9917  1.0592  2.2405
  112OSM    C6S11621   3.145   4.149  10.519  0.1543  0.9932  0.9710
  112OSM    H6S11622   3.234   4.088  10.493 -1.0950 -1.7670  2.6579
  112OSM    H6T11623   3.169   4.257  10.511 -1.0282  1.2507  0.6120
  112OSM    C7S11624   3.039   4.142  10.403  0.5340  0.8191 -0.3680
  112OSM    H7S11625   2.951   4.209  10.416  0.2049  1.1079 -3.4824
  112OSM    H7T11626   3.008   4.035  10.404  1.5649  0.5133 -0.8935
  112OSM    C8S11627   3.105   4.172  10.265  0.4290  0.1250 -0.5121
  112OSM    H8S11628   3.209   4.134  10.275  1.9964  3.6996 -1.5788
  112OSM    H8T11629   3.118   4.282  10.256  0.4191  0.3563  1.7025
  112OSM    C9S11630   3.029   4.121  10.144 -0.1037 -0.2792 -0.2001
  112OSM    H9S11631   2.984   4.022  10.165 -0.8614  0.5514  2.4270
  112OSM    H9T11632   3.086   4.108  10.049 -1.1226 -2.9140 -0.5439
  112OSM   C10S11633   2.904   4.207  10.114 -0.2169 -0.1713  0.4344
  112OSM   H10S11634   2.946   4.308  10.094 -1.5543 -0.1291 -2.7598
  112OSM   H10T11635   2.853   4.212  10.213 -0.9830 -0.6809  0.0776
  112OSM   C11S11636   2.823   4.152   9.996 -0.5635  0.5236 -0.5220
  112OSM   H11S11637   2.779   4.054  10.024 -0.7972  1.2780  1.9564
  112OSM   H11T11638   2.900   4.137   9.917 -0.3755 -0.2319 -0.2108
  112OSM   C12S11639   2.707   4.228   9.947  0.6501 -0.2413  0.0405
  112OSM   H12S11640   2.665   4.193   9.850 -0.2071  0.0535  0.2906
  112OSM   H12T11641   2.729   4.337   9.951 -0.5523  0.0422 -0.3780
  112OSM   C13S11642   2.594   4.213  10.048  0.2779 -0.0543 -0.5967
  112OSM   H13S11643   2.632   4.262  10.140  1.7559  1.6909 -2.0517
  112OSM   H13T11644   2.575   4.104  10.055  0.2695  0.0174  0.7968
  112OSM   C14S11645   2.472   4.299  10.006 -0.4816  0.2237  0.0587
  112OSM   H14S11646   2.451   4.282   9.899  2.5190  0.4638 -0.6692
  112OSM   H14T11647   2.499   4.407  10.009  0.4192 -0.0077  0.6500
  112OSM   C15S11648   2.354   4.287  10.094  0.6270 -0.1182 -0.3787
  112OSM   H15S11649   2.295   4.195  10.076 -2.0319  0.7979  2.5819
  112OSM   H15T11650   2.288   4.374  10.073 -1.6698 -1.6911 -0.0754
  112OSM   C16S11651   2.388   4.299  10.249 -0.0310  0.2267 -0.1295
  112OSM   H16S11652   2.449   4.392  10.260  0.4003  0.0031 -0.5935
  112OSM   H16T11653   2.460   4.216  10.263  1.6436  1.5807 -0.3298
  112OSM   C17S11654   2.270   4.272  10.344 -0.0606  0.1230 -0.1638
  112OSM   H17S11655   2.236   4.169  10.320  0.3282  0.4850 -2.4757
  112OSM   H17T11656   2.197   4.350  10.312  1.6327  2.5137  1.4147
  112OSM   C18S11657   2.317   4.291  10.486 -0.6723 -0.0463  0.6541
  112OSM   H18S11658   2.355   4.395  10.495 -0.4707 -0.0555 -0.0433
  112OSM   H18T11659   2.405   4.225  10.504  0.5216  1.3340  0.0764
  112OSM   H18U11660   2.237   4.276  10.562 -0.4428  0.9945  1.1097
  112OSM    C1F11661   2.640   4.021  10.716  0.3638  0.7817  0.5531
  112OSM     OF11662   2.577   4.122  10.712  0.7496  0.2913 -0.2114
  112OSM    C2F11663   2.587   3.886  10.674 -0.5411 -0.7842  0.2865
  112OSM    H2F11664   2.546   3.832  10.763 -0.2542  0.1269  0.9961
  112OSM    H2G11665   2.665   3.824  10.625  0.4744  1.0315 -0.4903
  112OSM    C3F11666   2.472   3.892  10.574  0.3764 -0.3405  0.9588
  112OSM    H3F11667   2.390   3.950  10.622 -0.5362 -2.2070  1.7301
  112OSM    H3G11668   2.429   3.790  10.566  0.1965 -0.4346  2.6474
  112OSM    C4F11669   2.513   3.943  10.433 -0.2670 -0.2417 -0.2218
  112OSM    H4F11670   2.588   4.025  10.445 -1.1983  0.8036 -1.3001
  112OSM    H4G11671   2.432   3.985  10.370 -1.0860 -0.0420  0.9303
  112OSM    C5F11672   2.571   3.828  10.356  0.5355  0.0081  0.7501
  112OSM    H5F11673   2.494   3.748  10.353  1.1771 -0.5984 -0.1130
  112OSM    H5G11674   2.651   3.792  10.424  0.8692  1.0598  0.9382
  112OSM    C6F11675   2.624   3.867  10.216 -0.5602 -0.0606 -1.1060
  112OSM    H6F11676   2.695   3.950  10.236  0.2817 -1.0908  0.3694
  112OSM    H6G11677   2.542   3.919  10.163 -1.3917 -0.8138 -0.5929
  112OSM    C7F11678   2.703   3.766  10.126 -0.0209  0.0958 -0.5014
  112OSM    H7F11679   2.746   3.688  10.192 -1.1361  1.2211  1.6860
  112OSM    H7G11680   2.793   3.818  10.087  0.9950 -2.6660 -2.1164
  112OSM    C8F11681   2.632   3.724   9.996  0.2993 -0.2447 -0.5071
  112OSM    H8F11682   2.604   3.822   9.951  1.8824  0.8214  0.6982
  112OSM    H8G11683   2.544   3.668  10.032 -0.9850  1.7127 -0.4558
  112OSM    C9F11684   2.719   3.650   9.905  0.3413 -0.5064 -0.1279
  112OSM    H9F11685   2.723   3.543   9.932 -0.4785 -0.4606  0.2090
  112OSM   C10F11686   2.803   3.690   9.811  0.1424 -0.9266 -0.4195
  112OSM   H10F11687   2.858   3.608   9.764 -1.1684 -1.9065 -0.2952
  112OSM   C11F11688   2.845   3.829   9.762 -0.1898  0.4713  0.2357
  112OSM   H11F11689   2.766   3.904   9.782 -0.2350  0.3944  0.3472
  112OSM   H11G11690   2.839   3.831   9.651 -2.1081  0.9532  0.3071
  112OSM   C12F11691   2.981   3.881   9.808 -0.4403 -0.2646 -0.1351
  112OSM   H12F11692   2.978   3.881   9.919  0.7848  0.5460 -0.0793
  112OSM   H12G11693   2.993   3.985   9.771 -1.2023 -0.2733 -0.4226
  112OSM   C13F11694   3.096   3.783   9.775 -0.3002 -0.2772  0.1009
  112OSM   H13F11695   3.114   3.781   9.666  1.7076  1.1246  0.3393
  112OSM   H13G11696   3.065   3.682   9.809 -1.2308  0.4271  1.4404
  112OSM   C14F11697   3.226   3.795   9.855  0.9678 -0.5139  0.8870
  112OSM   H14F11698   3.216   3.754   9.959  1.2672  1.6321  1.8057
  112OSM   H14G11699   3.250   3.903   9.850 -2.1048  0.2018 -0.8196
  112OSM   C15F11700   3.337   3.704   9.793 -0.5389  0.5740 -0.3935
  112OSM   H15F11701   3.362   3.721   9.686  0.2720 -0.1136 -0.3262
  112OSM   H15G11702   3.302   3.599   9.797  0.5227  0.2708  2.1183
  112OSM   C16F11703   3.479   3.704   9.861  0.2442 -0.3546 -0.5637
  112OSM   H16F11704   3.467   3.678   9.968  1.8872 -1.5533 -0.6261
  112OSM   H16G11705   3.528   3.803   9.848  1.6919 -1.0741 -0.9293
  112OSM   C17F11706   3.567   3.592   9.807 -0.0813  0.4716 -0.2348
  112OSM   H17F11707   3.612   3.639   9.717  0.1033  3.5370  1.3276
  112OSM   H17G11708   3.519   3.496   9.778  3.1776 -1.3536 -0.0770
  112OSM   C18F11709   3.667   3.552   9.911  0.5470 -0.7644 -0.2301
  112OSM   H18F11710   3.631   3.517  10.010  1.0442 -0.3505  0.1088
  112OSM   H18G11711   3.744   3.630   9.936  1.6437 -2.1381  0.8806
  112OSM   H18H11712   3.720   3.465   9.868 -1.9198 -2.6373  0.3674
  113OSM      N11713   0.503   6.651  11.112 -0.2941  0.1557  0.3225
  113OSM    C1511714   0.476   6.752  11.224 -0.6588 -0.1424  0.0528
  113OSM   H15A11715   0.517   6.734  11.322 -1.0718  3.5821  1.0674
  113OSM   H15B11716   0.369   6.768  11.225 -1.4283 -4.0500 -0.7189
  113OSM   H15C11717   0.520   6.848  11.204 -0.1692  0.2123  2.5840
  113OSM    C1411718   0.646   6.617  11.107 -0.1707  0.8610  0.7649
  113OSM   H14A11719   0.693   6.713  11.104  1.2805  0.1653  0.5714
  113OSM   H14B11720   0.684   6.548  11.033  0.4393  0.8411  1.0950
  113OSM   H14C11721   0.682   6.575  11.199  0.2232 -0.7778 -0.0922
  113OSM    C1311722   0.423   6.527  11.144  0.3190 -0.0451 -0.7516
  113OSM   H13A11723   0.452   6.437  11.091 -1.2259  0.6743 -2.9864
  113OSM   H13B11724   0.318   6.537  11.121  0.2955  1.6348 -0.0692
  113OSM   H13C11725   0.443   6.491  11.243  1.6785 -2.6845 -1.8817
  113OSM    C1211726   0.458   6.707  10.975  0.1748  0.2758 -0.0947
  113OSM   H12A11727   0.362   6.754  10.992 -1.6402 -2.9590 -0.7288
  113OSM   H12B11728   0.431   6.621  10.915  1.2412  0.3096 -0.6517
  113OSM    C1111729   0.551   6.800  10.885  0.1572  0.2453  0.5447
  113OSM   H11A11730   0.484   6.855  10.815 -0.5956 -1.2737  0.0337
  113OSM   H11B11731   0.610   6.723  10.830  0.4935 -0.9030  2.4351
  113OSM      P11732   0.613   7.022  10.990 -0.4855 -0.2581  0.2219
  113OSM    O1311733   0.465   7.049  10.999 -0.4005  0.6700 -0.2033
  113OSM    O1411734   0.697   7.051  11.106 -0.2096 -0.1785 -0.5253
  113OSM    O1111735   0.656   7.097  10.854  0.0531 -0.4666 -0.1980
  113OSM    O1211736   0.648   6.873  10.953  0.3933  0.0533  0.3363
  113OSM    C1S11737   0.794   7.124  10.819 -0.4629 -0.0655  0.1016
  113OSM    H1S11738   0.865   7.088  10.897 -1.1239 -1.8613 -0.0596
  113OSM    H1T11739   0.807   7.233  10.805 -0.8080  0.2052  1.7480
  113OSM     NF11740   0.969   7.076  10.651 -0.1063  0.7708 -0.0371
  113OSM    HNF11741   1.010   7.149  10.597  2.2518  0.5535  1.2958
  113OSM    C2S11742   0.826   7.075  10.674  0.2714 -0.3050  0.9181
  113OSM    H2S11743   0.786   6.972  10.672  0.4181 -0.3513 -0.0107
  113OSM    C3S11744   0.736   7.162  10.577  0.0184 -0.4996 -0.0731
  113OSM    H3S11745   0.784   7.262  10.577 -0.5228 -0.1747  2.4403
  113OSM     O311746   0.605   7.193  10.623 -0.2723 -0.1150  0.0326
  113OSM    HO311747   0.608   7.160  10.713  0.7744 -3.2531 -1.0347
  113OSM    C4S11748   0.736   7.102  10.438 -0.3603  0.3101 -0.5490
  113OSM    H4S11749   0.819   7.146  10.381  0.5577 -1.8658 -0.9769
  113OSM    C5S11750   0.664   6.994  10.395  0.5548 -0.4292 -0.6147
  113OSM    H5S11751   0.601   6.943  10.469  0.5969  1.0413  0.4856
  113OSM    C6S11752   0.679   6.925  10.263 -0.6059 -0.1194 -0.6136
  113OSM    H6S11753   0.573   6.929  10.228 -0.6537  2.1275 -0.3260
  113OSM    H6T11754   0.708   6.819  10.282 -0.0636  0.5078  2.5909
  113OSM    C7S11755   0.753   6.992  10.147 -0.5381 -0.0455 -0.1167
  113OSM    H7S11756   0.861   7.010  10.162 -0.6871  0.2405  0.7048
  113OSM    H7T11757   0.706   7.090  10.123  1.6713  0.3177 -3.6819
  113OSM    C8S11758   0.741   6.900  10.018  0.3809 -0.2581 -0.5943
  113OSM    H8S11759   0.669   6.819  10.043  1.9529 -1.6874 -0.4985
  113OSM    H8T11760   0.833   6.838  10.010  0.2646 -0.5907  0.4753
  113OSM    C9S11761   0.714   6.985   9.889  0.9328  0.2175  0.1504
  113OSM    H9S11762   0.805   7.046   9.873 -1.6700  4.2289 -0.6605
  113OSM    H9T11763   0.638   7.054   9.930 -0.1960 -1.5140  1.0886
  113OSM   C10S11764   0.661   6.893   9.769 -0.0988  0.9969  0.2869
  113OSM   H10S11765   0.573   6.936   9.718 -1.1683 -0.7396  0.5810
  113OSM   H10T11766   0.627   6.796   9.812  0.2849 -1.1581 -3.7634
  113OSM   C11S11767   0.771   6.880   9.657 -0.4514 -0.0390  0.2215
  113OSM   H11S11768   0.854   6.812   9.684  0.0116 -0.3520 -1.8221
  113OSM   H11T11769   0.826   6.975   9.635  1.3602 -0.9407  0.6320
  113OSM   C12S11770   0.718   6.817   9.528 -0.1769  0.0548  0.4046
  113OSM   H12S11771   0.645   6.886   9.481  2.0474  2.2279 -0.0564
  113OSM   H12T11772   0.665   6.722   9.553  1.4730 -0.8743  0.5050
  113OSM   C13S11773   0.836   6.804   9.430 -0.6005  0.2645 -0.5730
  113OSM   H13S11774   0.890   6.900   9.418  4.0963 -1.6814  2.2135
  113OSM   H13T11775   0.818   6.797   9.320  0.0320 -2.8812 -0.5915
  113OSM   C14S11776   0.934   6.700   9.476 -0.1974  0.3321 -0.1471
  113OSM   H14S11777   0.876   6.626   9.535  1.3150  0.0282  1.0129
  113OSM   H14T11778   0.995   6.755   9.550  0.1863 -0.0351 -0.1857
  113OSM   C15S11779   1.029   6.642   9.365 -0.1153  0.0557  0.0280
  113OSM   H15S11780   1.125   6.614   9.413 -1.0658 -0.0870  1.9378
  113OSM   H15T11781   1.046   6.727   9.295 -2.0189 -0.9264 -1.7400
  113OSM   C16S11782   0.980   6.513   9.278  0.1526 -0.3011 -0.3382
  113OSM   H16S11783   0.923   6.442   9.343 -1.0243  0.4993 -0.4625
  113OSM   H16T11784   1.066   6.458   9.235 -0.1910 -1.1630  0.0538
  113OSM   C17S11785   0.892   6.565   9.159  0.7144 -0.4785  0.4165
  113OSM   H17S11786   0.944   6.649   9.109 -1.1320  0.8262  0.6247
  113OSM   H17T11787   0.798   6.606   9.201  0.8741 -0.4534  0.7533
  113OSM   C18S11788   0.860   6.442   9.061 -0.4602  0.0471  0.1099
  113OSM   H18S11789   0.768   6.460   9.001  0.6144 -1.5855 -2.1853
  113OSM   H18T11790   0.873   6.352   9.124  1.6324  0.6461  0.5944
  113OSM   H18U11791   0.936   6.419   8.984 -1.4158 -0.2372 -0.7777
  113OSM    C1F11792   1.045   6.982  10.704 -0.5233 -0.2132  0.0441
  113OSM     OF11793   0.995   6.887  10.767 -0.1001  0.7530  0.2501
  113OSM    C2F11794   1.192   7.008  10.691 -0.2042 -0.6060  0.4653
  113OSM    H2F11795   1.225   7.021  10.796 -1.4559  1.1500  0.6903
  113OSM    H2G11796   1.218   7.105  10.645 -1.6164 -0.6826 -0.5667
  113OSM    C3F11797   1.261   6.899  10.608  0.1039 -0.9570  0.0182
  113OSM    H3F11798   1.214   6.799  10.620  1.8547 -1.8031  0.1147
  113OSM    H3G11799   1.368   6.893  10.638  0.3112  4.0776  1.1947
  113OSM    C4F11800   1.271   6.934  10.449  0.4274  0.0532 -0.3501
  113OSM    H4F11801   1.377   6.932  10.416  0.8111  2.0850  0.5531
  113OSM    H4G11802   1.237   7.039  10.435 -1.9906 -0.4652  1.0858
  113OSM    C5F11803   1.186   6.845  10.357 -0.1575  0.0550 -0.3360
  113OSM    H5F11804   1.080   6.847  10.392  0.0745  0.2704  0.3868
  113OSM    H5G11805   1.224   6.743  10.375  0.8866  0.7912  2.0626
  113OSM    C6F11806   1.192   6.885  10.209  0.1809 -0.7949 -0.4814
  113OSM    H6F11807   1.299   6.907  10.189 -0.2622  1.6939 -0.4076
  113OSM    H6G11808   1.143   6.984  10.196 -0.7777 -1.2217 -0.1901
  113OSM    C7F11809   1.138   6.775  10.114  0.0028  0.1387  0.3090
  113OSM    H7F11810   1.028   6.766  10.126 -0.0808  1.4637  0.6910
  113OSM    H7G11811   1.191   6.681  10.143  0.9810  0.3465 -0.7284
  113OSM    C8F11812   1.156   6.802   9.964  0.3066 -0.6628 -0.2181
  113OSM    H8F11813   1.089   6.886   9.934  0.4270 -0.4604  0.0743
  113OSM    H8G11814   1.116   6.717   9.904  2.8465 -0.7810 -1.8840
  113OSM    C9F11815   1.304   6.815   9.944 -0.1304  0.6534  0.2902
  113OSM    H9F11816   1.369   6.747  10.001 -0.6515  0.7458  1.0010
  113OSM   C10F11817   1.356   6.916   9.867 -0.3697  0.7961  0.2971
  113OSM   H10F11818   1.465   6.911   9.851 -0.2817 -0.1644  1.0917
  113OSM   C11F11819   1.282   7.024   9.799 -0.1724  0.0356  0.5581
  113OSM   H11F11820   1.345   7.116   9.791  0.6023 -0.5522 -0.3314
  113OSM   H11G11821   1.200   7.056   9.867  0.4886 -0.7799  1.7702
  113OSM   C12F11822   1.243   6.980   9.662  0.2460  0.1303  0.3418
  113OSM   H12F11823   1.174   7.050   9.610 -1.1758 -1.3616  0.1454
  113OSM   H12G11824   1.189   6.883   9.665  0.8535 -0.2772 -0.9977
  113OSM   C13F11825   1.368   6.944   9.577  0.3185 -0.6895  0.0002
  113OSM   H13F11826   1.420   6.857   9.622  0.7838  0.9204  2.7978
  113OSM   H13G11827   1.441   7.028   9.570 -0.2577 -0.2717 -1.5500
  113OSM   C14F11828   1.314   6.938   9.430 -1.0094  0.1712 -0.0093
  113OSM   H14F11829   1.253   7.030   9.414  0.3742  1.5660  2.2500
  113OSM   H14G11830   1.243   6.853   9.418  1.2303 -2.4877  3.5193
  113OSM   C15F11831   1.417   6.909   9.326 -0.1119  0.1812  0.0852
  113OSM   H15F11832   1.470   6.815   9.350 -1.9826 -1.0299 -0.3333
  113OSM   H15G11833   1.489   6.994   9.323 -0.0328  0.2322  1.9289
  113OSM   C16F11834   1.347   6.893   9.188  0.0321 -0.4547  0.3611
  113OSM   H16F11835   1.248   6.845   9.202 -1.1767  1.6990 -0.4214
  113OSM   H16G11836   1.416   6.827   9.130  1.3708  0.7809  0.4739
  113OSM   C17F11837   1.327   7.024   9.110  0.5699 -0.0601  0.0118
  113OSM   H17F11838   1.423   7.078   9.093  0.2228  1.7633  3.0869
  113OSM   H17G11839   1.258   7.091   9.163  1.6405  0.6972  0.4858
  113OSM   C18F11840   1.258   6.988   8.978 -0.2564 -0.3297 -0.1467
  113OSM   H18F11841   1.159   6.942   8.997  0.6084 -2.5554 -0.7568
  113OSM   H18G11842   1.311   6.910   8.919  0.7421  0.9005 -0.9241
  113OSM   H18H11843   1.240   7.078   8.915 -0.5908  1.1558  1.9898
  114OSM      N11844   1.910   3.841  10.825  0.4707  0.5207 -0.0621
  114OSM    C1511845   1.812   3.859  10.720  0.2441  0.6610  0.4730
  114OSM   H15A11846   1.710   3.835  10.748 -0.2250  2.0220  0.0324
  114OSM   H15B11847   1.837   3.806  10.629 -2.0889 -0.9193  0.6421
  114OSM   H15C11848   1.808   3.963  10.691 -0.6222  0.0639 -1.8137
  114OSM    C1411849   2.044   3.856  10.769  0.4299 -0.2344  0.2311
  114OSM   H14A11850   2.116   3.885  10.844  1.6853  0.4555 -1.1800
  114OSM   H14B11851   2.044   3.941  10.701  1.4280 -0.3110  0.1192
  114OSM   H14C11852   2.092   3.768  10.729 -0.0335 -1.4252  2.1631
  114OSM    C1311853   1.877   3.941  10.932  0.4111 -0.7553 -0.2277
  114OSM   H13A11854   1.867   4.038  10.886  0.3567  0.5417  2.3204
  114OSM   H13B11855   1.958   3.957  11.002 -0.1151  0.8416  0.0626
  114OSM   H13C11856   1.778   3.929  10.974 -0.2113 -2.7161 -2.0572
  114OSM    C1211857   1.900   3.703  10.888  0.8441 -0.1050 -0.0310
  114OSM   H12A11858   1.918   3.632  10.808  1.5038  1.4791 -1.3459
  114OSM   H12B11859   1.799   3.685  10.921  0.4440  1.0078 -0.6112
  114OSM    C1111860   1.992   3.677  11.002  0.6317 -0.4498 -0.0996
  114OSM   H11A11861   1.958   3.741  11.087  0.6270 -2.8809  1.8305
  114OSM   H11B11862   2.098   3.692  10.972  0.5770 -1.3211 -0.7615
  114OSM      P11863   2.086   3.437  11.064  0.1869  0.0076 -0.1400
  114OSM    O1311864   2.178   3.495  11.168  0.0546 -0.1837  0.0922
  114OSM    O1411865   2.019   3.308  11.090  0.0074 -0.2321  0.1390
  114OSM    O1111866   2.143   3.438  10.922  0.0108 -0.2306  0.0595
  114OSM    O1211867   1.971   3.545  11.046 -0.1658 -0.6310  0.2344
  114OSM    C1S11868   2.249   3.353  10.889 -0.3787 -0.0371  0.1484
  114OSM    H1S11869   2.221   3.249  10.916  2.0575 -0.8406 -0.2004
  114OSM    H1T11870   2.339   3.379  10.948 -1.8122  1.5379  1.7451
  114OSM     NF11871   2.356   3.243  10.692 -0.2482 -0.5631 -0.2316
  114OSM    HNF11872   2.424   3.266  10.623  1.5162 -4.2801 -0.0079
  114OSM    C2S11873   2.268   3.350  10.729  0.3979  0.2100 -0.0559
  114OSM    H2S11874   2.166   3.328  10.691  0.9534  0.0157 -1.4680
  114OSM    C3S11875   2.309   3.487  10.689 -0.6385  0.5874  0.7953
  114OSM    H3S11876   2.408   3.506  10.737 -0.4191  0.3827  0.4280
  114OSM     O311877   2.238   3.598  10.735 -0.6522 -0.0656 -0.7213
  114OSM    HO311878   2.190   3.566  10.812  0.1730 -1.6895 -0.8417
  114OSM    C4S11879   2.321   3.494  10.536 -0.2769 -0.0318 -0.3966
  114OSM    H4S11880   2.412   3.449  10.494 -0.6410 -0.0814 -1.1323
  114OSM    C5S11881   2.233   3.556  10.453 -0.4924 -0.0089 -0.6004
  114OSM    H5S11882   2.148   3.614  10.492 -0.5732  0.7134 -1.7979
  114OSM    C6S11883   2.254   3.571  10.301 -0.0888  0.1281 -0.1877
  114OSM    H6S11884   2.352   3.532  10.266 -2.0306 -1.0646 -5.0834
  114OSM    H6T11885   2.244   3.678  10.272 -0.2567  0.1150 -0.1781
  114OSM    C7S11886   2.143   3.499  10.234 -0.1008 -0.6723 -0.2695
  114OSM    H7S11887   2.046   3.531  10.278 -1.3506  2.1574 -4.4481
  114OSM    H7T11888   2.165   3.391  10.243  2.5063 -0.1302  0.8259
  114OSM    C8S11889   2.145   3.532  10.083  0.4381  0.1415  0.2511
  114OSM    H8S11890   2.123   3.641  10.075 -2.4477 -0.3847  0.0937
  114OSM    H8T11891   2.062   3.484  10.027 -0.3027  0.7855  0.7807
  114OSM    C9S11892   2.273   3.499   9.991 -0.2969  0.4357 -0.3110
  114OSM    H9S11893   2.307   3.394  10.001  0.2137  0.4317 -1.7921
  114OSM    H9T11894   2.364   3.553  10.022 -0.1123  0.0196 -0.1307
  114OSM   C10S11895   2.250   3.521   9.836 -0.4090 -0.1297  0.9549
  114OSM   H10S11896   2.211   3.625   9.830 -1.0175 -0.4572 -2.2816
  114OSM   H10T11897   2.175   3.456   9.788  0.1680  0.0689 -0.2501
  114OSM   C11S11898   2.381   3.518   9.763 -0.8060  0.0910  0.2145
  114OSM   H11S11899   2.425   3.420   9.794 -2.8375 -0.4215  1.6817
  114OSM   H11T11900   2.454   3.594   9.800 -1.3077  0.2421  0.9263
  114OSM   C12S11901   2.375   3.526   9.611 -0.3883  0.0347  0.0138
  114OSM   H12S11902   2.295   3.602   9.599 -0.7911 -0.3625  0.1065
  114OSM   H12T11903   2.347   3.426   9.571  1.4809  0.7922 -3.5310
  114OSM   C13S11904   2.508   3.548   9.545  0.4847 -0.2163 -0.0703
  114OSM   H13S11905   2.569   3.459   9.572  0.7809 -0.0822 -0.2971
  114OSM   H13T11906   2.566   3.635   9.584 -0.1676 -0.1813  0.8732
  114OSM   C14S11907   2.482   3.560   9.396 -0.0543 -0.1703 -0.2731
  114OSM   H14S11908   2.420   3.651   9.382  0.6793  0.0014 -3.0236
  114OSM   H14T11909   2.430   3.469   9.357 -0.6283 -0.7050  1.6324
  114OSM   C15S11910   2.601   3.585   9.301 -0.0562 -0.0495  0.1202
  114OSM   H15S11911   2.555   3.645   9.220 -0.3365  0.5458  0.7036
  114OSM   H15T11912   2.620   3.481   9.268  1.1586 -0.5041  2.0568
  114OSM   C16S11913   2.714   3.662   9.357  0.1750  0.7525  0.4871
  114OSM   H16S11914   2.761   3.600   9.437 -0.6219 -0.4741  0.0261
  114OSM   H16T11915   2.676   3.757   9.401  0.1450 -0.0697  2.3285
  114OSM   C17S11916   2.815   3.711   9.256 -0.8280 -1.3035  1.1204
  114OSM   H17S11917   2.864   3.804   9.291 -1.6718  0.7368 -2.5303
  114OSM   H17T11918   2.764   3.748   9.164  1.2103 -0.9869  0.0605
  114OSM   C18S11919   2.932   3.614   9.221 -0.1335 -0.3686  0.3260
  114OSM   H18S11920   2.905   3.530   9.154  0.5183 -0.6355  0.3988
  114OSM   H18T11921   2.989   3.570   9.306  2.8896  0.2884 -1.2346
  114OSM   H18U11922   3.014   3.676   9.179  0.1035 -0.0706  1.2158
  114OSM    C1F11923   2.322   3.114  10.708  0.1420  0.4335  0.5171
  114OSM     OF11924   2.211   3.084  10.755 -0.2806  0.0961 -0.3524
  114OSM    C2F11925   2.429   3.014  10.659 -0.2026 -0.2657 -0.5597
  114OSM    H2F11926   2.456   2.948  10.744  1.1241  1.1415  0.1421
  114OSM    H2G11927   2.514   3.080  10.631 -1.4232  1.9481  0.6546
  114OSM    C3F11928   2.393   2.936  10.536 -0.6230 -0.3959 -0.3081
  114OSM    H3F11929   2.372   3.009  10.455 -2.4771 -1.2991 -0.7100
  114OSM    H3G11930   2.300   2.878  10.556  0.9162 -2.9488 -0.0078
  114OSM    C4F11931   2.512   2.841  10.515 -0.1072 -0.1783 -0.4290
  114OSM    H4F11932   2.529   2.780  10.606 -1.7658  0.7153  0.5199
  114OSM    H4G11933   2.602   2.904  10.495 -0.8849  0.3192 -2.6901
  114OSM    C5F11934   2.496   2.763  10.383  0.1380 -0.4381 -0.1753
  114OSM    H5F11935   2.460   2.829  10.301  1.4050 -0.4171 -0.7284
  114OSM    H5G11936   2.421   2.685  10.410 -1.0849  0.6252 -0.3619
  114OSM    C6F11937   2.622   2.675  10.351  0.0580  0.3764 -0.5474
  114OSM    H6F11938   2.644   2.634  10.452 -1.0396 -0.8473 -0.7808
  114OSM    H6G11939   2.707   2.741  10.323  1.5264 -0.4342  1.7445
  114OSM    C7F11940   2.602   2.564  10.255 -0.3482 -0.6287 -0.8505
  114OSM    H7F11941   2.494   2.540  10.267 -0.5199 -0.1438 -1.3886
  114OSM    H7G11942   2.668   2.480  10.287  1.4955  0.9946 -0.2050
  114OSM    C8F11943   2.637   2.600  10.108 -0.1220  0.7229 -0.9488
  114OSM    H8F11944   2.741   2.640  10.105  0.1396  0.5250  2.2423
  114OSM    H8G11945   2.565   2.681  10.082 -0.5685  0.2167 -1.2969
  114OSM    C9F11946   2.630   2.486  10.010  0.0021 -0.1626 -0.0511
  114OSM    H9F11947   2.681   2.393  10.039  2.4158  0.6460 -1.3916
  114OSM   C10F11948   2.574   2.492   9.884 -0.2240  0.4031 -0.3945
  114OSM   H10F11949   2.574   2.394   9.834  2.3391 -0.9658  1.9916
  114OSM   C11F11950   2.508   2.607   9.819  0.9437 -0.1264 -0.2927
  114OSM   H11F11951   2.480   2.688   9.890  1.0389  1.1975 -1.7097
  114OSM   H11G11952   2.407   2.567   9.796  0.8874 -1.4953  2.0187
  114OSM   C12F11953   2.583   2.664   9.702 -0.0469 -0.3580 -0.0714
  114OSM   H12F11954   2.691   2.664   9.728 -0.9263 -0.6398  4.1700
  114OSM   H12G11955   2.533   2.763   9.691 -0.4249 -0.3646  1.4665
  114OSM   C13F11956   2.562   2.597   9.563  0.4517  0.5028 -0.5256
  114OSM   H13F11957   2.453   2.598   9.543  0.3493 -0.5472 -0.0811
  114OSM   H13G11958   2.593   2.491   9.551  0.0825  0.5213 -1.9008
  114OSM   C14F11959   2.632   2.672   9.451 -0.2018  0.0316  1.4150
  114OSM   H14F11960   2.742   2.673   9.468 -0.0712  1.3832  0.6316
  114OSM   H14G11961   2.594   2.776   9.439 -0.7088 -0.0650  2.1276
  114OSM   C15F11962   2.615   2.608   9.313 -0.5397 -0.3530 -0.7236
  114OSM   H15F11963   2.508   2.581   9.297 -0.7965  0.6736 -0.7833
  114OSM   H15G11964   2.679   2.517   9.310  0.3526  0.2527 -0.3815
  114OSM   C16F11965   2.656   2.704   9.197  0.2677  1.2215 -0.5604
  114OSM   H16F11966   2.767   2.703   9.188  0.2303  1.4952 -1.0897
  114OSM   H16G11967   2.619   2.808   9.208  0.5109  1.2164  0.4099
  114OSM   C17F11968   2.610   2.639   9.059  0.8264 -0.0210 -0.1543
  114OSM   H17F11969   2.613   2.706   8.970  0.5960  0.6872  0.3583
  114OSM   H17G11970   2.502   2.616   9.071  0.8142  0.2851  0.3682
  114OSM   C18F11971   2.689   2.509   9.011  0.4520  0.0728  0.2794
  114OSM   H18F11972   2.792   2.527   8.972  0.9160 -2.2656  0.2665
  114OSM   H18G11973   2.626   2.453   8.939  0.3112 -1.4172  1.4968
  114OSM   H18H11974   2.705   2.444   9.100  0.5244  2.2817  1.9452
  115OSM      N11975   5.356   1.895  11.473  0.0433  0.1509 -0.3493
  115OSM    C1511976   5.439   1.776  11.421 -0.9654 -0.5960  0.3454
  115OSM   H15A11977   5.506   1.803  11.341 -1.1766 -0.5468  0.1857
  115OSM   H15B11978   5.375   1.700  11.378 -0.8338 -1.0021  0.8669
  115OSM   H15C11979   5.492   1.725  11.500 -0.2774 -1.9357 -0.9384
  115OSM    C1411980   5.276   1.968  11.370 -0.3517  0.5290  0.1410
  115OSM   H14A11981   5.344   2.036  11.321  0.9725 -0.9269 -0.1113
  115OSM   H14B11982   5.207   2.029  11.427 -2.3538 -0.0817 -1.5140
  115OSM   H14C11983   5.221   1.909  11.298 -0.3821 -0.3013  0.8303
  115OSM    C1311984   5.263   1.832  11.576 -0.9970 -0.3807  0.1585
  115OSM   H13A11985   5.312   1.769  11.649  0.2896  1.6512  1.1349
  115OSM   H13B11986   5.184   1.775  11.530 -1.5191  1.7222 -1.7040
  115OSM   H13C11987   5.208   1.902  11.638 -0.3980 -0.1160  0.3968
  115OSM    C1211988   5.444   2.001  11.534  0.1897 -0.4117  0.4419
  115OSM   H12A11989   5.471   1.960  11.630 -2.1202  0.3483  1.4921
  115OSM   H12B11990   5.397   2.088  11.577  2.2064  0.6683  0.5986
  115OSM    C1111991   5.567   2.070  11.459  0.3265  0.2825 -0.7874
  115OSM   H11A11992   5.642   2.000  11.414 -0.6635 -0.6761 -0.9908
  115OSM   H11B11993   5.617   2.137  11.532  2.3126 -1.7617 -0.1383
  115OSM      P11994   5.594   2.269  11.295 -0.0980 -0.2549  0.3553
  115OSM    O1311995   5.595   2.377  11.394 -0.4903  0.2326 -0.6320
  115OSM    O1411996   5.727   2.230  11.236 -0.5292 -0.1848  0.2976
  115OSM    O1111997   5.506   2.318  11.175  0.3009  0.1832  0.0738
  115OSM    O1211998   5.515   2.146  11.353 -0.2163 -0.1575  0.0109
  115OSM    C1S11999   5.406   2.237  11.108 -0.6297 -0.4137 -0.0911
  115OSM    H1S12000   5.303   2.261  11.143 -0.1351 -0.7237  1.6936
  115OSM    H1T12001   5.412   2.130  11.137 -2.4935  0.2097  3.1290
  115OSM     NF12002   5.298   2.185  10.898  0.2154  0.6793  0.3418
  115OSM    HNF12003   5.321   2.091  10.875 -2.7019 -0.3392  1.1445
  115OSM    C2S12004   5.407   2.258  10.954 -0.1629 -0.2809  0.0276
  115OSM    H2S12005   5.385   2.366  10.945 -0.7922 -0.4960 -1.2355
  115OSM    C3S12006   5.538   2.216  10.894  0.1360  0.4363  0.1606
  115OSM    H3S12007   5.550   2.106  10.904  2.2660  0.2888 -2.7650
  115OSM     O312008   5.655   2.263  10.959  0.2060 -0.7464  0.0480
  115OSM    HO312009   5.619   2.289  11.044 -1.7757  3.3295 -1.7770
  115OSM    C4S12010   5.547   2.260  10.745 -0.1536  0.2230  0.9210
  115OSM    H4S12011   5.564   2.368  10.738  4.1943 -0.3442 -2.2176
  115OSM    C5S12012   5.560   2.186  10.634 -0.1426 -0.3066 -0.0467
  115OSM    H5S12013   5.552   2.076  10.640  1.4979 -0.4292  0.3101
  115OSM    C6S12014   5.579   2.251  10.505  0.1934  0.2353  0.1367
  115OSM    H6S12015   5.665   2.198  10.458  0.4129  0.6938  0.0136
  115OSM    H6T12016   5.604   2.360  10.511  2.5827 -0.1934 -0.6991
  115OSM    C7S12017   5.456   2.239  10.410  0.2009 -0.3164  0.2800
  115OSM    H7S12018   5.377   2.313  10.436  0.9969  1.2876 -1.5722
  115OSM    H7T12019   5.410   2.138  10.401 -0.5840  0.2382 -3.3726
  115OSM    C8S12020   5.511   2.256  10.265  0.0678  0.0189 -0.3526
  115OSM    H8S12021   5.570   2.165  10.243  0.7159  0.8650 -2.4220
  115OSM    H8T12022   5.571   2.349  10.258  1.8893 -1.2287 -3.2661
  115OSM    C9S12023   5.398   2.247  10.161 -0.2092 -0.3017 -0.3034
  115OSM    H9S12024   5.342   2.342  10.170  1.2728  0.4394  1.8782
  115OSM    H9T12025   5.338   2.154  10.172  0.5969 -1.2318 -2.9538
  115OSM   C10S12026   5.460   2.236  10.019  0.5418  0.1232 -0.6254
  115OSM   H10S12027   5.502   2.133  10.009 -2.0458 -1.1318  0.4861
  115OSM   H10T12028   5.541   2.306   9.990 -1.4615  1.5776 -3.1491
  115OSM   C11S12029   5.350   2.255   9.907  0.4019  0.1547 -0.3277
  115OSM   H11S12030   5.283   2.339   9.933 -0.1685 -0.6447  0.8982
  115OSM   H11T12031   5.282   2.167   9.912  0.7667 -0.1893 -1.2549
  115OSM   C12S12032   5.411   2.266   9.770 -1.3505  0.1379 -0.3513
  115OSM   H12S12033   5.486   2.185   9.769 -1.4390  0.0011  1.3639
  115OSM   H12T12034   5.472   2.359   9.765 -0.1125 -0.6541 -0.2998
  115OSM   C13S12035   5.314   2.243   9.660 -0.4562 -0.1440  0.5359
  115OSM   H13S12036   5.231   2.317   9.658 -0.9432 -0.6693 -1.1672
  115OSM   H13T12037   5.265   2.143   9.667  0.3924 -0.6280 -0.2375
  115OSM   C14S12038   5.374   2.245   9.518  0.0590 -0.1654 -0.8577
  115OSM   H14S12039   5.442   2.157   9.513  0.1171 -0.2076  0.4956
  115OSM   H14T12040   5.441   2.333   9.512  1.4587 -1.2424 -1.6701
  115OSM   C15S12041   5.262   2.237   9.416 -0.0088 -0.6153  0.0545
  115OSM   H15S12042   5.179   2.307   9.438 -1.1238 -1.4736 -1.2162
  115OSM   H15T12043   5.217   2.137   9.432 -2.0173 -0.1361 -2.0425
  115OSM   C16S12044   5.315   2.241   9.272  0.0107  0.1553  0.0561
  115OSM   H16S12045   5.393   2.168   9.241 -0.8078 -0.4827 -0.5179
  115OSM   H16T12046   5.362   2.341   9.258 -0.6838  0.2202 -2.1343
  115OSM   C17S12047   5.197   2.238   9.170  0.4283  0.4947 -0.2458
  115OSM   H17S12048   5.121   2.305   9.216 -1.6743 -1.0560 -1.2757
  115OSM   H17T12049   5.160   2.134   9.180  3.7803 -0.6794  1.9883
  115OSM   C18S12050   5.238   2.271   9.027  0.5082 -0.1764  0.5497
  115OSM   H18S12051   5.261   2.175   8.976 -1.4703 -1.1340  1.3443
  115OSM   H18T12052   5.316   2.350   9.028 -0.4912  0.8387  1.2453
  115OSM   H18U12053   5.149   2.319   8.983  1.5914  1.0376 -0.3689
  115OSM    C1F12054   5.174   2.231  10.880  0.8138 -0.3122  0.0729
  115OSM     OF12055   5.140   2.353  10.907 -0.7143 -0.6889  0.0935
  115OSM    C2F12056   5.082   2.139  10.798  0.2653 -0.5576  0.3232
  115OSM    H2F12057   5.101   2.035  10.834  2.1670 -0.3894 -0.1362
  115OSM    H2G12058   5.112   2.142  10.692  1.1231 -0.6816  0.5536
  115OSM    C3F12059   4.929   2.157  10.830  0.4072 -0.1893 -0.2327
  115OSM    H3F12060   4.903   2.260  10.798  1.1845  0.5077  1.3315
  115OSM    H3G12061   4.911   2.142  10.938 -0.6010 -3.7344 -0.7684
  115OSM    C4F12062   4.847   2.063  10.741  0.0452 -0.6949 -0.0251
  115OSM    H4F12063   4.739   2.066  10.767 -0.2774 -2.8023 -0.9164
  115OSM    H4G12064   4.871   1.955  10.745  0.4607 -0.7139 -2.0356
  115OSM    C5F12065   4.868   2.084  10.589  0.4308  0.7302 -0.0463
  115OSM    H5F12066   4.785   2.020  10.551  1.1743 -2.0143  2.5906
  115OSM    H5G12067   4.969   2.052  10.555  0.4687  0.2037  0.5409
  115OSM    C6F12068   4.839   2.230  10.547 -0.3075 -0.2529  0.1897
  115OSM    H6F12069   4.907   2.306  10.592  0.1256  0.3896 -1.4656
  115OSM    H6G12070   4.735   2.252  10.577 -0.5217  0.3505 -0.9394
  115OSM    C7F12071   4.846   2.248  10.396  0.0761  0.0595 -0.1985
  115OSM    H7F12072   4.788   2.167  10.346  1.4334  0.5948 -2.8826
  115OSM    H7G12073   4.954   2.228  10.378  0.2464 -0.4408  1.2900
  115OSM    C8F12074   4.821   2.389  10.349 -1.0929 -0.5394 -0.2285
  115OSM    H8F12075   4.881   2.414  10.258  0.0877  1.2171  0.9576
  115OSM    H8G12076   4.851   2.463  10.426 -0.4344 -0.9663 -0.0693
  115OSM    C9F12077   4.676   2.416  10.336 -0.4055  0.1517  0.3660
  115OSM    H9F12078   4.614   2.396  10.424 -0.3842 -1.4566  0.0500
  115OSM   C10F12079   4.622   2.477  10.234  0.2508  0.1375 -0.0572
  115OSM   H10F12080   4.513   2.494  10.237  0.0838 -0.9258  0.0196
  115OSM   C11F12081   4.680   2.520  10.102  0.1490  0.0921  1.2304
  115OSM   H11F12082   4.775   2.464  10.083 -1.5605 -2.4938 -0.3418
  115OSM   H11G12083   4.696   2.629  10.099 -2.2156  0.5372  2.4844
  115OSM   C12F12084   4.595   2.487   9.980 -0.0161  0.6612 -0.3154
  115OSM   H12F12085   4.486   2.507   9.986  0.2718  2.9155 -1.5163
  115OSM   H12G12086   4.613   2.379   9.962  1.6316  0.3436  2.5770
  115OSM   C13F12087   4.635   2.570   9.858 -0.3758 -0.3565  0.2504
  115OSM   H13F12088   4.732   2.529   9.823  0.5740 -0.0091  2.3054
  115OSM   H13G12089   4.657   2.676   9.884  5.0106 -0.5807 -1.9696
  115OSM   C14F12090   4.526   2.557   9.750 -1.2656 -0.1610  0.8958
  115OSM   H14F12091   4.446   2.624   9.789  1.3169  3.5073  0.3548
  115OSM   H14G12092   4.495   2.450   9.745 -0.3161 -0.4199  0.4010
  115OSM   C15F12093   4.568   2.619   9.623 -0.7159  0.6955 -0.1213
  115OSM   H15F12094   4.677   2.601   9.609 -0.6094  0.1604  1.2188
  115OSM   H15G12095   4.564   2.730   9.625  2.2586  0.8915 -0.9784
  115OSM   C16F12096   4.490   2.576   9.496 -0.0833  0.6508 -0.0146
  115OSM   H16F12097   4.441   2.478   9.512 -0.4033  0.5552 -1.4214
  115OSM   H16G12098   4.547   2.569   9.401  0.7230 -0.5060  0.5424
  115OSM   C17F12099   4.384   2.678   9.468 -0.1176 -1.1005  0.0065
  115OSM   H17F12100   4.330   2.706   9.561  0.5651 -0.2552  0.1502
  115OSM   H17G12101   4.307   2.617   9.415 -1.5952  0.1380  0.6633
  115OSM   C18F12102   4.420   2.787   9.372  0.0559  0.0497 -0.3085
  115OSM   H18F12103   4.343   2.866   9.358  1.5976  2.1345  2.1876
  115OSM   H18G12104   4.451   2.742   9.275  0.7341  1.0671 -0.5792
  115OSM   H18H12105   4.504   2.849   9.408 -0.4932  2.2825 -2.5466
  116OSM      N12106   2.432   6.325  10.741 -0.4162 -1.1573  0.2178
  116OSM    C1512107   2.416   6.472  10.784  0.5497 -0.4089  0.3741
  116OSM   H15A12108   2.468   6.540  10.718  0.3976 -0.4644  0.1927
  116OSM   H15B12109   2.462   6.490  10.880  0.8974 -0.2808  0.1841
  116OSM   H15C12110   2.311   6.499  10.777  0.8648  0.8109  0.1268
  116OSM    C1412111   2.412   6.233  10.855 -0.2350  0.3312 -0.2357
  116OSM   H14A12112   2.481   6.254  10.935 -0.1047  0.5293 -0.4007
  116OSM   H14B12113   2.431   6.132  10.822 -1.4947  0.4287 -1.3396
  116OSM   H14C12114   2.311   6.236  10.893  0.5210  0.7419  1.8519
  116OSM    C1312115   2.317   6.302  10.640  0.1450 -0.7638 -0.7715
  116OSM   H13A12116   2.326   6.365  10.553 -0.2010 -1.2013 -1.1309
  116OSM   H13B12117   2.226   6.322  10.696  0.2339 -0.5662 -0.6972
  116OSM   H13C12118   2.320   6.196  10.620  0.5074 -1.2311  1.4858
  116OSM    C1212119   2.568   6.306  10.674 -0.5336  0.5059  0.3786
  116OSM   H12A12120   2.577   6.361  10.582 -2.1564 -0.6299 -0.5163
  116OSM   H12B12121   2.579   6.207  10.631  0.2239  0.4482  0.6911
  116OSM    C1112122   2.694   6.330  10.761  0.3493 -0.2645 -0.9936
  116OSM   H11A12123   2.711   6.436  10.791  2.1933 -0.2308 -1.9825
  116OSM   H11B12124   2.773   6.299  10.689 -1.1530 -3.3835 -1.4352
  116OSM      P12125   2.756   6.100  10.885  0.2266 -0.0451 -0.7263
  116OSM    O1312126   2.849   6.083  11.000  0.1798 -0.2373  0.1731
  116OSM    O1412127   2.640   6.001  10.878 -0.4640 -0.1618 -0.2943
  116OSM    O1112128   2.840   6.078  10.752 -0.8311 -0.0739  0.2039
  116OSM    O1212129   2.700   6.244  10.878  0.3659  0.4890 -0.1698
  116OSM    C1S12130   2.979   6.090  10.723 -0.3604 -0.4738  0.3799
  116OSM    H1S12131   3.031   6.040  10.808 -0.2128  0.3898  0.8118
  116OSM    H1T12132   3.025   6.191  10.722  1.7367 -1.3058  2.1616
  116OSM     NF12133   3.150   6.072  10.546 -0.1342 -0.0160  0.5052
  116OSM    HNF12134   3.150   6.140  10.473 -2.4732  0.3417  0.7449
  116OSM    C2S12135   3.019   6.028  10.587 -0.1793  0.1435  0.3790
  116OSM    H2S12136   3.031   5.918  10.595 -0.8761 -0.0043 -0.4422
  116OSM    C3S12137   2.911   6.057  10.480  0.1406 -0.7161 -0.2197
  116OSM    H3S12138   2.888   6.166  10.474 -1.4111 -0.4342  5.2035
  116OSM     O312139   2.785   5.993  10.517 -0.4085  0.1947  0.3512
  116OSM    HO312140   2.787   6.019  10.609  1.5412 -0.7797  0.6524
  116OSM    C4S12141   2.936   5.998  10.340  0.0617  0.7289  0.1011
  116OSM    H4S12142   2.934   5.888  10.337  0.9573  0.6909 -3.8579
  116OSM    C5S12143   2.977   6.065  10.229  0.6798 -0.1020 -0.3359
  116OSM    H5S12144   2.962   6.174  10.235  0.0200 -0.2109  0.1047
  116OSM    C6S12145   3.033   6.013  10.101 -0.0536 -0.4442  0.3191
  116OSM    H6S12146   3.085   5.918  10.128  1.2136  0.0946 -0.1542
  116OSM    H6T12147   3.108   6.083  10.060 -0.7091  0.1085  0.0478
  116OSM    C7S12148   2.933   6.001   9.985 -0.3026  0.2795 -0.0349
  116OSM    H7S12149   2.849   6.073   9.998 -0.0920  0.4957  0.1411
  116OSM    H7T12150   2.886   5.900   9.989  1.6294 -0.6209  1.0987
  116OSM    C8S12151   2.999   6.009   9.850 -0.0321  0.2107  0.1682
  116OSM    H8S12152   3.081   5.934   9.850  1.0900  1.3180 -2.6938
  116OSM    H8T12153   3.050   6.107   9.840 -0.1267  0.2626  0.1885
  116OSM    C9S12154   2.901   5.976   9.737  0.1186 -0.3191  0.5596
  116OSM    H9S12155   2.825   6.057   9.740 -1.5123 -1.8001  1.1488
  116OSM    H9T12156   2.854   5.876   9.751 -2.2030  0.5701 -0.4545
  116OSM   C10S12157   2.967   5.968   9.600 -0.0994 -0.0102 -1.1009
  116OSM   H10S12158   3.045   5.894   9.626  1.2910  1.1223 -1.8944
  116OSM   H10T12159   3.020   6.063   9.576  2.1075 -0.5937  1.0923
  116OSM   C11S12160   2.870   5.921   9.492 -0.2832 -0.2601  0.4256
  116OSM   H11S12161   2.784   5.991   9.493  1.3454  1.8807  1.9556
  116OSM   H11T12162   2.845   5.814   9.507  0.0397 -0.5853 -1.1448
  116OSM   C12S12163   2.936   5.921   9.358 -0.4201 -0.4740 -0.4755
  116OSM   H12S12164   3.033   5.867   9.361  1.4151  2.6152  0.5704
  116OSM   H12T12165   2.959   6.028   9.337  1.0565 -0.8668 -0.9449
  116OSM   C13S12166   2.847   5.860   9.248  0.8405 -0.5371  0.8985
  116OSM   H13S12167   2.743   5.889   9.272  1.4278  1.7096  0.9047
  116OSM   H13T12168   2.861   5.749   9.251 -1.7631 -0.8986  2.2383
  116OSM   C14S12169   2.889   5.904   9.100  0.3198  0.2009 -0.0864
  116OSM   H14S12170   2.999   5.912   9.086  0.2298  0.7488 -0.5246
  116OSM   H14T12171   2.857   6.009   9.083 -0.1816 -0.4545 -4.0683
  116OSM   C15S12172   2.831   5.820   8.989  0.1308  0.2346  0.1028
  116OSM   H15S12173   2.869   5.716   8.984  0.2736  0.3400 -1.5888
  116OSM   H15T12174   2.858   5.871   8.894  1.8821  1.4668  1.2105
  116OSM   C16S12175   2.676   5.817   8.995  0.0227 -0.3159 -0.2982
  116OSM   H16S12176   2.643   5.759   9.083 -0.0952  0.7557  0.3822
  116OSM   H16T12177   2.629   5.753   8.917  2.2832 -1.6761 -0.6329
  116OSM   C17S12178   2.604   5.952   8.987 -0.6558 -0.2267 -0.1745
  116OSM   H17S12179   2.629   6.002   8.892 -1.1529 -1.9901 -1.2837
  116OSM   H17T12180   2.646   6.017   9.067  0.9807 -0.6621 -0.6489
  116OSM   C18S12181   2.452   5.946   8.995  0.0737 -0.3743  0.6032
  116OSM   H18S12182   2.402   5.899   8.908  0.5976  0.6711 -0.2877
  116OSM   H18T12183   2.413   6.049   9.011 -0.4666 -0.7769  2.0783
  116OSM   H18U12184   2.431   5.883   9.084  0.7547 -1.4853 -0.0020
  116OSM    C1F12185   3.259   6.056  10.617 -0.3425  0.0087  0.2153
  116OSM     OF12186   3.267   6.034  10.741  0.2121  0.1112 -0.3302
  116OSM    C2F12187   3.389   6.056  10.536 -0.9585  0.2309 -0.3508
  116OSM    H2F12188   3.467   5.990  10.580  0.0060 -0.2631 -2.6409
  116OSM    H2G12189   3.439   6.155  10.536  2.3909 -1.2480 -3.2895
  116OSM    C3F12190   3.370   6.002  10.392  0.0807 -0.1139 -0.6531
  116OSM    H3F12191   3.299   6.060  10.329  0.7934  1.3532 -0.1487
  116OSM    H3G12192   3.326   5.900  10.399 -2.5410  0.9611 -0.1453
  116OSM    C4F12193   3.502   5.987  10.315 -0.3531 -0.3688 -0.0732
  116OSM    H4F12194   3.584   5.962  10.386  0.4900 -1.2151 -1.2994
  116OSM    H4G12195   3.534   6.086  10.277 -0.6423 -0.3260 -0.2083
  116OSM    C5F12196   3.500   5.882  10.198  0.4703 -0.3406 -0.0925
  116OSM    H5F12197   3.463   5.787  10.241  0.2657 -0.2240 -0.0105
  116OSM    H5G12198   3.605   5.859  10.168 -0.6435 -2.0562 -3.1904
  116OSM    C6F12199   3.425   5.943  10.073  0.6662  0.2110  0.0462
  116OSM    H6F12200   3.493   6.020  10.030  0.5218 -0.5216 -1.5664
  116OSM    H6G12201   3.331   5.990  10.109  0.1792  0.5739 -1.6206
  116OSM    C7F12202   3.406   5.847   9.959  0.2266  0.0276  0.3598
  116OSM    H7F12203   3.321   5.888   9.901 -0.7081  1.0545  2.3504
  116OSM    H7G12204   3.370   5.754  10.009  1.8614 -1.7692 -1.6317
  116OSM    C8F12205   3.532   5.826   9.876 -0.6975 -0.1645 -0.4878
  116OSM    H8F12206   3.602   5.779   9.948  0.1321  1.4522 -0.1960
  116OSM    H8G12207   3.579   5.917   9.832  0.9375 -0.6871  0.0959
  116OSM    C9F12208   3.522   5.728   9.766 -0.1646 -0.7514 -0.2086
  116OSM    H9F12209   3.528   5.623   9.798 -0.1399 -0.0433  2.2901
  116OSM   C10F12210   3.493   5.754   9.633 -0.4251 -0.4896  0.2460
  116OSM   H10F12211   3.493   5.667   9.565 -1.1296 -1.5933  1.6245
  116OSM   C11F12212   3.480   5.888   9.560  0.9152 -0.3197 -0.4331
  116OSM   H11F12213   3.561   5.906   9.486  0.1966  0.1252 -1.1298
  116OSM   H11G12214   3.476   5.974   9.631 -1.5938 -0.5478 -0.1847
  116OSM   C12F12215   3.345   5.884   9.477 -0.1747 -0.1931  0.0144
  116OSM   H12F12216   3.260   5.835   9.530  0.3943  1.4828  2.6567
  116OSM   H12G12217   3.360   5.831   9.381 -1.2658 -0.8903  0.2037
  116OSM   C13F12218   3.291   6.025   9.436 -0.3615  0.4624 -0.5188
  116OSM   H13F12219   3.275   6.091   9.524 -0.3007  1.1491 -1.0171
  116OSM   H13G12220   3.184   6.011   9.409 -1.3979  1.8029  2.4547
  116OSM   C14F12221   3.360   6.079   9.315  0.4536 -0.1061  0.4726
  116OSM   H14F12222   3.468   6.065   9.334  0.7188  0.0137 -0.8206
  116OSM   H14G12223   3.343   6.189   9.313 -2.6791 -0.4902 -0.8236
  116OSM   C15F12224   3.327   6.015   9.181  1.1540  0.7630 -0.5231
  116OSM   H15F12225   3.227   6.045   9.144  1.3390  1.2261 -0.6453
  116OSM   H15G12226   3.316   5.905   9.191  0.0938  0.6822 -2.2020
  116OSM   C16F12227   3.446   6.045   9.086  0.1636  0.7287 -0.3185
  116OSM   H16F12228   3.446   5.985   8.992  0.4636 -0.3572  0.3700
  116OSM   H16G12229   3.541   6.022   9.139 -0.0629  0.8732  0.1536
  116OSM   C17F12230   3.459   6.192   9.036  0.0024  0.6458 -0.0611
  116OSM   H17F12231   3.557   6.191   8.984 -0.9095 -1.1461 -1.8674
  116OSM   H17G12232   3.462   6.254   9.128 -0.2546  0.7611 -0.1300
  116OSM   C18F12233   3.349   6.229   8.944  0.2383  0.1235 -0.3468
  116OSM   H18F12234   3.342   6.159   8.858 -0.6439  0.2380 -0.3724
  116OSM   H18G12235   3.363   6.330   8.900 -0.8871  0.6966  0.5596
  116OSM   H18H12236   3.252   6.248   8.995  0.7989  0.3416  0.6610
  117OSM      N12237   6.246   5.999  11.040  0.0254 -0.3754  0.3295
  117OSM    C1512238   6.267   6.103  11.142  0.5126  0.3697  0.3078
  117OSM   H15A12239   6.182   6.169  11.155  0.5433  0.6215 -0.6880
  117OSM   H15B12240   6.343   6.171  11.105  0.4095 -0.4721 -1.5798
  117OSM   H15C12241   6.292   6.056  11.236 -1.3190  1.2351  1.2889
  117OSM    C1412242   6.175   5.869  11.094 -0.0232  0.1133  0.0429
  117OSM   H14A12243   6.085   5.897  11.147 -0.4408 -0.8652 -0.1116
  117OSM   H14B12244   6.232   5.833  11.178 -0.0870  1.0726  0.5085
  117OSM   H14C12245   6.155   5.797  11.016 -2.0866  2.1589 -1.4695
  117OSM    C1312246   6.161   6.051  10.915 -1.4025  0.0734  0.2541
  117OSM   H13A12247   6.195   6.152  10.895  1.1263 -0.8005 -0.1852
  117OSM   H13B12248   6.054   6.052  10.933 -1.4803 -0.0780 -0.1934
  117OSM   H13C12249   6.182   5.998  10.824  1.7503 -0.7972  1.3327
  117OSM    C1212250   6.382   5.954  10.993  0.3901  0.4516 -0.2281
  117OSM   H12A12251   6.389   5.863  10.936 -0.7115 -0.5978  1.2390
  117OSM   H12B12252   6.440   5.924  11.079  1.4436 -2.0444 -1.6953
  117OSM    C1112253   6.478   6.064  10.935  0.2423 -0.3061  0.7854
  117OSM   H11A12254   6.421   6.128  10.864  1.1125 -0.2657  0.1152
  117OSM   H11B12255   6.551   6.015  10.868 -1.9568 -0.1366 -1.9440
  117OSM      P12256   6.670   6.171  11.079 -0.4154 -0.3644  0.2019
  117OSM    O1312257   6.653   6.288  11.171 -0.7487  0.1909  0.0758
  117OSM    O1412258   6.742   6.049  11.121 -0.9843  0.1035  0.2724
  117OSM    O1112259   6.732   6.234  10.952  0.4589  0.0575  0.4808
  117OSM    O1212260   6.522   6.128  11.049 -0.4819  0.3067 -0.3632
  117OSM    C1S12261   6.803   6.153  10.850  0.0308 -0.2637 -0.6767
  117OSM    H1S12262   6.728   6.085  10.805 -0.8275 -0.9918  1.6922
  117OSM    H1T12263   6.866   6.079  10.904 -1.4459  0.4988  2.3240
  117OSM     NF12264   6.929   6.152  10.645  0.8018  0.3360 -0.0622
  117OSM    HNF12265   7.028   6.157  10.634  0.7146  1.7198 -0.3696
  117OSM    C2S12266   6.881   6.238  10.744  0.4052 -0.1022 -0.3090
  117OSM    H2S12267   6.810   6.317  10.709 -0.2252  0.2962  1.6979
  117OSM    C3S12268   6.988   6.317  10.815  0.1206 -0.2249  0.3130
  117OSM    H3S12269   7.063   6.248  10.859  0.9933  0.0869 -0.6497
  117OSM     O312270   6.947   6.383  10.937 -0.5084 -0.0655  0.0123
  117OSM    HO312271   6.853   6.372  10.952 -0.5580  0.6511  0.2763
  117OSM    C4S12272   7.054   6.423  10.729 -0.8622  0.1646 -0.4569
  117OSM    H4S12273   7.137   6.381  10.672 -0.3409  0.6098 -0.0350
  117OSM    C5S12274   7.036   6.554  10.720  0.4628 -0.9666  0.7509
  117OSM    H5S12275   6.959   6.607  10.778  1.6743 -0.5008  1.9904
  117OSM    C6S12276   7.104   6.651  10.621 -0.3273 -0.4928  0.6825
  117OSM    H6S12277   7.140   6.738  10.681  1.7797  0.1531 -1.3706
  117OSM    H6T12278   7.035   6.678  10.539  1.0709 -1.0557 -0.7412
  117OSM    C7S12279   7.231   6.595  10.550 -0.3501  0.0481  0.0652
  117OSM    H7S12280   7.293   6.530  10.615  0.0025  1.0288  0.7317
  117OSM    H7T12281   7.288   6.689  10.532  2.2812 -1.4490  0.0145
  117OSM    C8S12282   7.200   6.518  10.415  0.2628 -0.0600 -0.2685
  117OSM    H8S12283   7.117   6.445  10.432 -0.5476  0.4969 -1.6174
  117OSM    H8T12284   7.297   6.466  10.399  0.3975 -0.3695  1.3673
  117OSM    C9S12285   7.161   6.597  10.294 -0.5263 -1.0782 -0.7267
  117OSM    H9S12286   7.249   6.661  10.275 -1.2660 -0.1807 -1.2348
  117OSM    H9T12287   7.072   6.661  10.312 -0.6783 -1.7124  0.9345
  117OSM   C10S12288   7.136   6.500  10.184 -0.7214 -0.0616  0.6148
  117OSM   H10S12289   7.046   6.439  10.209 -0.2434 -0.2762  1.8694
  117OSM   H10T12290   7.221   6.430  10.165 -0.6558  0.1035  0.2816
  117OSM   C11S12291   7.082   6.574  10.058  0.2165  0.5898  0.4199
  117OSM   H11S12292   7.165   6.639  10.024 -1.5050  2.3089 -0.6298
  117OSM   H11T12293   6.993   6.634  10.083 -0.2117  0.9627 -1.7829
  117OSM   C12S12294   7.050   6.471   9.946 -0.0069 -0.2358  0.0846
  117OSM   H12S12295   6.963   6.408   9.974 -0.9603  1.1390  0.2788
  117OSM   H12T12296   7.134   6.399   9.935  1.5497  1.6891 -1.4238
  117OSM   C13S12297   7.015   6.530   9.814  0.1377 -0.1718 -0.0887
  117OSM   H13S12298   7.099   6.568   9.752 -0.4664 -2.0161 -2.1565
  117OSM   H13T12299   6.948   6.619   9.819  1.0024  0.7679 -2.8962
  117OSM   C14S12300   6.940   6.441   9.715 -0.3342  0.5263 -0.6689
  117OSM   H14S12301   6.862   6.389   9.773  0.9049  1.0054  1.5466
  117OSM   H14T12302   7.015   6.370   9.674 -0.3378  0.6924 -0.9651
  117OSM   C15S12303   6.900   6.520   9.586 -0.3823  0.3247  0.0232
  117OSM   H15S12304   6.991   6.565   9.543 -0.0450  1.4367  1.7995
  117OSM   H15T12305   6.840   6.607   9.619  0.4084  1.6152 -1.7916
  117OSM   C16S12306   6.825   6.430   9.484 -0.2675  1.0387 -0.2526
  117OSM   H16S12307   6.729   6.399   9.530  0.8469 -0.2680  1.3394
  117OSM   H16T12308   6.883   6.335   9.476  0.5646  1.5794 -0.6930
  117OSM   C17S12309   6.796   6.491   9.349  0.4754  0.2576  0.5136
  117OSM   H17S12310   6.883   6.556   9.323  1.1867 -0.7329  0.3850
  117OSM   H17T12311   6.706   6.555   9.344 -0.8395 -1.6554 -2.1256
  117OSM   C18S12312   6.785   6.406   9.215 -0.0452  0.1770 -0.8055
  117OSM   H18S12313   6.754   6.469   9.129 -3.1480  2.1919  1.6062
  117OSM   H18T12314   6.699   6.337   9.228  0.1816 -0.0371 -0.4221
  117OSM   H18U12315   6.875   6.344   9.193 -1.9237 -2.4835 -1.4536
  117OSM    C1F12316   6.851   6.091  10.561  0.4341  0.3740  0.4262
  117OSM     OF12317   6.732   6.121  10.564 -0.5173  0.5127 -0.6679
  117OSM    C2F12318   6.910   5.993  10.465  0.5269 -0.1602 -0.0674
  117OSM    H2F12319   6.887   5.889  10.497  0.0973 -0.1569 -0.3558
  117OSM    H2G12320   7.019   6.015  10.461  0.3534  0.5279 -1.5978
  117OSM    C3F12321   6.869   6.011  10.316 -0.5598  0.3924  0.2251
  117OSM    H3F12322   6.776   5.951  10.304 -0.5797  0.5179 -0.2923
  117OSM    H3G12323   6.938   5.944  10.261 -1.9749 -0.3984 -0.6373
  117OSM    C4F12324   6.875   6.157  10.262  0.9647  1.0076 -0.6337
  117OSM    H4F12325   6.954   6.210  10.319  1.8078 -0.3679 -0.4814
  117OSM    H4G12326   6.780   6.207  10.292 -0.5402  0.2470 -3.7261
  117OSM    C5F12327   6.896   6.183  10.114  0.3174 -0.2369 -0.1046
  117OSM    H5F12328   7.004   6.205  10.102  0.4991  1.3003  3.2182
  117OSM    H5G12329   6.843   6.279  10.100  0.5928  0.0552  0.8136
  117OSM    C6F12330   6.841   6.072  10.016 -0.4194  0.0749 -0.7343
  117OSM    H6F12331   6.736   6.051  10.044  0.5140 -1.5732  1.9138
  117OSM    H6G12332   6.889   5.973  10.035 -0.7319  0.2539  1.2763
  117OSM    C7F12333   6.849   6.110   9.871 -0.1013  0.2895  0.8258
  117OSM    H7F12334   6.958   6.115   9.852 -0.1546  0.8028  0.6413
  117OSM    H7G12335   6.809   6.212   9.849 -0.1649 -0.4231 -3.1113
  117OSM    C8F12336   6.777   6.007   9.781 -0.4831  0.2167 -0.3156
  117OSM    H8F12337   6.673   5.980   9.809  0.1548 -0.2939  1.7641
  117OSM    H8G12338   6.841   5.916   9.792 -0.4389  0.5128  2.7167
  117OSM    C9F12339   6.767   6.035   9.632  0.1133 -0.2289  0.0572
  117OSM    H9F12340   6.665   6.063   9.603  0.2909 -0.3447 -0.7122
  117OSM   C10F12341   6.860   6.030   9.537 -0.1306 -0.1317  0.0062
  117OSM   H10F12342   6.829   6.052   9.434 -0.3245  1.5613  0.3951
  117OSM   C11F12343   7.007   5.998   9.550 -0.1763 -0.5329 -0.3031
  117OSM   H11F12344   7.031   5.968   9.654 -0.5632  1.7745  0.4916
  117OSM   H11G12345   7.066   6.090   9.529  0.3692 -0.8449 -0.1619
  117OSM   C12F12346   7.053   5.897   9.445 -0.0755  0.1499 -0.4568
  117OSM   H12F12347   7.041   5.942   9.344  0.9211  2.0786  0.2352
  117OSM   H12G12348   7.004   5.799   9.461  0.6984 -0.1249  0.3491
  117OSM   C13F12349   7.204   5.872   9.458  0.0856 -0.6473 -0.1286
  117OSM   H13F12350   7.215   5.832   9.561 -2.7192 -1.6820 -0.1482
  117OSM   H13G12351   7.256   5.968   9.439 -2.7578  0.9750 -0.2473
  117OSM   C14F12352   7.266   5.772   9.351  0.4051 -0.8660 -0.7719
  117OSM   H14F12353   7.202   5.681   9.339 -2.1128  0.8405 -1.1150
  117OSM   H14G12354   7.361   5.739   9.399  0.0536 -1.2039 -0.2936
  117OSM   C15F12355   7.302   5.834   9.218  0.3549 -0.1179 -0.0090
  117OSM   H15F12356   7.373   5.919   9.227 -1.2374  1.5228 -1.9317
  117OSM   H15G12357   7.213   5.886   9.176  1.6880  0.2576 -2.5758
  117OSM   C16F12358   7.354   5.745   9.104  0.3381  0.5477  0.7065
  117OSM   H16F12359   7.463   5.725   9.109  0.0724 -1.0830  0.4706
  117OSM   H16G12360   7.341   5.797   9.007  1.3717  1.6503  1.1421
  117OSM   C17F12361   7.281   5.606   9.096  1.1140 -0.3531  0.7088
  117OSM   H17F12362   7.173   5.625   9.079  1.3125  0.2439  0.0244
  117OSM   H17G12363   7.296   5.551   9.191 -1.3064 -0.5253  1.0443
  117OSM   C18F12364   7.327   5.525   8.979 -0.2112  0.7677 -0.1586
  117OSM   H18F12365   7.275   5.543   8.882  1.6326  2.5591 -0.8729
  117OSM   H18G12366   7.321   5.417   9.003  0.0226  0.0248 -3.0116
  117OSM   H18H12367   7.432   5.552   8.958 -0.0038  0.6039  0.6507
  118OSM      N12368   6.616   1.973  11.202  0.0672 -0.5318  0.5408
  118OSM    C1512369   6.759   2.013  11.184 -0.5677  0.4590 -0.4965
  118OSM   H15A12370   6.772   2.035  11.079  0.5549 -0.5045 -0.5794
  118OSM   H15B12371   6.827   1.933  11.210 -1.6545 -0.8196 -1.4272
  118OSM   H15C12372   6.788   2.102  11.236 -0.9283 -0.7908  1.9779
  118OSM    C1412373   6.596   1.882  11.318 -0.3011  0.2904 -0.3037
  118OSM   H14A12374   6.645   1.789  11.299 -1.3452 -0.2132 -0.6042
  118OSM   H14B12375   6.492   1.856  11.330 -0.1954  0.0827  0.1780
  118OSM   H14C12376   6.633   1.925  11.410  1.1377 -0.0419 -0.7069
  118OSM    C1312377   6.537   2.103  11.233  0.2460  0.9437  0.2519
  118OSM   H13A12378   6.526   2.167  11.148 -2.9768 -0.0128 -0.1874
  118OSM   H13B12379   6.575   2.164  11.314  0.8047 -0.5089  1.1328
  118OSM   H13C12380   6.432   2.085  11.252 -0.4225 -0.1343 -3.6241
  118OSM    C1212381   6.559   1.908  11.080 -0.0184  0.7141 -0.0860
  118OSM   H12A12382   6.594   1.964  10.995  2.8615  1.8863  1.7434
  118OSM   H12B12383   6.451   1.920  11.074  0.1405  1.8869 -1.0984
  118OSM    C1112384   6.581   1.759  11.053 -0.2565  0.9933 -0.2659
  118OSM   H11A12385   6.525   1.726  10.962  1.1809 -0.4842 -0.6617
  118OSM   H11B12386   6.541   1.693  11.133  1.9500 -0.7486 -0.4765
  118OSM      P12387   6.801   1.643  11.132  0.1697 -0.2509  0.0360
  118OSM    O1312388   6.944   1.672  11.112  0.2866 -0.1006  0.8501
  118OSM    O1412389   6.753   1.644  11.275 -0.3728  0.1798 -0.1698
  118OSM    O1112390   6.789   1.499  11.057 -0.4500 -0.0327  0.0378
  118OSM    O1212391   6.721   1.734  11.032  0.5008 -0.1509  0.1118
  118OSM    C1S12392   6.776   1.490  10.915 -0.0743  0.7652  0.2806
  118OSM    H1S12393   6.709   1.565  10.870 -0.3363  0.0477 -0.5491
  118OSM    H1T12394   6.723   1.397  10.886  2.7775 -0.3059 -2.1224
  118OSM     NF12395   6.876   1.424  10.713  0.3868  0.0450  0.7169
  118OSM    HNF12396   6.882   1.325  10.701  0.8749  0.2584 -1.1672
  118OSM    C2S12397   6.907   1.473  10.838 -0.0875 -0.5951  0.6708
  118OSM    H2S12398   6.961   1.570  10.830  2.4299 -2.0368 -1.2945
  118OSM    C3S12399   7.007   1.379  10.916 -0.5182  0.2693  1.0352
  118OSM    H3S12400   6.961   1.281  10.942 -1.4792 -0.0933 -1.6995
  118OSM     O312401   7.069   1.448  11.021 -0.0636  0.4388  0.1256
  118OSM    HO312402   7.027   1.534  11.015  1.2731  1.1636  0.8410
  118OSM    C4S12403   7.116   1.342  10.820  0.9654 -0.3367  1.1269
  118OSM    H4S12404   7.194   1.415  10.792 -0.5599  0.9443 -0.0147
  118OSM    C5S12405   7.132   1.219  10.763 -0.6553 -0.6197  0.5211
  118OSM    H5S12406   7.068   1.130  10.777  1.7780 -2.9114 -1.7707
  118OSM    C6S12407   7.247   1.193  10.662 -0.1994 -0.7013 -0.1116
  118OSM    H6S12408   7.282   1.088  10.665  1.8592 -0.1441 -1.7706
  118OSM    H6T12409   7.331   1.254  10.702 -0.4326 -0.1398 -0.4521
  118OSM    C7S12410   7.207   1.235  10.518 -0.6926  0.2793  0.4946
  118OSM    H7S12411   7.162   1.336  10.512  0.8959  0.9280 -2.0753
  118OSM    H7T12412   7.133   1.160  10.481 -0.0596  0.3441 -1.0006
  118OSM    C8S12413   7.332   1.243  10.436  0.4386  0.0733  0.9914
  118OSM    H8S12414   7.382   1.144  10.434  0.0677 -0.1879 -2.4271
  118OSM    H8T12415   7.396   1.324  10.476 -1.6045  1.6038  1.3403
  118OSM    C9S12416   7.289   1.281  10.295  0.0433 -0.7157 -0.8034
  118OSM    H9S12417   7.216   1.214  10.244 -0.4603 -1.0950  0.3691
  118OSM    H9T12418   7.377   1.273  10.228  0.3336  1.6984 -0.7885
  118OSM   C10S12419   7.243   1.428  10.278  0.4249  0.4843 -0.1046
  118OSM   H10S12420   7.322   1.504  10.294  1.5674 -0.4625 -1.0523
  118OSM   H10T12421   7.164   1.460  10.349 -1.1057  0.0040 -1.5136
  118OSM   C11S12422   7.200   1.455  10.129 -0.3408  0.5398  0.1350
  118OSM   H11S12423   7.149   1.554  10.122 -1.7105 -0.0598  1.0889
  118OSM   H11T12424   7.121   1.382  10.100  0.8707  0.3364 -3.1091
  118OSM   C12S12425   7.310   1.436  10.028  0.2840  0.0950  0.3668
  118OSM   H12S12426   7.344   1.330  10.024  0.4575  0.1641 -2.5177
  118OSM   H12T12427   7.396   1.499  10.059  0.0341  0.4921  0.2675
  118OSM   C13S12428   7.262   1.467   9.886 -0.1240  0.4282 -0.0633
  118OSM   H13S12429   7.355   1.485   9.827  0.4124  1.1689  0.9834
  118OSM   H13T12430   7.211   1.565   9.879 -0.6001  0.2180  0.3565
  118OSM   C14S12431   7.179   1.354   9.820 -0.4858 -0.1683  0.0178
  118OSM   H14S12432   7.087   1.347   9.882  0.3756  3.3773  1.9419
  118OSM   H14T12433   7.240   1.261   9.812 -2.0712 -1.1774 -0.9938
  118OSM   C15S12434   7.146   1.387   9.669 -0.1000  0.2350 -0.0428
  118OSM   H15S12435   7.145   1.498   9.656 -0.5246  0.6855  3.1522
  118OSM   H15T12436   7.046   1.351   9.636 -0.4568  2.4065 -1.5773
  118OSM   C16S12437   7.256   1.330   9.579 -0.4202  0.3456 -0.3313
  118OSM   H16S12438   7.279   1.225   9.606 -0.5420  0.7403  1.4013
  118OSM   H16T12439   7.354   1.382   9.589  0.5437 -1.6341  1.2992
  118OSM   C17S12440   7.223   1.342   9.429 -0.4976 -0.5062  0.0629
  118OSM   H17S12441   7.312   1.316   9.368 -1.2077 -2.1999 -0.2982
  118OSM   H17T12442   7.195   1.449   9.416  1.3371 -0.2513 -2.6460
  118OSM   C18S12443   7.107   1.260   9.380 -0.3351 -0.0780 -0.0295
  118OSM   H18S12444   7.118   1.155   9.415  1.9285  0.7315  1.9634
  118OSM   H18T12445   7.112   1.248   9.270  0.7863 -0.0433  0.0108
  118OSM   H18U12446   7.007   1.302   9.404  0.2497  2.3897 -1.5783
  118OSM    C1F12447   6.817   1.501  10.616  0.3492 -0.1576 -0.5345
  118OSM     OF12448   6.786   1.616  10.645  0.2013 -0.2356 -0.4293
  118OSM    C2F12449   6.788   1.440  10.489  0.3075  0.1911  0.0456
  118OSM    H2F12450   6.678   1.438  10.472 -0.0517  1.3687  1.8669
  118OSM    H2G12451   6.828   1.337  10.489  4.7329  1.6625  2.1726
  118OSM    C3F12452   6.851   1.521  10.374 -0.0725 -0.6990 -0.4236
  118OSM    H3F12453   6.959   1.544  10.385 -0.5043  0.5643  2.0811
  118OSM    H3G12454   6.814   1.626  10.376 -0.1420 -0.7162 -0.7082
  118OSM    C4F12455   6.839   1.468  10.226 -0.8675  0.3171 -0.4195
  118OSM    H4F12456   6.855   1.359  10.211 -1.2009  0.1699  0.2355
  118OSM    H4G12457   6.928   1.509  10.175 -0.5597  1.4395  0.9597
  118OSM    C5F12458   6.697   1.499  10.166  0.3231  0.1092 -0.4579
  118OSM    H5F12459   6.689   1.608  10.146 -1.1752 -0.3142 -2.5740
  118OSM    H5G12460   6.621   1.465  10.240  1.9857 -1.0044  0.8210
  118OSM    C6F12461   6.679   1.442  10.030 -0.0958 -0.1328  0.5936
  118OSM    H6F12462   6.573   1.458  10.000  0.1759 -0.2053 -0.4296
  118OSM    H6G12463   6.702   1.334  10.038 -1.8020 -0.4599  1.6417
  118OSM    C7F12464   6.771   1.504   9.920  0.5684 -0.2941 -1.4370
  118OSM    H7F12465   6.877   1.512   9.951  0.4921  1.8575 -1.5856
  118OSM    H7G12466   6.744   1.611   9.907  0.1224 -0.2757 -0.4718
  118OSM    C8F12467   6.751   1.430   9.791 -0.2227  0.7541 -0.0589
  118OSM    H8F12468   6.767   1.320   9.799 -1.2635  0.7032  1.5700
  118OSM    H8G12469   6.830   1.460   9.718  1.3127  0.1106  1.2906
  118OSM    C9F12470   6.613   1.448   9.734 -0.2766  0.4615 -0.1870
  118OSM    H9F12471   6.536   1.412   9.805  1.9320 -0.5612  1.8322
  118OSM   C10F12472   6.578   1.512   9.622  0.6880  0.5409  0.5516
  118OSM   H10F12473   6.473   1.512   9.588  0.2287  0.9294  1.8816
  118OSM   C11F12474   6.674   1.578   9.531 -0.5544  0.2050 -0.9248
  118OSM   H11F12475   6.762   1.622   9.582 -0.5650  0.2654 -0.9604
  118OSM   H11G12476   6.625   1.665   9.483 -1.3174 -0.4085 -1.2780
  118OSM   C12F12477   6.729   1.503   9.414 -0.2751 -0.8469  0.2747
  118OSM   H12F12478   6.788   1.417   9.453 -0.5631 -0.4678  1.6082
  118OSM   H12G12479   6.785   1.579   9.354  0.6860 -1.0844  0.8555
  118OSM   C13F12480   6.616   1.448   9.317 -0.0204 -0.0954 -0.6742
  118OSM   H13F12481   6.568   1.539   9.274  3.7354  1.2128 -2.5131
  118OSM   H13G12482   6.546   1.393   9.384  2.1449 -0.3898  1.4756
  118OSM   C14F12483   6.672   1.365   9.208 -0.2187 -0.3252  0.2349
  118OSM   H14F12484   6.584   1.317   9.160 -1.9066  1.7206  1.1106
  118OSM   H14G12485   6.731   1.278   9.243 -0.1206  0.0346  0.9756
  118OSM   C15F12486   6.745   1.439   9.099 -0.5272  0.2324  0.1819
  118OSM   H15F12487   6.856   1.433   9.112 -0.5134  0.7541  0.3180
  118OSM   H15G12488   6.716   1.545   9.113  0.7917  0.5873  0.3473
  118OSM   C16F12489   6.705   1.406   8.956  0.2248  0.1294 -0.3846
  118OSM   H16F12490   6.597   1.383   8.967  0.7666 -2.5243  0.0977
  118OSM   H16G12491   6.762   1.322   8.911 -0.7279  1.1608 -3.7600
  118OSM   C17F12492   6.714   1.521   8.854 -0.0264  0.3088 -0.7000
  118OSM   H17F12493   6.818   1.547   8.827 -0.5329  2.3011 -0.9012
  118OSM   H17G12494   6.658   1.610   8.891  1.4895  0.5983  1.0217
  118OSM   C18F12495   6.642   1.463   8.732  0.1467  0.3630  0.2440
  118OSM   H18F12496   6.541   1.429   8.761  0.3629 -0.7768 -0.2532
  118OSM   H18G12497   6.689   1.373   8.686 -0.1204  0.3828 -0.0692
  118OSM   H18H12498   6.636   1.540   8.652  3.2740 -1.6236 -2.1597
  119OSM      N12499   0.602   5.791  11.327 -0.1223  0.1772 -0.7566
  119OSM    C1512500   0.569   5.719  11.455  0.8985  0.2425  0.2186
  119OSM   H15A12501   0.655   5.718  11.520 -0.2057 -0.6971  1.7118
  119OSM   H15B12502   0.559   5.612  11.441  1.2856  0.0780  1.1338
  119OSM   H15C12503   0.497   5.771  11.516  1.7379  1.1481  0.4730
  119OSM    C1412504   0.725   5.719  11.267  0.1665 -0.4281 -0.2162
  119OSM   H14A12505   0.769   5.761  11.178 -1.3777 -1.0422 -1.3154
  119OSM   H14B12506   0.707   5.617  11.235  1.5941 -0.6069 -0.5110
  119OSM   H14C12507   0.801   5.723  11.344  0.6806  0.1315 -0.7501
  119OSM    C1312508   0.483   5.778  11.237  0.5905  0.4276 -0.2605
  119OSM   H13A12509   0.497   5.845  11.154  3.8768  0.7121  0.4230
  119OSM   H13B12510   0.396   5.816  11.289  0.4841 -3.7721  3.2223
  119OSM   H13C12511   0.456   5.677  11.209 -1.5139  0.4059  1.5260
  119OSM    C1212512   0.632   5.942  11.352  0.7896  0.0084  0.7736
  119OSM   H12A12513   0.678   5.944  11.450  1.0616 -1.0362  0.6845
  119OSM   H12B12514   0.536   5.990  11.366  0.4505 -0.5292  0.3495
  119OSM    C1112515   0.709   6.017  11.241  0.5661 -0.0289  0.6784
  119OSM   H11A12516   0.807   5.966  11.229  0.0192 -0.5008 -2.5284
  119OSM   H11B12517   0.721   6.122  11.274  0.5264  0.5200 -1.0134
  119OSM      P12518   0.521   6.116  11.084  0.0115  0.2630 -0.3753
  119OSM    O1312519   0.403   6.044  11.027  0.0881 -0.3514  0.3773
  119OSM    O1412520   0.498   6.207  11.198  0.2959  0.7297  0.0263
  119OSM    O1112521   0.572   6.211  10.968  0.1725  0.9169  0.6230
  119OSM    O1212522   0.640   6.016  11.117 -0.2688  0.5051 -0.1969
  119OSM    C1S12523   0.582   6.151  10.831 -0.3077 -0.3628  0.1122
  119OSM    H1S12524   0.482   6.117  10.798 -0.1563 -0.2361 -0.4844
  119OSM    H1T12525   0.644   6.058  10.827 -1.2248 -0.9468 -0.8560
  119OSM     NF12526   0.655   6.201  10.591  0.0384 -0.0276 -0.0503
  119OSM    HNF12527   0.745   6.182  10.554 -0.9062 -2.1309 -1.4364
  119OSM    C2S12528   0.641   6.255  10.726  0.5717  0.5295 -0.9943
  119OSM    H2S12529   0.567   6.335  10.705 -0.5275 -0.4457 -0.9333
  119OSM    C3S12530   0.769   6.311  10.789 -0.1881  0.4494  0.2837
  119OSM    H3S12531   0.839   6.227  10.805  4.7929  3.9859 -0.5895
  119OSM     O312532   0.760   6.383  10.911  0.3087  0.2650  0.4156
  119OSM    HO312533   0.674   6.350  10.937 -0.3711  0.5205 -1.3407
  119OSM    C4S12534   0.831   6.402  10.686  0.1434 -0.5431 -0.0461
  119OSM    H4S12535   0.898   6.342  10.622 -1.1003 -0.1807 -1.7684
  119OSM    C5S12536   0.816   6.531  10.670  0.3393  0.3785 -0.5991
  119OSM    H5S12537   0.744   6.584  10.735 -0.4571  0.6835 -1.7084
  119OSM    C6S12538   0.878   6.615  10.565  0.7198 -0.0122 -0.3675
  119OSM    H6S12539   0.968   6.664  10.607  1.6016 -2.5749  0.9078
  119OSM    H6T12540   0.811   6.698  10.532  1.1091  0.2012 -0.6284
  119OSM    C7S12541   0.917   6.550  10.434  1.0776 -0.3480 -0.0576
  119OSM    H7S12542   0.978   6.460  10.456  2.5055  1.1240  2.4391
  119OSM    H7T12543   0.975   6.618  10.367 -2.0406 -0.2526 -2.9738
  119OSM    C8S12544   0.797   6.510  10.349 -0.4486 -0.5764  0.0537
  119OSM    H8S12545   0.728   6.593  10.325 -0.1798 -0.5042 -0.4853
  119OSM    H8T12546   0.740   6.426  10.396 -0.2693 -0.9649 -0.4131
  119OSM    C9S12547   0.845   6.478  10.209 -0.2757  0.8420  0.1120
  119OSM    H9S12548   0.916   6.393  10.210  4.4717  4.3900  0.0659
  119OSM    H9T12549   0.896   6.569  10.172 -2.1405  2.0457  0.3491
  119OSM   C10S12550   0.732   6.452  10.110 -0.3057 -0.0706 -0.2691
  119OSM   H10S12551   0.667   6.542  10.116  0.5245  0.5349 -0.1580
  119OSM   H10T12552   0.676   6.365  10.150  0.1704 -0.1578  0.2147
  119OSM   C11S12553   0.777   6.454   9.966  0.7614  0.2384 -0.7109
  119OSM   H11S12554   0.877   6.407   9.955  1.0863  1.0362 -1.2686
  119OSM   H11T12555   0.786   6.564   9.951 -1.2228  0.6374  0.6175
  119OSM   C12S12556   0.674   6.390   9.879  0.3927 -0.1457  0.7719
  119OSM   H12S12557   0.580   6.448   9.897  1.5357  1.9532  0.3808
  119OSM   H12T12558   0.652   6.284   9.902 -0.4448  0.1836  1.5676
  119OSM   C13S12559   0.701   6.417   9.727  0.3997  0.5934  0.9708
  119OSM   H13S12560   0.783   6.348   9.698 -0.6242  0.2421 -1.2829
  119OSM   H13T12561   0.732   6.519   9.697 -0.5239 -0.4081 -4.4221
  119OSM   C14S12562   0.579   6.382   9.643 -0.0314  0.0089  0.1389
  119OSM   H14S12563   0.501   6.461   9.652 -0.3208 -0.2177 -0.3339
  119OSM   H14T12564   0.539   6.280   9.664 -1.3960  0.2871 -0.9565
  119OSM   C15S12565   0.612   6.391   9.492  0.6176 -0.3151  0.2821
  119OSM   H15S12566   0.709   6.343   9.469  0.6315 -0.3666  0.4490
  119OSM   H15T12567   0.619   6.493   9.449  0.3641 -1.5890 -3.1222
  119OSM   C16S12568   0.512   6.304   9.409 -0.3376  0.0910  0.3264
  119OSM   H16S12569   0.407   6.338   9.424 -0.6805 -1.0017  0.4747
  119OSM   H16T12570   0.512   6.200   9.446  1.8206 -1.0322 -2.4866
  119OSM   C17S12571   0.530   6.322   9.253 -0.6483  0.4357 -0.0616
  119OSM   H17S12572   0.637   6.308   9.229 -0.4362 -2.5403  2.0879
  119OSM   H17T12573   0.484   6.423   9.243  0.7989  1.1585  0.4491
  119OSM   C18S12574   0.444   6.220   9.179 -0.1221 -0.3433 -0.1373
  119OSM   H18S12575   0.348   6.214   9.234  0.6751 -1.1193  1.2361
  119OSM   H18T12576   0.493   6.121   9.166 -1.8184 -1.3718  0.7852
  119OSM   H18U12577   0.434   6.254   9.074  1.6469  0.3432 -0.1065
  119OSM    C1F12578   0.554   6.157  10.524 -0.3451  0.8756 -0.1920
  119OSM     OF12579   0.438   6.171  10.563 -0.1643 -0.3233  0.1218
  119OSM    C2F12580   0.591   6.093  10.398  0.0510  0.8229 -0.1962
  119OSM    H2F12581   0.587   5.983  10.412 -1.4031  0.6339 -1.7657
  119OSM    H2G12582   0.687   6.136  10.365  0.8198 -0.5541  0.1608
  119OSM    C3F12583   0.494   6.141  10.280 -0.6564  0.3664  0.3266
  119OSM    H3F12584   0.458   6.245  10.288 -0.1961  0.7325 -1.7840
  119OSM    H3G12585   0.403   6.079  10.292 -1.7355  1.6858 -0.8420
  119OSM    C4F12586   0.542   6.126  10.134  0.3157  0.7219 -0.7187
  119OSM    H4F12587   0.653   6.127  10.128  0.4511  0.5043  1.2307
  119OSM    H4G12588   0.502   6.212  10.077 -0.9925  0.3226 -0.4191
  119OSM    C5F12589   0.472   6.006  10.073 -0.4616  0.2074  0.9039
  119OSM    H5F12590   0.361   6.006  10.082 -0.4642 -2.6543  2.2631
  119OSM    H5G12591   0.505   5.915  10.128 -0.7116 -0.0462  0.6387
  119OSM    C6F12592   0.499   5.986   9.918 -1.3614  0.2443  0.7635
  119OSM    H6F12593   0.478   6.080   9.862  1.9809  1.1853  0.9078
  119OSM    H6G12594   0.435   5.908   9.871  1.3520 -0.4599 -2.1135
  119OSM    C7F12595   0.650   5.945   9.902  0.5013  0.7404 -0.1440
  119OSM    H7F12596   0.677   5.873   9.982  2.3456  0.7376 -0.7130
  119OSM    H7G12597   0.714   6.036   9.908  0.3622  0.8049  0.4339
  119OSM    C8F12598   0.680   5.887   9.757  0.5612  0.1060  0.3594
  119OSM    H8F12599   0.633   5.954   9.682 -2.5799 -2.3159 -0.0439
  119OSM    H8G12600   0.624   5.791   9.750  1.1166 -0.1347 -1.2335
  119OSM    C9F12601   0.821   5.866   9.730 -0.4417 -0.6714  0.1725
  119OSM    H9F12602   0.883   5.829   9.813  1.7804 -0.5279 -1.3329
  119OSM   C10F12603   0.895   5.918   9.631 -0.2206 -0.5978  0.1253
  119OSM   H10F12604   1.000   5.886   9.627  0.1382  0.5192  0.4237
  119OSM   C11F12605   0.865   6.006   9.515 -0.4181  0.3673  0.0040
  119OSM   H11F12606   0.910   6.107   9.530 -0.5139  0.6194 -1.2904
  119OSM   H11G12607   0.756   6.020   9.496  0.0600  1.4419 -2.4095
  119OSM   C12F12608   0.927   5.956   9.384 -0.7405  0.4324  0.4127
  119OSM   H12F12609   0.883   5.858   9.356 -2.2742  0.9218  0.9872
  119OSM   H12G12610   1.033   5.942   9.413 -1.2928 -0.5397  2.0567
  119OSM   C13F12611   0.924   6.053   9.269  0.3719 -0.7210 -0.0575
  119OSM   H13F12612   0.985   6.145   9.282 -2.7745  1.5546 -0.4572
  119OSM   H13G12613   0.821   6.093   9.268  0.5463 -0.1658  1.3926
  119OSM   C14F12614   0.966   5.982   9.148  0.3809 -0.3408 -0.4938
  119OSM   H14F12615   0.911   5.885   9.154 -3.2928  1.6157  0.3367
  119OSM   H14G12616   1.073   5.951   9.148  0.3315 -0.5298  0.2500
  119OSM   C15F12617   0.924   6.046   9.011  0.3920  0.2658  0.8736
  119OSM   H15F12618   0.973   6.146   9.011  0.5063  0.2117  0.5961
  119OSM   H15G12619   0.813   6.039   9.010  0.4389 -0.7224  1.4292
  119OSM   C16F12620   0.967   5.961   8.899  0.3046  0.3462  0.5956
  119OSM   H16F12621   0.884   5.891   8.878  1.6775 -1.1797  0.0943
  119OSM   H16G12622   1.047   5.895   8.938 -0.7355 -1.4417 -0.1949
  119OSM   C17F12623   1.004   6.032   8.770 -0.7863  0.0953 -0.0632
  119OSM   H17F12624   1.088   6.101   8.792 -1.9159  1.7658 -0.7588
  119OSM   H17G12625   0.914   6.093   8.747 -0.7789  0.8483  1.7313
  119OSM   C18F12626   1.039   5.928   8.660 -0.3638  0.1191  0.7254
  119OSM   H18F12627   0.945   5.881   8.623  0.4705 -0.3436 -0.8776
  119OSM   H18G12628   1.105   5.845   8.693  0.3965  0.1711 -0.6200
  119OSM   H18H12629   1.079   5.974   8.567  1.4302 -3.0216 -0.2111
  120OSM      N12630   1.056   3.890  10.968 -0.3620 -0.1834 -0.0346
  120OSM    C1512631   1.052   3.774  11.067  0.6283 -0.2116  0.7580
  120OSM   H15A12632   1.096   3.686  11.021  1.4517  0.7955 -0.4593
  120OSM   H15B12633   0.951   3.758  11.103  0.7017 -2.2392  0.2357
  120OSM   H15C12634   1.113   3.801  11.151 -0.4796  0.3347  1.4066
  120OSM    C1412635   1.018   4.013  11.037 -0.3231  0.0694 -0.0444
  120OSM   H14A12636   1.080   4.034  11.123 -1.0987  2.9519 -0.0991
  120OSM   H14B12637   0.923   4.000  11.086 -1.0034  0.8332 -1.1283
  120OSM   H14C12638   1.020   4.097  10.969 -0.4701  0.4033  0.3562
  120OSM    C1312639   1.192   3.899  10.921 -0.3577 -0.0211  0.6953
  120OSM   H13A12640   1.270   3.904  10.995  0.7658 -2.2956 -0.2129
  120OSM   H13B12641   1.202   3.973  10.843 -0.3846 -3.1502 -2.6053
  120OSM   H13C12642   1.202   3.803  10.871 -0.6840  0.3749 -0.1426
  120OSM    C1212643   0.964   3.861  10.853  0.6240  0.3942 -0.5552
  120OSM   H12A12644   0.864   3.877  10.889  0.5556  0.3897 -0.7404
  120OSM   H12B12645   0.981   3.758  10.825  0.6417  0.7345 -1.8760
  120OSM    C1112646   0.959   3.950  10.730 -0.0119 -0.2014 -0.1530
  120OSM   H11A12647   0.906   3.891  10.652  0.2791 -1.8549  0.8513
  120OSM   H11B12648   1.064   3.964  10.698 -0.1185 -3.0035 -2.1646
  120OSM      P12649   0.922   4.209  10.722 -0.1531  0.5036  0.0287
  120OSM    O1312650   0.808   4.294  10.741  0.4658 -0.1463  0.1644
  120OSM    O1412651   1.053   4.256  10.765 -0.0249  0.1084  0.3068
  120OSM    O1112652   0.930   4.186  10.563 -0.0123 -0.4170 -0.2130
  120OSM    O1212653   0.889   4.065  10.777 -0.0534  0.1829  0.3261
  120OSM    C1S12654   0.812   4.154  10.493 -0.3315 -0.2013  0.0172
  120OSM    H1S12655   0.750   4.246  10.487  0.9141  0.7097  0.7488
  120OSM    H1T12656   0.743   4.074  10.528 -1.2777  0.4017 -0.4190
  120OSM     NF12657   0.728   4.098  10.269 -0.5250 -0.0341 -0.0555
  120OSM    HNF12658   0.705   4.003  10.248  0.9777 -0.0408 -1.9783
  120OSM    C2S12659   0.850   4.122  10.348  0.4559 -0.2024 -0.0247
  120OSM    H2S12660   0.904   4.207  10.302 -1.8287  0.6553 -1.3166
  120OSM    C3S12661   0.942   3.998  10.336  0.6828  0.3702 -0.1719
  120OSM    H3S12662   0.888   3.912  10.381  1.0051 -0.5561 -1.5292
  120OSM     O312663   1.058   4.005  10.415 -0.6480  0.0405 -0.7315
  120OSM    HO312664   1.022   4.055  10.490 -0.2899  0.1174 -0.6103
  120OSM    C4S12665   0.972   3.966  10.194  0.1394 -0.5473  0.2870
  120OSM    H4S12666   0.919   3.881  10.149  0.6741 -0.4044 -0.6401
  120OSM    C5S12667   1.060   4.024  10.112 -0.7652 -0.5262  0.4554
  120OSM    H5S12668   1.118   4.114  10.137 -0.0135 -1.1418  1.0003
  120OSM    C6S12669   1.075   3.979   9.970 -0.0759 -0.2755 -0.1385
  120OSM    H6S12670   1.064   4.065   9.900 -2.5124  1.6788  2.4264
  120OSM    H6T12671   1.011   3.894   9.938 -1.3223  1.2719 -1.9489
  120OSM    C7S12672   1.222   3.930   9.950 -0.6142  0.3851 -0.4061
  120OSM    H7S12673   1.239   3.840  10.014  0.7546  2.4303  2.2955
  120OSM    H7T12674   1.286   4.011   9.989  0.1831 -1.4689  2.4182
  120OSM    C8S12675   1.257   3.889   9.809 -0.2591 -0.0733  0.2730
  120OSM    H8S12676   1.180   3.816   9.778  1.7764 -1.6552 -1.4274
  120OSM    H8T12677   1.352   3.832   9.802 -1.4099 -1.9640 -0.5276
  120OSM    C9S12678   1.258   4.012   9.711  0.4257  0.6478 -0.2519
  120OSM    H9S12679   1.352   4.072   9.714  1.5529 -1.0910  0.4722
  120OSM    H9T12680   1.174   4.081   9.732  1.2444  1.7553 -0.4826
  120OSM   C10S12681   1.235   3.972   9.566  0.1619 -0.4308  0.2559
  120OSM   H10S12682   1.127   3.958   9.548  0.3470  0.2558 -1.6492
  120OSM   H10T12683   1.284   3.886   9.515 -1.2408 -1.4445  0.5715
  120OSM   C11S12684   1.260   4.094   9.484 -0.7940 -0.3117 -0.3359
  120OSM   H11S12685   1.370   4.111   9.478 -1.0114  0.7637 -2.0319
  120OSM   H11T12686   1.204   4.173   9.540  0.8067  0.7743 -0.1929
  120OSM   C12S12687   1.191   4.090   9.352  0.0321  0.6273  0.3154
  120OSM   H12S12688   1.183   4.185   9.295 -1.6228  0.2205 -0.1918
  120OSM   H12T12689   1.086   4.059   9.372 -0.0364  0.3175 -0.5030
  120OSM   C13S12690   1.249   3.988   9.253 -0.3457 -0.0089 -0.9691
  120OSM   H13S12691   1.242   3.880   9.280  3.6748  0.2294  1.8879
  120OSM   H13T12692   1.357   4.011   9.239 -0.1754 -0.2307 -0.0486
  120OSM   C14S12693   1.193   4.009   9.110 -0.2261  0.9872 -0.4779
  120OSM   H14S12694   1.254   3.943   9.045 -1.0627 -1.6502  1.2207
  120OSM   H14T12695   1.212   4.114   9.079  3.6348  0.8627  0.9005
  120OSM   C15S12696   1.041   3.953   9.092 -0.1829 -0.5992 -0.4875
  120OSM   H15S12697   1.004   4.010   9.004  0.8975  0.7322 -0.1101
  120OSM   H15T12698   0.979   3.982   9.179 -1.3843 -1.1229 -1.1528
  120OSM   C16S12699   1.034   3.803   9.069  0.2342 -0.2901 -0.1814
  120OSM   H16S12700   1.064   3.744   9.158  1.6067  0.7657  0.0954
  120OSM   H16T12701   1.112   3.791   8.990  1.2150  0.4198  0.6508
  120OSM   C17S12702   0.896   3.757   9.015 -0.5951  0.1398  0.1797
  120OSM   H17S12703   0.844   3.820   8.939 -1.9192 -0.3035  0.6878
  120OSM   H17T12704   0.842   3.753   9.112  0.3775  0.4420  0.7425
  120OSM   C18S12705   0.899   3.618   8.945 -0.0473 -1.0445 -0.6579
  120OSM   H18S12706   0.955   3.545   9.007 -0.5073 -1.3591 -0.6029
  120OSM   H18T12707   0.939   3.609   8.842  0.0065 -0.2350 -0.7114
  120OSM   H18U12708   0.796   3.575   8.936 -0.7073  0.0417  1.1861
  120OSM    C1F12709   0.649   4.199  10.239 -0.4127  0.9525  0.4685
  120OSM     OF12710   0.690   4.316  10.246  0.1392  0.6410 -0.0986
  120OSM    C2F12711   0.518   4.158  10.181 -0.0387 -0.8521  0.0484
  120OSM    H2F12712   0.452   4.104  10.252 -2.8984  1.0154 -0.9787
  120OSM    H2G12713   0.545   4.105  10.088  2.2537  1.2962 -0.6265
  120OSM    C3F12714   0.440   4.284  10.129 -0.1633  0.0499 -0.0994
  120OSM    H3F12715   0.507   4.338  10.059  0.8717 -0.2776  0.6136
  120OSM    H3G12716   0.436   4.350  10.219  0.8123  2.4008 -1.6865
  120OSM    C4F12717   0.299   4.243  10.086  0.5230 -0.1268 -0.2932
  120OSM    H4F12718   0.232   4.332  10.082  1.2810  0.6620  2.3616
  120OSM    H4G12719   0.261   4.182  10.171 -0.7469 -1.2462 -1.5991
  120OSM    C5F12720   0.288   4.184   9.951 -0.3043  0.1266  0.1511
  120OSM    H5F12721   0.185   4.142   9.943  1.2547 -4.1636 -0.2572
  120OSM    H5G12722   0.361   4.101   9.938  0.2076  0.5593  0.2528
  120OSM    C6F12723   0.305   4.286   9.837  0.1842  0.9933  0.0933
  120OSM    H6F12724   0.385   4.359   9.860  1.3729 -0.4108  0.5610
  120OSM    H6G12725   0.207   4.338   9.835 -0.7769 -0.6248  1.7642
  120OSM    C7F12726   0.334   4.210   9.701  1.0306 -0.1075  0.0594
  120OSM    H7F12727   0.272   4.118   9.703  0.9895 -0.1764 -2.0682
  120OSM    H7G12728   0.440   4.180   9.713  0.3903 -2.0008  1.4293
  120OSM    C8F12729   0.310   4.300   9.578  0.2650  1.3951  0.4027
  120OSM    H8F12730   0.203   4.327   9.575  0.4516  2.1735  0.6901
  120OSM    H8G12731   0.332   4.231   9.493  1.2067 -0.2186  1.8744
  120OSM    C9F12732   0.391   4.425   9.583  0.3261  0.4161  0.2178
  120OSM    H9F12733   0.436   4.464   9.676 -1.1099  1.0642  0.6589
  120OSM   C10F12734   0.426   4.499   9.477 -0.6258 -0.2159 -1.0576
  120OSM   H10F12735   0.498   4.581   9.493 -1.0158  0.4347 -2.4842
  120OSM   C11F12736   0.385   4.468   9.332 -0.0971 -0.4787  0.6989
  120OSM   H11F12737   0.322   4.377   9.317  0.6173 -0.7922 -0.6339
  120OSM   H11G12738   0.479   4.428   9.289 -0.8923  0.6320 -2.3847
  120OSM   C12F12739   0.349   4.596   9.254  0.3473  0.0510  0.5321
  120OSM   H12F12740   0.422   4.678   9.242 -1.4070  1.4253 -1.4922
  120OSM   H12G12741   0.266   4.648   9.306 -1.4834 -0.5458 -1.6217
  120OSM   C13F12742   0.288   4.578   9.111  0.1780  0.0471 -0.2287
  120OSM   H13F12743   0.255   4.678   9.074  2.1037  1.3939  1.4840
  120OSM   H13G12744   0.198   4.513   9.118  1.2947 -1.4967  0.2998
  120OSM   C14F12745   0.378   4.499   9.019  0.1266  0.4002  0.4286
  120OSM   H14F12746   0.384   4.396   9.061 -1.4481 -0.1506 -0.6295
  120OSM   H14G12747   0.483   4.533   9.009 -0.1370  0.7651 -1.3766
  120OSM   C15F12748   0.328   4.486   8.877 -0.1227  0.4620  0.1481
  120OSM   H15F12749   0.227   4.439   8.878 -0.2960  0.7729 -1.3569
  120OSM   H15G12750   0.398   4.417   8.827  0.8886  1.5210  0.0642
  120OSM   C16F12751   0.331   4.617   8.804 -0.0236 -0.0472  0.0040
  120OSM   H16F12752   0.410   4.680   8.849 -0.3052 -0.2352  0.7957
  120OSM   H16G12753   0.236   4.663   8.840  0.6535  1.8003 -0.4592
  120OSM   C17F12754   0.331   4.619   8.652  0.0888 -0.1927  0.7238
  120OSM   H17F12755   0.234   4.567   8.633  0.1669 -0.0950  0.0414
  120OSM   H17G12756   0.424   4.565   8.624 -0.2513 -1.1685  1.4012
  120OSM   C18F12757   0.330   4.761   8.599 -0.7395  0.1820 -1.0748
  120OSM   H18F12758   0.296   4.755   8.493 -0.0994 -1.6185 -1.2238
  120OSM   H18G12759   0.430   4.809   8.598  0.4894 -2.0554  1.3483
  120OSM   H18H12760   0.265   4.834   8.651  1.9077  0.3564  2.3803
  121OSM      N12761   0.338   0.542  11.452 -0.1877 -0.0279  0.1918
  121OSM    C1512762   0.394   0.570  11.586  0.3213 -0.3096 -0.5477
  121OSM   H15A12763   0.336   0.535  11.671  0.5475  3.1113  1.1980
  121OSM   H15B12764   0.392   0.673  11.619 -0.8445 -0.5031  0.0820
  121OSM   H15C12765   0.497   0.543  11.604 -0.1875 -1.3040  1.1751
  121OSM    C1412766   0.334   0.393  11.440  0.0568  0.1935  0.0071
  121OSM   H14A12767   0.297   0.334  11.523 -0.9534  0.3655 -0.3051
  121OSM   H14B12768   0.432   0.349  11.435 -0.3490 -0.5879 -2.4005
  121OSM   H14C12769   0.287   0.373  11.344  0.7617  1.6193 -0.6569
  121OSM    C1312770   0.184   0.581  11.447 -0.3713 -0.2981 -0.0962
  121OSM   H13A12771   0.142   0.560  11.349  0.0188  1.6600 -0.7365
  121OSM   H13B12772   0.166   0.683  11.478 -0.2154 -0.4516  0.5074
  121OSM   H13C12773   0.134   0.520  11.520 -1.1180 -1.5096 -1.5544
  121OSM    C1212774   0.415   0.613  11.346  0.2634  0.0560  0.3402
  121OSM   H12A12775   0.520   0.589  11.355  0.1731 -0.2987  0.4905
  121OSM   H12B12776   0.403   0.718  11.369  2.6397  0.0497  1.9736
  121OSM    C1112777   0.388   0.583  11.190 -0.1319  0.1647 -0.4574
  121OSM   H11A12778   0.427   0.479  11.182 -2.9711 -1.5323  3.9763
  121OSM   H11B12779   0.449   0.650  11.126 -1.6124  3.1921  1.0804
  121OSM      P12780   0.184   0.709  11.104  0.0076 -0.5819 -0.0646
  121OSM    O1312781   0.040   0.680  11.080  0.4285 -0.1739  0.2302
  121OSM    O1412782   0.196   0.821  11.199 -0.2419  0.2516  0.8608
  121OSM    O1112783   0.240   0.732  10.965  0.6079 -0.1813  0.3762
  121OSM    O1212784   0.250   0.583  11.159 -0.5276  0.4243  0.0543
  121OSM    C1S12785   0.271   0.618  10.884 -0.5587 -0.4667  0.3408
  121OSM    H1S12786   0.177   0.559  10.870 -1.3412  0.3248  1.9691
  121OSM    H1T12787   0.350   0.550  10.924  0.4835  1.4021  1.6035
  121OSM     NF12788   0.326   0.567  10.650 -0.0266  0.3630  0.2216
  121OSM    HNF12789   0.419   0.532  10.648 -0.7814 -1.8459  0.3590
  121OSM    C2S12790   0.312   0.675  10.741 -0.0381  0.0136  0.2396
  121OSM    H2S12791   0.233   0.745  10.706  1.1836  1.5692  0.5134
  121OSM    C3S12792   0.438   0.761  10.745 -0.7557  1.0772  0.0099
  121OSM    H3S12793   0.527   0.715  10.793 -0.2385  1.6325 -0.3958
  121OSM     O312794   0.430   0.870  10.831  0.2525 -0.3850  0.5833
  121OSM    HO312795   0.363   0.842  10.894  0.4221 -2.5455 -0.1364
  121OSM    C4S12796   0.481   0.822  10.614  0.0952  0.2331  0.2972
  121OSM    H4S12797   0.430   0.915  10.587 -1.6213  0.0116  2.5075
  121OSM    C5S12798   0.587   0.771  10.537  0.1986 -0.8501 -0.3111
  121OSM    H5S12799   0.642   0.680  10.565  1.7600 -0.2589 -1.3277
  121OSM    C6S12800   0.602   0.833  10.404 -0.3712 -0.3067  0.6813
  121OSM    H6S12801   0.704   0.874  10.394 -0.2570 -0.8196 -0.3558
  121OSM    H6T12802   0.527   0.907  10.369  1.8018  1.3004 -0.7861
  121OSM    C7S12803   0.584   0.728  10.292  0.2453 -0.2577 -0.2083
  121OSM    H7S12804   0.481   0.688  10.293 -1.2294  3.1450  1.0208
  121OSM    H7T12805   0.654   0.644  10.310 -0.6458 -1.0765 -0.5279
  121OSM    C8S12806   0.621   0.771  10.151 -0.6276 -0.1521 -0.2951
  121OSM    H8S12807   0.730   0.789  10.140 -0.4881 -1.0509 -0.4513
  121OSM    H8T12808   0.575   0.867  10.120  2.7241  0.8514 -2.7296
  121OSM    C9S12809   0.578   0.679  10.046  0.0702  0.0322 -0.0783
  121OSM    H9S12810   0.467   0.674  10.045  0.0241  0.7758  0.5998
  121OSM    H9T12811   0.620   0.578  10.067  0.6270  0.2961  0.1156
  121OSM   C10S12812   0.629   0.718   9.908 -0.6321 -0.0138 -1.3229
  121OSM   H10S12813   0.735   0.749   9.909 -1.1653  1.9667 -0.9538
  121OSM   H10T12814   0.573   0.808   9.872  0.0194  1.5722  1.3794
  121OSM   C11S12815   0.617   0.611   9.797 -0.7517  0.1825 -0.6176
  121OSM   H11S12816   0.544   0.534   9.830  0.6170 -0.5751  0.7348
  121OSM   H11T12817   0.712   0.554   9.795 -0.2815  0.6303  2.9406
  121OSM   C12S12818   0.584   0.673   9.654 -0.0093 -0.4809 -0.2427
  121OSM   H12S12819   0.681   0.721   9.632  1.5180 -3.8491 -1.6769
  121OSM   H12T12820   0.506   0.752   9.652  0.9793  0.5168 -1.2010
  121OSM   C13S12821   0.568   0.563   9.553  0.3562 -0.0917  0.2933
  121OSM   H13S12822   0.486   0.502   9.595 -1.1679  0.2004 -2.0531
  121OSM   H13T12823   0.665   0.509   9.549  0.1926 -0.3550 -0.2549
  121OSM   C14S12824   0.536   0.625   9.413  0.1365  0.2773 -0.3790
  121OSM   H14S12825   0.635   0.663   9.379  0.9532  0.7270  2.2750
  121OSM   H14T12826   0.469   0.713   9.407  1.3831  1.3009  0.0973
  121OSM   C15S12827   0.496   0.515   9.314  0.0658 -1.0527 -0.3109
  121OSM   H15S12828   0.398   0.473   9.347 -0.6110  0.8762  0.3075
  121OSM   H15T12829   0.578   0.441   9.317  1.8802  0.8891  0.9385
  121OSM   C16S12830   0.484   0.563   9.176 -0.7281  0.2697  0.0302
  121OSM   H16S12831   0.586   0.594   9.147 -0.9987  1.3009  0.1099
  121OSM   H16T12832   0.426   0.658   9.166  0.0702  0.8194  0.5337
  121OSM   C17S12833   0.439   0.460   9.077  0.2498  0.0204  0.4304
  121OSM   H17S12834   0.332   0.435   9.091 -0.5980  0.8741 -3.4184
  121OSM   H17T12835   0.510   0.378   9.099  0.0568  0.3369  2.3859
  121OSM   C18S12836   0.448   0.503   8.930  0.8743  0.3041 -0.4032
  121OSM   H18S12837   0.430   0.415   8.864  1.1008 -1.6642  2.0205
  121OSM   H18T12838   0.548   0.540   8.900  0.2535  1.7687 -0.7739
  121OSM   H18U12839   0.381   0.590   8.913  0.3316 -0.5134 -2.9735
  121OSM    C1F12840   0.218   0.495  10.604 -0.2538  0.0746 -0.1307
  121OSM     OF12841   0.106   0.524  10.643  0.1410  0.7900  1.0104
  121OSM    C2F12842   0.257   0.376  10.521 -0.2151  0.4150 -0.0625
  121OSM    H2F12843   0.253   0.289  10.591 -1.2952  2.8372  3.1239
  121OSM    H2G12844   0.364   0.393  10.497 -0.1972  2.6064  1.2914
  121OSM    C3F12845   0.167   0.368  10.396 -0.4153  0.0088 -0.2506
  121OSM    H3F12846   0.192   0.459  10.338 -1.9510  1.4894  1.2968
  121OSM    H3G12847   0.063   0.379  10.433 -0.2049  1.3547 -0.0184
  121OSM    C4F12848   0.184   0.238  10.318 -0.2823 -0.5681  0.2137
  121OSM    H4F12849   0.086   0.216  10.271 -1.2244  2.1135  0.7044
  121OSM    H4G12850   0.215   0.161  10.391  0.6729 -1.2247 -0.8582
  121OSM    C5F12851   0.301   0.238  10.212 -0.2418  0.0550  0.8602
  121OSM    H5F12852   0.301   0.140  10.159 -1.0111  0.8020 -0.5784
  121OSM    H5G12853   0.396   0.242  10.269 -0.4857 -1.7526  1.4601
  121OSM    C6F12854   0.291   0.344  10.102 -0.0867 -0.2387 -0.3247
  121OSM    H6F12855   0.350   0.432  10.137  1.7950 -0.8716 -1.7600
  121OSM    H6G12856   0.182   0.358  10.090 -0.6146 -2.2435  1.5140
  121OSM    C7F12857   0.353   0.300   9.967 -1.0269 -0.1722  0.1258
  121OSM    H7F12858   0.453   0.261   9.996 -0.9379 -0.7351 -0.8913
  121OSM    H7G12859   0.367   0.395   9.910  0.9444  0.1458  1.0275
  121OSM    C8F12860   0.281   0.196   9.890 -0.7318 -0.6800 -0.2312
  121OSM    H8F12861   0.257   0.112   9.958  1.5700 -1.1868  0.0412
  121OSM    H8G12862   0.356   0.165   9.815 -1.0314  0.5972 -1.0979
  121OSM    C9F12863   0.153   0.246   9.826  0.0091  0.6488 -0.7509
  121OSM    H9F12864   0.068   0.260   9.894 -0.1217 -2.3936 -0.1341
  121OSM   C10F12865   0.149   0.280   9.696  0.5404  0.1302  0.3468
  121OSM   H10F12866   0.053   0.317   9.657  1.0404  0.6477 -0.4299
  121OSM   C11F12867   0.256   0.276   9.590 -0.3165 -0.9692 -0.1718
  121OSM   H11F12868   0.356   0.272   9.639 -1.7134 -0.5387  2.9182
  121OSM   H11G12869   0.251   0.377   9.544  0.7308 -0.9027 -0.1563
  121OSM   C12F12870   0.240   0.152   9.505  0.3154 -1.0090  0.1737
  121OSM   H12F12871   0.138   0.123   9.471  0.2526  0.7366 -1.2475
  121OSM   H12G12872   0.257   0.060   9.565  2.7861  0.6482  2.2692
  121OSM   C13F12873   0.331   0.164   9.389  0.1647 -0.6629  0.1533
  121OSM   H13F12874   0.429   0.194   9.432 -0.7080  0.3442  1.5089
  121OSM   H13G12875   0.302   0.253   9.330  0.1012  0.0830  1.2781
  121OSM   C14F12876   0.334   0.037   9.305 -0.2780  0.0516 -0.9178
  121OSM   H14F12877   0.241  -0.024   9.300  0.7841 -1.5773 -1.7492
  121OSM   H14G12878   0.393  -0.030   9.370 -2.8257 -0.4964  1.0150
  121OSM   C15F12879   0.394   0.053   9.165 -0.4138 -0.1494 -0.0496
  121OSM   H15F12880   0.484  -0.011   9.151 -0.6299 -1.6870  4.0521
  121OSM   H15G12881   0.436   0.156   9.156  1.4624 -0.8084  0.6080
  121OSM   C16F12882   0.287   0.034   9.049 -0.2240 -0.4981 -0.2123
  121OSM   H16F12883   0.299   0.103   8.963  2.0923 -1.8693 -1.0808
  121OSM   H16G12884   0.191   0.062   9.097 -0.1298  0.0419 -0.3333
  121OSM   C17F12885   0.269  -0.108   9.006  0.2616  0.4295 -1.0226
  121OSM   H17F12886   0.283  -0.177   9.092 -1.1921 -0.0755 -1.1632
  121OSM   H17G12887   0.356  -0.136   8.942 -0.7131 -1.5108 -1.5709
  121OSM   C18F12888   0.141  -0.149   8.939  0.2274 -0.0455  0.1435
  121OSM   H18F12889   0.145  -0.108   8.836  0.4489 -0.7556 -0.1384
  121OSM   H18G12890   0.056  -0.106   8.996 -0.0417 -1.3013  0.7328
  121OSM   H18H12891   0.137  -0.260   8.935 -0.6392 -0.1184  1.9993
  122OSM      N12892   0.217   4.184  11.063  0.0586 -0.3121 -0.2389
  122OSM    C1512893   0.182   4.042  11.093 -0.8799  0.1275  0.2298
  122OSM   H15A12894   0.077   4.022  11.099 -0.4382 -2.2491  1.2302
  122OSM   H15B12895   0.221   4.013  11.190  1.3958 -1.3087 -1.0159
  122OSM   H15C12896   0.228   3.975  11.023  2.2369 -0.0817  2.2662
  122OSM    C1412897   0.165   4.276  11.170 -0.0359  0.4022  0.3435
  122OSM   H14A12898   0.184   4.246  11.272  2.3246 -0.4511 -0.2783
  122OSM   H14B12899   0.058   4.289  11.156 -0.1552 -1.8879 -1.5265
  122OSM   H14C12900   0.203   4.376  11.153 -0.8507  0.8092  0.8713
  122OSM    C1312901   0.366   4.197  11.059 -0.5685 -0.2468 -0.4566
  122OSM   H13A12902   0.399   4.163  11.155 -2.9048 -3.5996 -0.6610
  122OSM   H13B12903   0.397   4.300  11.041  0.2049 -0.5160 -0.7023
  122OSM   H13C12904   0.395   4.124  10.985 -1.7194 -3.3173  1.9079
  122OSM    C1212905   0.169   4.229  10.925 -0.0726 -0.4267 -0.1700
  122OSM   H12A12906   0.065   4.198  10.922 -0.7194  1.0955  2.6642
  122OSM   H12B12907   0.220   4.164  10.856  2.5374  0.4560  0.8228
  122OSM    C1112908   0.174   4.380  10.903 -0.6068 -0.2256  0.4365
  122OSM   H11A12909   0.094   4.431  10.961 -1.1054 -2.2906  1.6482
  122OSM   H11B12910   0.153   4.409  10.798  2.5991  1.6747  0.2003
  122OSM      P12911   0.311   4.584  11.010  0.4765 -0.0248 -0.1761
  122OSM    O1312912   0.240   4.590  11.139  0.6341 -0.0700 -0.5190
  122OSM    O1412913   0.447   4.634  11.019  0.0132  0.9226 -0.4237
  122OSM    O1112914   0.236   4.668  10.906 -0.0076 -0.3198 -0.2407
  122OSM    O1212915   0.307   4.437  10.942 -0.0908 -0.4666  0.0810
  122OSM    C1S12916   0.310   4.711  10.789  0.3671  0.6086  0.2088
  122OSM    H1S12917   0.367   4.625  10.748 -1.3700 -0.1117 -0.7636
  122OSM    H1T12918   0.388   4.789  10.806 -0.3414  1.2497  0.5644
  122OSM     NF12919   0.292   4.786  10.550  0.4462  0.0549 -0.4567
  122OSM    HNF12920   0.334   4.873  10.528  0.7961 -0.0832 -0.3369
  122OSM    C2S12921   0.216   4.774  10.679 -0.8441  1.0885  0.0880
  122OSM    H2S12922   0.127   4.712  10.656 -0.2480  0.8721 -1.8348
  122OSM    C3S12923   0.163   4.904  10.733  0.2962  0.0989 -0.1492
  122OSM    H3S12924   0.256   4.961  10.757  0.1363  0.1010  0.4736
  122OSM     O312925   0.085   4.901  10.858 -0.2582 -0.0495  0.2587
  122OSM    HO312926   0.102   4.819  10.905  3.0328  0.9803  1.0620
  122OSM    C4S12927   0.083   4.977  10.618 -0.5625  0.2224 -0.1606
  122OSM    H4S12928   0.150   5.016  10.540  0.5004  1.9100  1.4790
  122OSM    C5S12929  -0.045   5.017  10.602  0.2290 -0.1603 -0.3420
  122OSM    H5S12930  -0.115   5.004  10.686 -0.4651  1.3000 -0.6703
  122OSM    C6S12931  -0.114   5.078  10.480 -0.4189  0.2019  0.7934
  122OSM    H6S12932  -0.203   5.131  10.523 -1.8351 -1.0927 -0.4283
  122OSM    H6T12933  -0.159   5.003  10.412  1.2282  0.3229 -0.4831
  122OSM    C7S12934  -0.015   5.161  10.390 -0.3358  0.4059  0.0043
  122OSM    H7S12935   0.064   5.203  10.456 -0.7978  0.1508  0.7318
  122OSM    H7T12936  -0.059   5.254  10.347 -2.2522 -0.6714 -0.4636
  122OSM    C8S12937   0.054   5.076  10.285 -0.2761  0.3994  0.1599
  122OSM    H8S12938  -0.025   5.010  10.245  1.6464 -1.9080 -0.0928
  122OSM    H8T12939   0.125   5.003  10.331 -1.1084 -0.0012  0.8283
  122OSM    C9S12940   0.126   5.163  10.180  0.8116  0.0738  0.1745
  122OSM    H9S12941   0.145   5.261  10.230  2.5024  0.0424 -0.3272
  122OSM    H9T12942   0.060   5.187  10.094  0.9547 -2.2390 -0.6365
  122OSM   C10S12943   0.263   5.118  10.129  0.6596 -0.0587  0.1585
  122OSM   H10S12944   0.233   5.041  10.055  0.2345 -0.2342  0.5102
  122OSM   H10T12945   0.320   5.064  10.207  0.4565 -1.7082 -0.7887
  122OSM   C11S12946   0.347   5.237  10.082 -0.0786  0.0994  0.1651
  122OSM   H11S12947   0.353   5.305  10.169  1.8958 -0.0056  0.1636
  122OSM   H11T12948   0.307   5.295   9.995  2.1096  0.3432 -0.7508
  122OSM   C12S12949   0.486   5.197  10.036  0.2423 -0.7078 -0.3533
  122OSM   H12S12950   0.512   5.107  10.096  0.1385  0.6723  1.8866
  122OSM   H12T12951   0.551   5.281  10.070 -1.7706  0.8596 -0.2112
  122OSM   C13S12952   0.509   5.173   9.883 -0.2622  0.0790  0.6599
  122OSM   H13S12953   0.445   5.083   9.869 -1.1083  0.5121  1.5917
  122OSM   H13T12954   0.612   5.135   9.868 -0.5388 -0.5897  0.4463
  122OSM   C14S12955   0.472   5.296   9.798 -0.6447 -0.2124  0.3900
  122OSM   H14S12956   0.528   5.384   9.835 -0.9747  1.0913 -1.9901
  122OSM   H14T12957   0.363   5.315   9.792 -0.4712  0.4258 -1.7291
  122OSM   C15S12958   0.531   5.276   9.649 -0.1726  0.7810 -0.6856
  122OSM   H15S12959   0.449   5.250   9.578 -1.9328  1.7987  0.8721
  122OSM   H15T12960   0.613   5.202   9.636 -0.1229  0.5839  0.6112
  122OSM   C16S12961   0.583   5.411   9.604 -0.3917  0.1274 -0.6134
  122OSM   H16S12962   0.661   5.456   9.669 -0.0176 -0.8281 -0.3863
  122OSM   H16T12963   0.503   5.488   9.602  0.2457  0.9337  1.8812
  122OSM   C17S12964   0.650   5.410   9.468  0.2426 -0.3555 -0.1234
  122OSM   H17S12965   0.744   5.351   9.472  1.2812  1.3022  2.2682
  122OSM   H17T12966   0.671   5.519   9.458 -2.2585  0.2859  1.0065
  122OSM   C18S12967   0.558   5.355   9.361 -0.2311 -0.4779 -0.0615
  122OSM   H18S12968   0.545   5.245   9.373  0.0994 -0.4537  0.5802
  122OSM   H18T12969   0.598   5.371   9.259  2.8187  0.5879  1.1951
  122OSM   H18U12970   0.451   5.385   9.367 -0.9682 -2.6284 -1.2148
  122OSM    C1F12971   0.317   4.694  10.460  0.5651  0.1789  0.5574
  122OSM     OF12972   0.304   4.576  10.488  0.4231 -0.7433 -0.2260
  122OSM    C2F12973   0.356   4.751  10.317 -0.2704 -0.1037 -0.5003
  122OSM    H2F12974   0.438   4.825  10.321 -0.5959  0.1856  1.4280
  122OSM    H2G12975   0.270   4.811  10.280  1.1669  2.4593  0.1426
  122OSM    C3F12976   0.400   4.652  10.213 -0.1909  0.3164 -0.3502
  122OSM    H3F12977   0.311   4.588  10.194 -1.5733  1.1197  2.7521
  122OSM    H3G12978   0.492   4.604  10.253  0.0226 -0.2821 -1.5062
  122OSM    C4F12979   0.422   4.713  10.076 -0.0259 -0.3573  0.0218
  122OSM    H4F12980   0.520   4.765  10.083 -0.9003  1.3290  0.3054
  122OSM    H4G12981   0.358   4.804  10.066  1.2813  0.6416  0.3713
  122OSM    C5F12982   0.396   4.624   9.953 -0.4283 -0.6363  0.3135
  122OSM    H5F12983   0.291   4.586   9.953  0.3089 -3.2489 -3.0564
  122OSM    H5G12984   0.456   4.531   9.942  1.4479  0.5334  0.1824
  122OSM    C6F12985   0.433   4.707   9.822  0.2006 -0.1907 -0.1399
  122OSM    H6F12986   0.391   4.810   9.822 -2.3258 -1.1647 -0.4879
  122OSM    H6G12987   0.396   4.646   9.737  2.9600 -0.4491 -1.2786
  122OSM    C7F12988   0.581   4.712   9.799 -0.2351 -0.7043  0.6890
  122OSM    H7F12989   0.623   4.609   9.803 -1.3110 -1.1621  0.6408
  122OSM    H7G12990   0.635   4.770   9.877  3.6085 -1.3057 -1.3097
  122OSM    C8F12991   0.615   4.771   9.665 -0.0466 -0.3629 -0.4818
  122OSM    H8F12992   0.604   4.882   9.666 -0.1116 -0.3692 -0.4889
  122OSM    H8G12993   0.530   4.747   9.599  0.4557  1.7224 -1.9881
  122OSM    C9F12994   0.744   4.721   9.610 -0.4529  0.5223 -0.0082
  122OSM    H9F12995   0.741   4.616   9.580  0.0923  0.2299  0.9210
  122OSM   C10F12996   0.847   4.806   9.583  0.1569  0.1945  0.7367
  122OSM   H10F12997   0.944   4.760   9.556 -0.7884 -1.5339  0.1482
  122OSM   C11F12998   0.845   4.955   9.601 -0.1785  0.3819 -0.2528
  122OSM   H11F12999   0.945   4.983   9.640 -0.2549 -1.3077  1.3052
  122OSM   H11G13000   0.773   4.998   9.674 -1.1746 -2.3681  0.5228
  122OSM   C12F13001   0.817   5.034   9.469 -0.0809 -0.1344  0.4215
  122OSM   H12F13002   0.762   5.125   9.501 -1.5246 -1.6716  2.6662
  122OSM   H12G13003   0.743   4.979   9.407  0.3244 -0.1517 -0.0489
  122OSM   C13F13004   0.932   5.070   9.380  0.3822  0.2190 -0.3170
  122OSM   H13F13005   1.006   5.112   9.452 -0.3964 -1.5466  1.6303
  122OSM   H13G13006   0.900   5.161   9.326 -1.0245 -0.0765 -0.0413
  122OSM   C14F13007   0.985   4.957   9.292 -0.5949 -0.0163 -0.1933
  122OSM   H14F13008   0.915   4.919   9.215 -2.2396 -1.5391  1.9300
  122OSM   H14G13009   1.033   4.875   9.350 -3.2920 -1.6054 -0.0243
  122OSM   C15F13010   1.091   5.012   9.202 -0.2177 -0.1609 -0.0618
  122OSM   H15F13011   1.072   5.115   9.165  2.5221  0.7649  0.8532
  122OSM   H15G13012   1.112   4.940   9.120  1.6199  2.1427 -1.7922
  122OSM   C16F13013   1.216   5.038   9.280 -0.3899 -0.0327 -0.2143
  122OSM   H16F13014   1.239   4.944   9.335 -1.1951  1.2361  2.4726
  122OSM   H16G13015   1.205   5.117   9.357 -1.0443 -2.5185  2.4237
  122OSM   C17F13016   1.338   5.077   9.187  0.0027 -0.0069 -0.7586
  122OSM   H17F13017   1.346   5.007   9.102  1.3579  0.9622 -1.4687
  122OSM   H17G13018   1.431   5.058   9.245  0.6489  0.9886 -1.4308
  122OSM   C18F13019   1.329   5.223   9.134  0.0911 -0.9924 -0.2525
  122OSM   H18F13020   1.238   5.241   9.071  0.3472  1.4419 -0.0380
  122OSM   H18G13021   1.421   5.245   9.077 -0.3098 -0.5695 -0.7535
  122OSM   H18H13022   1.331   5.295   9.219  0.0884  0.4921 -1.4716
  123OSM      N13023   4.852   4.371   5.807  0.1285 -0.0093 -0.2372
  123OSM    C1513024   4.710   4.337   5.758  0.7472 -0.0656  0.6264
  123OSM   H15A13025   4.654   4.429   5.775 -0.4551 -0.7856  0.6915
  123OSM   H15B13026   4.656   4.259   5.810 -0.3229  0.7623  0.8172
  123OSM   H15C13027   4.712   4.327   5.651 -1.9636 -0.9075  0.5657
  123OSM    C1413028   4.942   4.269   5.742  0.3668  0.5282  0.7730
  123OSM   H14A13029   5.048   4.281   5.756  0.3643 -0.7929  2.2557
  123OSM   H14B13030   4.933   4.260   5.635  4.1557 -2.7749  0.4868
  123OSM   H14C13031   4.920   4.167   5.771  0.0161  0.1958 -0.5842
  123OSM    C1313032   4.888   4.510   5.759 -0.0887  0.3895  0.1546
  123OSM   H13A13033   4.818   4.587   5.787  0.0574  0.2396  0.9633
  123OSM   H13B13034   4.882   4.510   5.651 -2.9460 -1.2661  0.2259
  123OSM   H13C13035   4.990   4.537   5.783  0.2284  0.0772 -0.7972
  123OSM    C1213036   4.856   4.378   5.958  0.9598 -0.4552 -0.6990
  123OSM   H12A13037   4.793   4.463   5.978  1.8487  0.2259 -0.7901
  123OSM   H12B13038   4.955   4.413   5.982  1.1677  0.3669 -2.5788
  123OSM    C1113039   4.827   4.251   6.042 -0.3017 -0.6632 -0.1079
  123OSM   H11A13040   4.874   4.266   6.142 -0.0042  0.1852 -0.3686
  123OSM   H11B13041   4.881   4.165   5.997  1.0104  0.7890 -1.4161
  123OSM      P13042   4.593   4.331   6.111 -0.0374 -0.5532 -0.4510
  123OSM    O1313043   4.551   4.430   6.014 -0.6001  0.6918 -0.3003
  123OSM    O1413044   4.485   4.249   6.178 -0.3324  0.0917 -0.4385
  123OSM    O1113045   4.695   4.389   6.221  0.1083 -0.0375 -0.2094
  123OSM    O1213046   4.685   4.228   6.044 -0.4891 -0.2938  0.1138
  123OSM    C1S13047   4.648   4.450   6.344  0.1786  0.1782 -0.2597
  123OSM    H1S13048   4.552   4.500   6.322  0.1896 -0.3657 -1.6290
  123OSM    H1T13049   4.730   4.521   6.369 -0.5581  0.8143  0.3715
  123OSM     NF13050   4.590   4.415   6.585 -0.2186  0.1067  0.2693
  123OSM    HNF13051   4.659   4.416   6.657 -1.4871 -0.8294  1.5516
  123OSM    C2S13052   4.632   4.349   6.460  0.1303  0.0190 -0.4162
  123OSM    H2S13053   4.552   4.277   6.430  0.9738 -1.3424  0.4568
  123OSM    C3S13054   4.761   4.266   6.482 -0.1948  0.2395 -0.5469
  123OSM    H3S13055   4.850   4.331   6.497 -0.3239  0.0577  1.1536
  123OSM     O313056   4.796   4.185   6.367 -0.0035 -0.1206  0.1790
  123OSM    HO313057   4.767   4.230   6.287  0.6623 -0.5208 -0.2931
  123OSM    C4S13058   4.748   4.171   6.602 -0.0604  0.1648  0.0434
  123OSM    H4S13059   4.660   4.105   6.597  0.7920 -1.0421  0.5608
  123OSM    C5S13060   4.837   4.163   6.705 -0.7666 -0.2478  0.3211
  123OSM    H5S13061   4.926   4.228   6.700 -1.1733  0.5777  2.4899
  123OSM    C6S13062   4.841   4.078   6.824 -0.5361 -0.2129 -0.0665
  123OSM    H6S13063   4.851   4.151   6.907 -2.9101 -2.0230  1.9559
  123OSM    H6T13064   4.930   4.011   6.817 -0.0528 -0.0394  3.1614
  123OSM    C7S13065   4.710   3.995   6.844 -0.4735  0.6365 -0.4349
  123OSM    H7S13066   4.723   3.898   6.792 -3.4174 -1.0443  1.6285
  123OSM    H7T13067   4.614   4.048   6.828 -0.4753  1.5055  2.0226
  123OSM    C8S13068   4.702   3.940   6.986  0.4193  0.9547 -0.3142
  123OSM    H8S13069   4.791   3.878   7.008 -0.1406  0.5726  0.9985
  123OSM    H8T13070   4.618   3.869   7.003 -0.1441  1.9085  1.0791
  123OSM    C9S13071   4.684   4.050   7.087  0.1610 -0.1714 -0.0619
  123OSM    H9S13072   4.596   4.116   7.066  0.2143 -0.5304 -1.5463
  123OSM    H9T13073   4.765   4.127   7.084 -0.5847  0.6176 -1.1692
  123OSM   C10S13074   4.674   4.002   7.228  0.1455 -0.1102 -0.0491
  123OSM   H10S13075   4.774   3.958   7.252 -0.4989 -1.2505  0.6172
  123OSM   H10T13076   4.601   3.919   7.242  0.4771 -0.3994  0.0031
  123OSM   C11S13077   4.642   4.103   7.340 -0.1866 -0.0536  0.0518
  123OSM   H11S13078   4.534   4.130   7.344 -0.6212 -1.3463 -1.6896
  123OSM   H11T13079   4.705   4.193   7.323  1.9388 -1.5234 -0.2435
  123OSM   C12S13080   4.677   4.039   7.479 -0.8100  0.4741  0.9292
  123OSM   H12S13081   4.787   4.025   7.494 -0.3066  0.3271 -2.1423
  123OSM   H12T13082   4.628   3.940   7.484  0.7652 -0.2811  2.2424
  123OSM   C13S13083   4.629   4.124   7.600  0.6139  0.4686  0.3295
  123OSM   H13S13084   4.519   4.109   7.606  0.1787  2.0339 -2.1233
  123OSM   H13T13085   4.664   4.229   7.589 -0.7027  0.7558 -1.5599
  123OSM   C14S13086   4.705   4.075   7.728 -0.0591  0.8746  0.4125
  123OSM   H14S13087   4.810   4.057   7.699 -0.1633  0.9822 -0.0333
  123OSM   H14T13088   4.672   3.974   7.763  1.1787  0.5743  0.7674
  123OSM   C15S13089   4.666   4.168   7.840  0.2667 -0.5533  0.5982
  123OSM   H15S13090   4.556   4.160   7.854 -0.2440 -0.9146 -2.7292
  123OSM   H15T13091   4.678   4.273   7.805  1.4052 -0.2208  1.8950
  123OSM   C16S13092   4.751   4.152   7.969 -1.0540  0.1154 -0.5602
  123OSM   H16S13093   4.860   4.170   7.962 -1.1887  0.7026 -1.3108
  123OSM   H16T13094   4.737   4.047   8.004 -1.3030 -0.5471 -2.5351
  123OSM   C17S13095   4.698   4.236   8.087  0.0866  0.2644  0.4249
  123OSM   H17S13096   4.590   4.240   8.063  0.8102  0.4264 -3.5355
  123OSM   H17T13097   4.743   4.338   8.079 -0.9148  0.6549 -0.4236
  123OSM   C18S13098   4.723   4.174   8.221  0.3399  0.9104 -0.4216
  123OSM   H18S13099   4.644   4.096   8.230  1.6730 -0.5809 -1.1837
  123OSM   H18T13100   4.719   4.248   8.304 -2.5852  0.7456 -0.3077
  123OSM   H18U13101   4.824   4.129   8.218 -0.6794 -1.5016 -1.2091
  123OSM    C1F13102   4.483   4.484   6.609  0.1780  0.6238  0.1092
  123OSM     OF13103   4.394   4.491   6.529 -0.3110  0.1947  0.4675
  123OSM    C2F13104   4.479   4.556   6.742  0.4479  0.1586  0.0186
  123OSM    H2F13105   4.520   4.658   6.730  0.4318  0.3839  1.6045
  123OSM    H2G13106   4.546   4.498   6.809  0.3479 -0.7590 -0.6435
  123OSM    C3F13107   4.341   4.570   6.802 -0.2080 -0.0504 -0.2941
  123OSM    H3F13108   4.281   4.476   6.795 -1.5976  0.7259  0.5495
  123OSM    H3G13109   4.283   4.651   6.753 -0.3023  0.1728  0.1788
  123OSM    C4F13110   4.346   4.628   6.949  0.5196 -0.4190 -0.4099
  123OSM    H4F13111   4.255   4.688   6.972  1.1155 -0.2149  1.6024
  123OSM    H4G13112   4.438   4.689   6.953  0.2930 -0.1006  0.1263
  123OSM    C5F13113   4.363   4.513   7.052  0.3443 -0.2536  0.1508
  123OSM    H5F13114   4.445   4.443   7.024 -0.0438 -1.4903  1.9095
  123OSM    H5G13115   4.269   4.455   7.054 -0.6477  1.3097  0.5780
  123OSM    C6F13116   4.383   4.572   7.195  0.7806 -0.1705  0.0928
  123OSM    H6F13117   4.285   4.623   7.206 -1.3490 -3.5133 -1.6873
  123OSM    H6G13118   4.463   4.648   7.199 -0.2038  0.9512 -0.7824
  123OSM    C7F13119   4.385   4.467   7.301 -0.5517  0.2145  0.5765
  123OSM    H7F13120   4.475   4.403   7.295 -1.1081 -0.5537  0.1301
  123OSM    H7G13121   4.305   4.397   7.269 -1.3678  1.8399 -1.1596
  123OSM    C8F13122   4.362   4.526   7.439 -0.1287 -0.1574 -0.4875
  123OSM    H8F13123   4.335   4.449   7.515  1.1329  1.7233  2.0375
  123OSM    H8G13124   4.272   4.589   7.428 -1.4100 -1.6420  0.9381
  123OSM    C9F13125   4.480   4.610   7.493  0.5088  0.2145  0.3541
  123OSM    H9F13126   4.525   4.683   7.423  0.3272  0.6040  0.6395
  123OSM   C10F13127   4.538   4.598   7.611 -0.3170  0.4127  0.1287
  123OSM   H10F13128   4.622   4.664   7.639  0.0518 -0.4894  1.2056
  123OSM   C11F13129   4.494   4.511   7.721  0.2464  1.2578  0.4282
  123OSM   H11F13130   4.541   4.410   7.712 -0.4209  1.1133 -2.2369
  123OSM   H11G13131   4.390   4.474   7.717  1.7972 -4.1999  2.0331
  123OSM   C12F13132   4.510   4.577   7.853  0.0874 -0.6009 -0.2125
  123OSM   H12F13133   4.460   4.524   7.937  2.0431 -2.0578  0.0846
  123OSM   H12G13134   4.453   4.673   7.857 -1.1532 -1.3454  0.7341
  123OSM   C13F13135   4.657   4.592   7.909 -0.1902 -0.2735 -0.2523
  123OSM   H13F13136   4.693   4.683   7.856  0.8821 -0.7806 -0.4425
  123OSM   H13G13137   4.723   4.506   7.882 -1.5951 -0.6388 -2.7516
  123OSM   C14F13138   4.661   4.622   8.064  0.4762 -0.2592  0.6619
  123OSM   H14F13139   4.766   4.635   8.098  0.7283 -1.7165  0.4981
  123OSM   H14G13140   4.615   4.539   8.124 -0.2013  2.2301  3.8965
  123OSM   C15F13141   4.577   4.747   8.101 -0.0291 -0.2451 -0.3481
  123OSM   H15F13142   4.469   4.722   8.089 -0.2642  1.1392 -1.3753
  123OSM   H15G13143   4.606   4.827   8.030  2.3529 -0.1258  0.6710
  123OSM   C16F13144   4.612   4.793   8.245 -0.7337  0.3996  0.4121
  123OSM   H16F13145   4.546   4.877   8.275  1.0773  1.6440  1.0534
  123OSM   H16G13146   4.719   4.821   8.253 -0.4162 -0.7139  0.2037
  123OSM   C17F13147   4.583   4.681   8.345  0.0206 -0.8553  0.1944
  123OSM   H17F13148   4.639   4.587   8.325 -0.3027 -0.5794 -2.3555
  123OSM   H17G13149   4.473   4.664   8.340 -0.5923  2.0361  1.5272
  123OSM   C18F13150   4.612   4.734   8.487  0.5280 -0.0563 -0.5461
  123OSM   H18F13151   4.721   4.737   8.506  0.6480  0.9687 -1.3176
  123OSM   H18G13152   4.573   4.668   8.568 -0.8410  2.3194  0.8607
  123OSM   H18H13153   4.563   4.834   8.494 -1.5856 -0.8706 -2.5461
  124OSM      N13154   0.827   1.696   6.147 -0.0173 -0.3231  0.1403
  124OSM    C1513155   0.858   1.576   6.066  0.6564  0.9115  0.2992
  124OSM   H15A13156   0.900   1.601   5.970 -1.6028 -0.9375 -1.2617
  124OSM   H15B13157   0.786   1.496   6.062  3.9180 -2.2618 -0.8600
  124OSM   H15C13158   0.940   1.528   6.119  0.2156  0.8114  0.9018
  124OSM    C1413159   0.823   1.664   6.294 -0.1348 -0.0023 -0.7641
  124OSM   H14A13160   0.766   1.572   6.293  0.6991 -0.5344 -2.1195
  124OSM   H14B13161   0.777   1.742   6.352 -2.3268 -0.2694 -2.0145
  124OSM   H14C13162   0.919   1.652   6.343  0.4206  2.3224 -1.1924
  124OSM    C1313163   0.940   1.789   6.126 -0.1990 -0.2416  0.3675
  124OSM   H13A13164   1.036   1.754   6.161 -0.3194  0.0027  0.9515
  124OSM   H13B13165   0.936   1.876   6.189  0.0969 -0.3333  0.5099
  124OSM   H13C13166   0.960   1.823   6.025 -0.3840  1.3957  0.8580
  124OSM    C1213167   0.692   1.744   6.100 -0.7188  0.4687  0.1215
  124OSM   H12A13168   0.608   1.687   6.135  0.2935 -1.2663 -0.1419
  124OSM   H12B13169   0.684   1.724   5.994  2.6354  0.8014 -0.2945
  124OSM    C1113170   0.657   1.890   6.118  0.2631 -0.6951  0.3162
  124OSM   H11A13171   0.573   1.933   6.059  0.5318 -0.2458  0.2540
  124OSM   H11B13172   0.743   1.953   6.088  0.2438 -0.7984  0.0420
  124OSM      P13173   0.497   1.860   6.326 -0.6468 -0.2884  0.0477
  124OSM    O1313174   0.398   1.969   6.308 -0.2496 -0.0167 -0.3203
  124OSM    O1413175   0.460   1.723   6.288  0.2889  0.3515 -0.2481
  124OSM    O1113176   0.544   1.855   6.476  0.3241 -1.0585  0.0528
  124OSM    O1213177   0.633   1.905   6.260 -0.2223 -0.2416 -0.6186
  124OSM    C1S13178   0.592   1.979   6.539 -0.1360  0.0291 -0.2686
  124OSM    H1S13179   0.516   2.061   6.544  0.6295  0.7274  0.0422
  124OSM    H1T13180   0.671   2.027   6.477 -0.1601  0.4689  0.0382
  124OSM     NF13181   0.641   2.069   6.767  0.3871 -0.5552 -0.0340
  124OSM    HNF13182   0.721   2.129   6.769 -1.4256  2.0623  2.6057
  124OSM    C2S13183   0.639   1.955   6.683 -0.2499  0.9893 -0.7471
  124OSM    H2S13184   0.559   1.891   6.727  0.8166 -1.2245 -1.9021
  124OSM    C3S13185   0.780   1.883   6.682 -0.9695  0.0713  0.0555
  124OSM    H3S13186   0.847   1.961   6.640  1.1265 -2.2618 -1.2106
  124OSM     O313187   0.792   1.760   6.602  0.0427 -0.4262  0.6404
  124OSM    HO313188   0.698   1.745   6.591  0.1122  0.6825 -2.3393
  124OSM    C4S13189   0.820   1.849   6.820 -0.3829  0.6065  0.5861
  124OSM    H4S13190   0.744   1.797   6.879 -0.4703 -0.3077 -0.2981
  124OSM    C5S13191   0.935   1.882   6.875 -0.3760 -0.6569  0.3076
  124OSM    H5S13192   1.015   1.936   6.821  0.6213 -2.5123 -0.1621
  124OSM    C6S13193   0.965   1.861   7.021  0.1359 -0.1039  0.8572
  124OSM    H6S13194   1.072   1.833   7.027  0.6473  0.9021 -2.0473
  124OSM    H6T13195   0.902   1.778   7.061 -0.6221 -1.0138 -1.9835
  124OSM    C7S13196   0.932   1.983   7.101  0.9310 -0.5077 -0.7961
  124OSM    H7S13197   0.823   2.002   7.109  1.0895  0.1258  0.1024
  124OSM    H7T13198   0.987   2.068   7.053 -1.4268 -0.1148 -3.0530
  124OSM    C8S13199   0.971   1.963   7.250  0.2834 -0.6865  0.4363
  124OSM    H8S13200   1.074   1.922   7.255 -0.3351 -2.7911 -1.8784
  124OSM    H8T13201   0.895   1.901   7.302  1.0772 -2.5478 -0.5188
  124OSM    C9S13202   0.957   2.093   7.332  0.4213 -0.4063 -0.9231
  124OSM    H9S13203   0.855   2.137   7.325  1.8299  2.9603 -2.1957
  124OSM    H9T13204   1.022   2.172   7.290 -0.6519  0.5460 -0.8503
  124OSM   C10S13205   0.999   2.073   7.478 -0.1408  0.3093 -0.0089
  124OSM   H10S13206   1.099   2.027   7.486 -0.8016 -0.9209  1.9944
  124OSM   H10T13207   0.929   2.012   7.538  1.7862 -0.3974  1.6054
  124OSM   C11S13208   0.981   2.196   7.579  0.2763 -0.5424  0.0228
  124OSM   H11S13209   0.876   2.230   7.570  0.1709 -0.0787  2.3831
  124OSM   H11T13210   1.039   2.283   7.541 -1.0216  0.1835 -0.3575
  124OSM   C12S13211   1.011   2.161   7.727  0.2012  0.0959  0.3779
  124OSM   H12S13212   1.118   2.174   7.753  0.4164  0.0031 -0.4271
  124OSM   H12T13213   0.985   2.055   7.751 -0.1248  0.2518  0.7260
  124OSM   C13S13214   0.924   2.239   7.828  0.2216  0.4045  0.0647
  124OSM   H13S13215   0.816   2.219   7.836  0.3794 -0.4581  0.1428
  124OSM   H13T13216   0.937   2.349   7.827 -1.8978  0.6842  0.4800
  124OSM   C14S13217   0.962   2.195   7.975  0.5031 -0.1587  0.5750
  124OSM   H14S13218   1.071   2.213   7.980  0.3314  0.4328  3.4445
  124OSM   H14T13219   0.950   2.084   7.975  1.8999 -0.3334  1.4523
  124OSM   C15S13220   0.884   2.265   8.076 -0.1046 -0.5666  0.1821
  124OSM   H15S13221   0.775   2.247   8.058 -0.1666 -0.2001  0.1814
  124OSM   H15T13222   0.896   2.375   8.069 -3.1998 -0.2153 -2.7727
  124OSM   C16S13223   0.921   2.227   8.219 -0.0547  0.2504  0.0736
  124OSM   H16S13224   1.011   2.282   8.253  1.3761 -2.3871  0.7708
  124OSM   H16T13225   0.947   2.119   8.215  1.4226  0.5938  0.0025
  124OSM   C17S13226   0.813   2.253   8.321  0.4283 -0.4335 -0.1843
  124OSM   H17S13227   0.733   2.189   8.279  1.1207 -0.5579 -1.3643
  124OSM   H17T13228   0.760   2.351   8.323  0.7477 -0.1965 -1.8805
  124OSM   C18S13229   0.839   2.209   8.463 -0.3020  0.6726 -0.1890
  124OSM   H18S13230   0.874   2.104   8.467 -1.6446  0.2480  1.6430
  124OSM   H18T13231   0.737   2.217   8.507 -1.4549  0.1481 -2.5752
  124OSM   H18U13232   0.912   2.273   8.517 -1.2687 -1.0406  3.4476
  124OSM    C1F13233   0.533   2.119   6.827  0.4592  0.3559 -0.0741
  124OSM     OF13234   0.416   2.086   6.796  0.0079 -0.0548 -0.1083
  124OSM    C2F13235   0.546   2.234   6.929 -0.1050  0.6121  0.1036
  124OSM    H2F13236   0.507   2.208   7.030  0.4022  1.3487  0.4968
  124OSM    H2G13237   0.495   2.323   6.886 -0.2851 -0.6469 -2.4347
  124OSM    C3F13238   0.692   2.268   6.956 -0.4589  0.3418  0.4936
  124OSM    H3F13239   0.747   2.302   6.866  0.3558 -0.5591  0.6322
  124OSM    H3G13240   0.734   2.170   6.988 -0.1041  0.8166  1.4941
  124OSM    C4F13241   0.723   2.359   7.080  0.4786 -0.4748  0.5320
  124OSM    H4F13242   0.689   2.309   7.173 -1.7565  0.2771  0.1957
  124OSM    H4G13243   0.666   2.455   7.076  1.2711  0.0055  0.4841
  124OSM    C5F13244   0.872   2.400   7.094 -0.3939 -0.7493  0.0600
  124OSM    H5F13245   0.900   2.469   7.011 -0.3602 -2.4366 -1.3865
  124OSM    H5G13246   0.929   2.307   7.075 -0.9516 -1.2454  0.7957
  124OSM    C6F13247   0.894   2.468   7.235 -0.0988  0.2948 -0.5560
  124OSM    H6F13248   1.005   2.478   7.231  0.2283 -2.0609  0.8899
  124OSM    H6G13249   0.871   2.398   7.318  3.9618 -0.8101 -0.1495
  124OSM    C7F13250   0.819   2.602   7.252 -0.5999  0.0206 -0.2933
  124OSM    H7F13251   0.709   2.587   7.252 -0.5529 -0.3837 -1.3011
  124OSM    H7G13252   0.848   2.670   7.169  0.5532  0.6204  0.5780
  124OSM    C8F13253   0.866   2.674   7.381  0.5925  0.2782 -0.0388
  124OSM    H8F13254   0.825   2.777   7.378 -3.0093 -1.0133 -1.3714
  124OSM    H8G13255   0.975   2.686   7.367  0.3915  1.5986 -0.6428
  124OSM    C9F13256   0.859   2.601   7.515  0.7027  0.4268  0.7685
  124OSM    H9F13257   0.942   2.533   7.538  0.5488 -0.1675 -0.3359
  124OSM   C10F13258   0.766   2.625   7.609 -0.2781 -0.4634  0.3820
  124OSM   H10F13259   0.768   2.557   7.696 -0.3775 -1.2172 -0.1952
  124OSM   C11F13260   0.646   2.709   7.593  0.4179  0.0503 -0.4172
  124OSM   H11F13261   0.563   2.656   7.645  0.9949  0.3047  0.8042
  124OSM   H11G13262   0.614   2.715   7.487  0.6600  0.6356 -0.4607
  124OSM   C12F13263   0.640   2.856   7.667  0.0533  1.0030  0.3564
  124OSM   H12F13264   0.547   2.908   7.636  0.3090  0.6483 -1.0808
  124OSM   H12G13265   0.725   2.910   7.621  1.7929 -2.4496 -0.7862
  124OSM   C13F13266   0.666   2.854   7.822 -0.4335 -0.0076 -0.0683
  124OSM   H13F13267   0.663   2.960   7.854 -2.1267 -0.1655  0.4050
  124OSM   H13G13268   0.768   2.816   7.846 -0.8402 -1.5039 -0.6037
  124OSM   C14F13269   0.562   2.769   7.894 -0.3419  0.4194 -0.4191
  124OSM   H14F13270   0.491   2.725   7.821 -1.1659  1.2980 -0.1537
  124OSM   H14G13271   0.497   2.830   7.960  1.1773  0.1385  1.4237
  124OSM   C15F13272   0.629   2.659   7.982  0.2628  0.0849 -0.2263
  124OSM   H15F13273   0.692   2.589   7.923  0.6808 -0.5541  0.9514
  124OSM   H15G13274   0.550   2.590   8.018  0.1918 -1.1372 -2.5308
  124OSM   C16F13275   0.687   2.710   8.118 -0.0170  0.1123  0.0410
  124OSM   H16F13276   0.760   2.789   8.089  0.9358 -0.5171  0.6412
  124OSM   H16G13277   0.730   2.623   8.172 -2.4729  0.0050  1.9666
  124OSM   C17F13278   0.582   2.771   8.206 -0.2886  0.3344  0.4751
  124OSM   H17F13279   0.497   2.701   8.220  1.0937 -1.3409  1.0383
  124OSM   H17G13280   0.549   2.852   8.139 -1.1377 -1.3087 -1.1769
  124OSM   C18F13281   0.644   2.823   8.332  0.6377 -0.5900  0.3789
  124OSM   H18F13282   0.698   2.919   8.318 -0.1024 -0.2072  0.0926
  124OSM   H18G13283   0.719   2.747   8.363  3.1574  0.3748 -2.7203
  124OSM   H18H13284   0.562   2.844   8.403 -0.3721  1.4577 -1.2729
  125OSM      N13285   6.591   2.372   6.301 -0.5024  0.4984  0.1634
  125OSM    C1513286   6.574   2.281   6.190 -0.0514 -0.3154  0.3797
  125OSM   H15A13287   6.648   2.302   6.114 -0.8050  1.2137  0.0186
  125OSM   H15B13288   6.479   2.295   6.140  0.8304  0.8982 -1.0510
  125OSM   H15C13289   6.573   2.179   6.226 -3.6848  0.3273  2.6480
  125OSM    C1413290   6.564   2.510   6.253 -0.0470 -0.2351  0.2917
  125OSM   H14A13291   6.610   2.570   6.330  1.4470  0.1451 -0.8447
  125OSM   H14B13292   6.459   2.530   6.240  0.2205  1.8187  0.9397
  125OSM   H14C13293   6.598   2.537   6.154 -1.1014  0.8140  0.1967
  125OSM    C1313294   6.488   2.317   6.387  0.0294 -0.8823 -0.1662
  125OSM   H13A13295   6.390   2.321   6.341 -0.2742 -1.3995  0.4257
  125OSM   H13B13296   6.486   2.373   6.479  2.4503 -1.7509  0.4924
  125OSM   H13C13297   6.496   2.211   6.406 -3.5734 -1.2440  0.0266
  125OSM    C1213298   6.737   2.354   6.354  0.7786 -0.3428 -0.5381
  125OSM   H12A13299   6.810   2.380   6.279  1.6002  0.4373  0.4923
  125OSM   H12B13300   6.740   2.252   6.390 -2.9914 -0.3872 -0.0016
  125OSM    C1113301   6.772   2.461   6.462  0.2554  0.8205 -0.5843
  125OSM   H11A13302   6.858   2.408   6.510 -0.8332 -1.3648 -0.8927
  125OSM   H11B13303   6.688   2.453   6.534  1.1508 -0.4493  0.3790
  125OSM      P13304   6.909   2.636   6.315  0.4213 -0.0795 -0.2866
  125OSM    O1313305   7.041   2.594   6.367 -0.4840 -0.0534  0.3291
  125OSM    O1413306   6.872   2.596   6.179 -0.0075 -0.2026  0.2468
  125OSM    O1113307   6.911   2.797   6.310 -0.1953 -0.1884  0.0820
  125OSM    O1213308   6.793   2.596   6.418 -0.1729 -0.4833  0.0789
  125OSM    C1S13309   6.864   2.869   6.430 -0.0550 -0.5973 -0.6650
  125OSM    H1S13310   6.762   2.840   6.463 -1.0626  2.8902 -0.2850
  125OSM    H1T13311   6.848   2.978   6.414 -0.0181 -0.5854 -0.6205
  125OSM     NF13312   6.894   2.911   6.669 -0.2498 -0.5172  0.1416
  125OSM    HNF13313   6.889   3.010   6.673 -0.8845 -0.5860  1.4071
  125OSM    C2S13314   6.964   2.861   6.549  0.2495 -0.2684  1.4072
  125OSM    H2S13315   6.990   2.754   6.560 -3.0392 -1.6564 -2.0427
  125OSM    C3S13316   7.095   2.939   6.514 -0.5878 -0.6721  0.0217
  125OSM    H3S13317   7.063   3.045   6.520 -0.1158 -0.5693  0.7938
  125OSM     O313318   7.152   2.907   6.387 -0.5336  0.7608  0.0282
  125OSM    HO313319   7.085   2.863   6.334 -0.0201 -0.7034  0.5498
  125OSM    C4S13320   7.186   2.917   6.625 -0.3033  0.0157  0.4737
  125OSM    H4S13321   7.208   2.809   6.636  1.4088 -0.1321 -2.9958
  125OSM    C5S13322   7.244   3.013   6.699  0.6424 -0.2112 -0.2271
  125OSM    H5S13323   7.224   3.119   6.675  1.9077 -0.0757 -0.7937
  125OSM    C6S13324   7.332   2.980   6.812 -0.2092 -0.1921  0.1057
  125OSM    H6S13325   7.305   3.045   6.898  1.8271  0.8575  0.0125
  125OSM    H6T13326   7.436   3.015   6.790 -0.6342  2.6134  1.9272
  125OSM    C7S13327   7.340   2.835   6.863  0.2146  0.0991 -0.1516
  125OSM    H7S13328   7.394   2.840   6.960 -1.8290 -1.9696  1.1911
  125OSM    H7T13329   7.392   2.770   6.790 -0.9360 -0.9449 -0.0701
  125OSM    C8S13330   7.207   2.765   6.902  0.1383  0.1978 -0.0106
  125OSM    H8S13331   7.175   2.691   6.826  3.5146 -2.3599  0.8152
  125OSM    H8T13332   7.137   2.848   6.925  1.0733  1.1539 -0.4853
  125OSM    C9S13333   7.239   2.682   7.033  0.5264  0.0866 -0.2604
  125OSM    H9S13334   7.260   2.748   7.120  1.4268 -1.0996  0.4634
  125OSM    H9T13335   7.324   2.617   7.003  0.9658 -0.2902  1.6714
  125OSM   C10S13336   7.112   2.601   7.071  0.3797 -0.6343  0.1823
  125OSM   H10S13337   7.095   2.526   6.991 -1.2342  1.3368 -1.4230
  125OSM   H10T13338   7.027   2.670   7.055  0.7868 -0.2124 -0.1534
  125OSM   C11S13339   7.117   2.537   7.211  0.7305  0.1914  0.6069
  125OSM   H11S13340   7.215   2.486   7.220  1.1504  0.0410 -3.0842
  125OSM   H11T13341   7.046   2.451   7.215  3.0689 -1.8348  0.6058
  125OSM   C12S13342   7.102   2.641   7.320  0.0743 -0.1586  0.9007
  125OSM   H12S13343   7.007   2.696   7.304 -0.8063 -1.7673  0.3704
  125OSM   H12T13344   7.190   2.710   7.318  2.3821 -2.9094  0.6849
  125OSM   C13S13345   7.085   2.584   7.459  0.3411 -0.2445 -0.7607
  125OSM   H13S13346   7.188   2.566   7.496  0.3021  2.4241  0.8726
  125OSM   H13T13347   7.032   2.486   7.450  0.7462 -0.4963 -0.4307
  125OSM   C14S13348   6.993   2.658   7.558  0.6951  0.1315  0.4209
  125OSM   H14S13349   6.888   2.657   7.522  0.1597  1.7098  1.8252
  125OSM   H14T13350   7.046   2.755   7.564 -0.6558  1.0557 -1.3591
  125OSM   C15S13351   6.992   2.588   7.694  0.0823 -0.3995  0.8059
  125OSM   H15S13352   7.099   2.567   7.720  0.3396  0.7626  0.7109
  125OSM   H15T13353   6.953   2.485   7.679  1.7248 -1.2026  1.6893
  125OSM   C16S13354   6.937   2.670   7.809 -0.7410 -0.6542  0.5247
  125OSM   H16S13355   6.850   2.725   7.767 -0.2673  0.3580  0.8171
  125OSM   H16T13356   7.015   2.747   7.830  0.0698 -1.4811  0.5984
  125OSM   C17S13357   6.899   2.592   7.933 -0.2553 -0.5944 -0.3579
  125OSM   H17S13358   6.989   2.559   7.987  0.0105  2.3785  1.2559
  125OSM   H17T13359   6.827   2.516   7.895  0.0186  0.1837 -2.6152
  125OSM   C18S13360   6.826   2.672   8.037 -0.1103  0.0741  0.3323
  125OSM   H18S13361   6.760   2.611   8.102 -0.6081  0.4474  0.1832
  125OSM   H18T13362   6.763   2.753   7.994  0.9621  0.7906  0.0605
  125OSM   H18U13363   6.907   2.707   8.105 -0.4798 -1.6116  1.7158
  125OSM    C1F13364   6.809   2.830   6.736  0.6127 -0.5975 -0.2132
  125OSM     OF13365   6.797   2.716   6.699 -0.3169 -0.6230  0.3628
  125OSM    C2F13366   6.725   2.890   6.849  0.0971 -0.7049  0.7967
  125OSM    H2F13367   6.617   2.869   6.830  0.1105 -0.7126  0.7292
  125OSM    H2G13368   6.748   2.998   6.843  1.8896 -1.1617 -2.1090
  125OSM    C3F13369   6.758   2.830   6.990  0.5114  0.6736 -0.9351
  125OSM    H3F13370   6.866   2.843   7.009  0.2825  1.7319 -0.2136
  125OSM    H3G13371   6.726   2.724   6.997 -3.3972  1.6525 -1.5583
  125OSM    C4F13372   6.674   2.890   7.093  0.2716 -0.4126  0.0664
  125OSM    H4F13373   6.566   2.883   7.070 -0.1215 -0.8945  1.8597
  125OSM    H4G13374   6.703   2.997   7.103 -0.8112 -0.0082 -0.9320
  125OSM    C5F13375   6.708   2.830   7.231 -0.1830  0.3279 -0.6128
  125OSM    H5F13376   6.810   2.863   7.260 -0.6305  0.2036  1.2255
  125OSM    H5G13377   6.715   2.719   7.225 -0.8493  0.1010  1.7754
  125OSM    C6F13378   6.620   2.871   7.348 -0.1759  0.1245  0.7137
  125OSM    H6F13379   6.513   2.841   7.337 -0.4786  0.8471  1.5046
  125OSM    H6G13380   6.618   2.982   7.361  2.9525  0.1023  2.1664
  125OSM    C7F13381   6.671   2.815   7.479 -0.0536 -0.2690  0.3084
  125OSM    H7F13382   6.774   2.856   7.481 -0.9877  2.3005  0.1752
  125OSM    H7G13383   6.677   2.704   7.476 -0.6461 -0.3460  1.6087
  125OSM    C8F13384   6.591   2.863   7.599  0.4198 -0.0326 -0.1486
  125OSM    H8F13385   6.583   2.974   7.594  1.4243  0.0627  0.0247
  125OSM    H8G13386   6.652   2.840   7.690  0.5051 -0.6498 -0.3620
  125OSM    C9F13387   6.452   2.811   7.613 -0.1530 -0.3747  0.2490
  125OSM    H9F13388   6.368   2.854   7.556 -0.9683 -0.0728  1.6122
  125OSM   C10F13389   6.420   2.694   7.676  0.4942  0.4109  0.4022
  125OSM   H10F13390   6.314   2.663   7.682  1.2344 -2.7055 -0.5359
  125OSM   C11F13391   6.520   2.611   7.742 -0.5213  0.0898 -0.4812
  125OSM   H11F13392   6.557   2.652   7.838 -0.4717  0.9133 -0.8423
  125OSM   H11G13393   6.608   2.596   7.676 -0.2163 -1.0364  0.1501
  125OSM   C12F13394   6.472   2.475   7.788 -0.0219  0.2987  0.1719
  125OSM   H12F13395   6.558   2.428   7.839 -0.1605  0.0741  0.1980
  125OSM   H12G13396   6.457   2.408   7.700  1.4138  1.3995 -0.9699
  125OSM   C13F13397   6.359   2.475   7.891  1.0903  0.2115  0.5983
  125OSM   H13F13398   6.336   2.369   7.916  1.1655 -0.0863 -0.5308
  125OSM   H13G13399   6.259   2.499   7.850  0.0471 -1.4043  2.0310
  125OSM   C14F13400   6.391   2.539   8.026  0.3778  0.0177  0.6797
  125OSM   H14F13401   6.414   2.644   7.999 -0.1641  0.0634  0.3908
  125OSM   H14G13402   6.489   2.498   8.058  0.5510 -1.9732 -2.0460
  125OSM   C15F13403   6.274   2.531   8.132 -0.3642  0.2228  0.2987
  125OSM   H15F13404   6.275   2.425   8.166  0.4623  0.0027 -0.3748
  125OSM   H15G13405   6.178   2.543   8.077 -0.1720  1.5027  0.2223
  125OSM   C16F13406   6.285   2.627   8.250 -0.8835 -0.6947  0.4027
  125OSM   H16F13407   6.197   2.618   8.318 -0.1846 -0.4518  1.3651
  125OSM   H16G13408   6.302   2.735   8.229 -0.6776 -0.6385  0.8420
  125OSM   C17F13409   6.399   2.590   8.353  0.1472 -0.5404  0.3962
  125OSM   H17F13410   6.490   2.620   8.298 -0.1534 -1.0137 -0.3796
  125OSM   H17G13411   6.411   2.480   8.367 -0.2714 -0.6803 -0.2978
  125OSM   C18F13412   6.381   2.665   8.482  0.0705  0.0858  0.0469
  125OSM   H18F13413   6.462   2.641   8.555 -1.8994 -1.5163  1.8184
  125OSM   H18G13414   6.290   2.645   8.542  1.7457 -0.2565  2.6455
  125OSM   H18H13415   6.380   2.772   8.450 -2.4733  1.0012  2.7300
  126OSM      N13416   4.205   3.127   6.531  0.0966 -0.0325  0.0762
  126OSM    C1513417   4.066   3.122   6.590  0.1074  0.4488 -0.6011
  126OSM   H15A13418   3.993   3.051   6.554 -0.5356  0.9549 -0.3167
  126OSM   H15B13419   4.018   3.219   6.586  0.3421  0.7056  1.6784
  126OSM   H15C13420   4.081   3.093   6.693 -0.8224 -2.7684 -1.2798
  126OSM    C1413421   4.202   3.187   6.393 -0.5242  0.3292  0.6192
  126OSM   H14A13422   4.134   3.127   6.335  0.4809 -0.8084  0.5840
  126OSM   H14B13423   4.294   3.184   6.338 -1.1892  2.0426 -0.6584
  126OSM   H14C13424   4.166   3.289   6.393  0.3760  0.7362 -2.5310
  126OSM    C1313425   4.282   3.223   6.622  0.2791 -0.7129  0.3228
  126OSM   H13A13426   4.226   3.312   6.648 -0.9473 -1.1819 -0.6642
  126OSM   H13B13427   4.370   3.257   6.569 -1.3203  3.3578 -0.1044
  126OSM   H13C13428   4.307   3.168   6.712 -2.2651 -1.9621  0.3296
  126OSM    C1213429   4.271   2.986   6.516  0.2082 -0.1915 -0.2505
  126OSM   H12A13430   4.367   2.996   6.468  0.2362 -1.9709 -0.6439
  126OSM   H12B13431   4.205   2.924   6.456 -0.1298  0.5403 -0.6466
  126OSM    C1113432   4.298   2.921   6.654  0.0828 -0.1883 -0.1615
  126OSM   H11A13433   4.193   2.900   6.684  0.1660  1.3693  1.4190
  126OSM   H11B13434   4.356   2.987   6.723  2.0563  1.8269 -3.4318
  126OSM      P13435   4.530   2.810   6.577 -0.1232 -0.2852  0.1527
  126OSM    O1313436   4.553   2.690   6.495  1.0215  0.5121  0.5184
  126OSM    O1413437   4.549   2.937   6.502 -0.5171  0.2409  0.6008
  126OSM    O1113438   4.621   2.811   6.708  0.0576 -0.3230 -0.2735
  126OSM    O1213439   4.374   2.805   6.623  0.0889  0.6680 -0.0883
  126OSM    C1S13440   4.564   2.731   6.818 -0.0601  0.1687 -0.0062
  126OSM    H1S13441   4.557   2.621   6.802 -0.6189 -0.0808  1.7994
  126OSM    H1T13442   4.467   2.778   6.846 -1.3513  0.4691 -4.2168
  126OSM     NF13443   4.599   2.656   7.052 -0.0107 -0.3900  0.1103
  126OSM    HNF13444   4.577   2.704   7.137  0.8176 -2.1788  1.3891
  126OSM    C2S13445   4.640   2.750   6.950  0.9344 -0.3433 -0.0407
  126OSM    H2S13446   4.749   2.745   6.928  1.2508  3.0283  0.1240
  126OSM    C3S13447   4.639   2.896   6.994  0.5064  0.3802 -0.5077
  126OSM    H3S13448   4.535   2.914   7.028 -0.3470 -4.6098  0.1829
  126OSM     O313449   4.666   2.991   6.894 -0.2936 -0.4992  0.0622
  126OSM    HO313450   4.652   2.937   6.816  4.5587 -0.7100 -1.0027
  126OSM    C4S13451   4.741   2.912   7.110  0.3176  0.0583 -0.6253
  126OSM    H4S13452   4.692   2.906   7.209 -0.0684 -1.5465 -0.8805
  126OSM    C5S13453   4.871   2.911   7.096  0.0572 -0.1764 -0.0040
  126OSM    H5S13454   4.913   2.914   6.995 -0.4940  0.8256 -0.2262
  126OSM    C6S13455   4.970   2.916   7.207 -0.2049 -0.0962 -0.0251
  126OSM    H6S13456   5.073   2.891   7.175  0.5535  0.7214  1.6253
  126OSM    H6T13457   4.947   2.845   7.289  0.4100 -0.1069  0.1362
  126OSM    C7S13458   4.959   3.057   7.278 -0.6905  0.6304  0.1198
  126OSM    H7S13459   4.855   3.081   7.308 -0.7302  0.4004  0.1651
  126OSM    H7T13460   4.985   3.132   7.201  0.4381 -0.1983 -0.3438
  126OSM    C8S13461   5.037   3.052   7.410 -0.2650  0.6728  0.1329
  126OSM    H8S13462   5.143   3.080   7.390 -0.1782 -0.5717 -1.2887
  126OSM    H8T13463   5.021   2.955   7.460 -1.0913  0.4501 -0.5295
  126OSM    C9S13464   4.972   3.149   7.515 -0.9893 -0.0875 -0.2965
  126OSM    H9S13465   4.872   3.109   7.543 -0.3517 -1.7963 -0.3672
  126OSM    H9T13466   4.963   3.254   7.478 -0.2150  0.5848  1.3268
  126OSM   C10S13467   5.058   3.136   7.637 -0.9082  0.3307 -0.4429
  126OSM   H10S13468   5.165   3.148   7.607  0.2944  0.8105  3.4989
  126OSM   H10T13469   5.052   3.035   7.683  2.4368 -1.1674 -2.8302
  126OSM   C11S13470   5.032   3.246   7.748 -0.2726  0.4049 -0.3478
  126OSM   H11S13471   4.922   3.239   7.759 -0.1708 -0.5581  0.1169
  126OSM   H11T13472   5.064   3.347   7.714  0.2313  1.2295  2.3767
  126OSM   C12S13473   5.094   3.212   7.883 -0.6543  0.1170 -0.1057
  126OSM   H12S13474   5.205   3.207   7.872 -0.5004  0.0763  1.3077
  126OSM   H12T13475   5.072   3.108   7.913  0.2777  0.2079  0.9828
  126OSM   C13S13476   5.059   3.320   7.987  0.0213 -0.4792 -0.3732
  126OSM   H13S13477   4.949   3.336   7.993  0.3059  1.2870  2.3860
  126OSM   H13T13478   5.098   3.418   7.953 -0.0459  0.9514  3.1541
  126OSM   C14S13479   5.110   3.307   8.126 -0.0579  0.1101  0.2558
  126OSM   H14S13480   5.220   3.296   8.124  0.0652  1.3187 -0.8769
  126OSM   H14T13481   5.073   3.213   8.171  2.6035 -1.9563 -1.6203
  126OSM   C15S13482   5.070   3.419   8.226 -0.1115  0.1571 -0.2588
  126OSM   H15S13483   4.960   3.413   8.210 -0.0738 -0.6943 -0.2675
  126OSM   H15T13484   5.104   3.522   8.204 -1.1406  1.4693  3.5675
  126OSM   C16S13485   5.088   3.382   8.368 -0.2059  0.2733 -0.2837
  126OSM   H16S13486   5.061   3.276   8.390  2.3446 -0.8648 -2.2187
  126OSM   H16T13487   5.009   3.432   8.429  0.9841 -0.2365  1.7713
  126OSM   C17S13488   5.232   3.398   8.412 -0.5604 -0.1355 -1.2216
  126OSM   H17S13489   5.262   3.505   8.410  1.8250 -0.7607 -1.9176
  126OSM   H17T13490   5.304   3.340   8.351 -0.4757 -2.9579  1.2801
  126OSM   C18S13491   5.267   3.358   8.556  0.5967 -0.1326  0.8794
  126OSM   H18S13492   5.191   3.395   8.628  0.0174  0.2733  0.0664
  126OSM   H18T13493   5.370   3.393   8.580  0.5817  0.0256  0.7093
  126OSM   H18U13494   5.265   3.247   8.552  2.0042 -0.2549  2.2369
  126OSM    C1F13495   4.600   2.521   7.051  0.0889 -0.8361 -0.5894
  126OSM     OF13496   4.650   2.463   6.956  0.3252  0.4763 -0.1952
  126OSM    C2F13497   4.538   2.449   7.168  0.1779  0.4043  0.6161
  126OSM    H2F13498   4.430   2.476   7.178  0.4162  0.6514  3.0659
  126OSM    H2G13499   4.601   2.479   7.255 -0.3407  3.1158  0.1479
  126OSM    C3F13500   4.553   2.300   7.146 -0.4184 -0.3274 -0.0975
  126OSM    H3F13501   4.654   2.260   7.121 -0.0986  1.1965 -1.4037
  126OSM    H3G13502   4.499   2.266   7.056  0.7418 -2.0383 -0.2066
  126OSM    C4F13503   4.493   2.229   7.263  0.1239  0.0568  0.6667
  126OSM    H4F13504   4.387   2.262   7.268  0.2142  0.7623 -1.0802
  126OSM    H4G13505   4.538   2.244   7.364  2.1519 -0.0253 -0.1796
  126OSM    C5F13506   4.458   2.081   7.241 -0.1867  0.0899 -0.2492
  126OSM    H5F13507   4.555   2.032   7.219 -0.8598  0.1101 -3.8879
  126OSM    H5G13508   4.394   2.062   7.152 -2.2794  0.0142  1.1962
  126OSM    C6F13509   4.391   2.016   7.363 -0.0541  0.4946 -0.5576
  126OSM    H6F13510   4.354   1.914   7.337  1.7648  0.3253 -2.7663
  126OSM    H6G13511   4.311   2.085   7.396 -0.2270 -0.2514  0.6662
  126OSM    C7F13512   4.490   1.986   7.480  0.7908  0.1522  0.7408
  126OSM    H7F13513   4.414   1.972   7.561 -0.9295  2.7286 -0.2684
  126OSM    H7G13514   4.545   2.077   7.512 -0.9005  1.3817  0.3242
  126OSM    C8F13515   4.561   1.858   7.449  0.4858  0.1430  0.3299
  126OSM    H8F13516   4.598   1.867   7.345  0.4920  0.5056  0.3633
  126OSM    H8G13517   4.479   1.783   7.445 -0.5522  1.2265  0.7552
  126OSM    C9F13518   4.678   1.830   7.535 -0.4209  0.3670 -0.5903
  126OSM    H9F13519   4.697   1.722   7.528 -0.3162  0.4886 -2.7394
  126OSM   C10F13520   4.757   1.898   7.617  0.2066 -0.3049 -0.4442
  126OSM   H10F13521   4.841   1.843   7.662 -0.0144  0.9406  1.6436
  126OSM   C11F13522   4.763   2.044   7.656 -0.2413  0.0429 -0.7768
  126OSM   H11F13523   4.752   2.118   7.574 -0.3842  1.9109  0.8503
  126OSM   H11G13524   4.862   2.069   7.699  0.1546  1.5984 -2.4520
  126OSM   C12F13525   4.649   2.077   7.763 -0.4351 -0.0691  0.5474
  126OSM   H12F13526   4.552   2.030   7.736  0.7095 -2.7709  0.7770
  126OSM   H12G13527   4.636   2.186   7.776  1.0360  0.0758  0.9500
  126OSM   C13F13528   4.672   2.015   7.902  0.2974 -0.6038 -0.4899
  126OSM   H13F13529   4.650   1.907   7.896 -0.3494 -0.5140  0.1712
  126OSM   H13G13530   4.604   2.055   7.980 -0.3129 -2.8212  0.1763
  126OSM   C14F13531   4.818   2.039   7.952  0.7757 -0.0456  0.4499
  126OSM   H14F13532   4.861   2.140   7.942  1.1200 -0.2469 -0.1547
  126OSM   H14G13533   4.891   1.967   7.909 -0.3141 -0.2774 -1.0624
  126OSM   C15F13534   4.820   2.005   8.110 -0.2736  0.3448 -0.0453
  126OSM   H15F13535   4.788   1.902   8.134  1.6180  0.0592  1.5118
  126OSM   H15G13536   4.743   2.078   8.145 -0.0298  1.2063 -1.2311
  126OSM   C16F13537   4.957   2.037   8.175  0.2120  0.3505 -0.5011
  126OSM   H16F13538   4.973   2.147   8.171  0.2233  0.3544 -0.3389
  126OSM   H16G13539   5.031   1.990   8.107  0.5240  0.2537 -0.0971
  126OSM   C17F13540   4.958   1.985   8.317  0.2980  0.3994  0.8299
  126OSM   H17F13541   5.061   1.991   8.359  1.0874  0.1247 -0.9618
  126OSM   H17G13542   4.949   1.875   8.302 -0.4353  0.4630  0.7807
  126OSM   C18F13543   4.852   2.038   8.419  0.0489 -0.6622  0.0789
  126OSM   H18F13544   4.888   2.139   8.447  1.2299 -0.8310 -0.7958
  126OSM   H18G13545   4.850   1.972   8.509 -1.1529  0.6324  1.0538
  126OSM   H18H13546   4.748   2.037   8.378 -0.2807 -1.1631  0.8935
  127OSM      N13547   5.656   6.655   6.050 -0.5743  0.1971  0.9354
  127OSM    C1513548   5.694   6.748   5.931 -0.5575  0.6580  0.2687
  127OSM   H15A13549   5.609   6.812   5.911 -0.2141  0.9726 -0.2194
  127OSM   H15B13550   5.729   6.694   5.844  1.9695 -0.1652  1.7081
  127OSM   H15C13551   5.774   6.816   5.957 -1.3520  1.7908 -0.1671
  127OSM    C1413552   5.555   6.566   5.996 -0.1957  0.1117  0.5968
  127OSM   H14A13553   5.602   6.487   5.938  0.9956  0.3986  1.1401
  127OSM   H14B13554   5.477   6.609   5.936  1.1431  2.1078  0.2127
  127OSM   H14C13555   5.512   6.509   6.077  1.9354 -1.6647  0.5936
  127OSM    C1313556   5.773   6.576   6.093 -0.9525  0.0480 -0.1778
  127OSM   H13A13557   5.846   6.645   6.134 -1.3091 -1.2932  3.0659
  127OSM   H13B13558   5.815   6.519   6.012 -0.6889 -2.6213  1.6934
  127OSM   H13C13559   5.745   6.497   6.161  2.3495 -2.2148 -1.2081
  127OSM    C1213560   5.607   6.737   6.166 -0.4631  0.1145  1.5270
  127OSM   H12A13561   5.629   6.674   6.251  1.1879 -1.8114 -0.2284
  127OSM   H12B13562   5.500   6.746   6.153 -0.1317  0.5510 -2.0865
  127OSM    C1113563   5.646   6.887   6.176  0.2588  0.0884 -0.4506
  127OSM   H11A13564   5.635   6.923   6.281  1.3107  1.1912 -0.6925
  127OSM   H11B13565   5.589   6.942   6.098  1.4332  1.3089 -0.4905
  127OSM      P13566   5.912   6.879   6.228  0.0397 -0.3579 -0.0913
  127OSM    O1313567   6.019   6.814   6.148 -0.8249  0.0795 -0.4042
  127OSM    O1413568   5.949   7.011   6.282  0.5496 -0.2615 -0.5027
  127OSM    O1113569   5.863   6.783   6.354 -0.4592  0.0093 -0.1805
  127OSM    O1213570   5.780   6.895   6.138 -0.4129  0.4090 -0.3152
  127OSM    C1S13571   5.937   6.794   6.474 -0.3683  0.4320  0.8213
  127OSM    H1S13572   5.933   6.901   6.504 -0.4237  0.5051  0.5599
  127OSM    H1T13573   6.040   6.764   6.446 -1.2446 -0.7446 -1.4101
  127OSM     NF13574   5.949   6.745   6.713 -0.2917  0.7719 -0.4524
  127OSM    HNF13575   6.018   6.696   6.766 -2.8869 -2.0212  0.6843
  127OSM    C2S13576   5.889   6.697   6.589  0.0858 -0.4814 -0.3336
  127OSM    H2S13577   5.779   6.708   6.599  0.2649 -0.1603  1.8626
  127OSM    C3S13578   5.918   6.551   6.561 -0.1276 -0.0391  0.1026
  127OSM    H3S13579   6.028   6.534   6.553 -0.1848 -1.2636  1.4630
  127OSM     O313580   5.864   6.508   6.434  0.3461  0.6059  0.3098
  127OSM    HO313581   5.846   6.584   6.378  0.9169  0.6164  0.1373
  127OSM    C4S13582   5.868   6.464   6.678 -0.5807 -0.2451 -0.1980
  127OSM    H4S13583   5.916   6.502   6.770  0.7459  0.5313 -1.1838
  127OSM    C5S13584   5.761   6.388   6.679  0.1335  0.4266  0.1586
  127OSM    H5S13585   5.701   6.371   6.588  0.9930  3.6766 -1.1730
  127OSM    C6S13586   5.712   6.317   6.802 -0.3564  0.4036  0.1773
  127OSM    H6S13587   5.763   6.221   6.824 -1.0960  0.5454  2.8692
  127OSM    H6T13588   5.601   6.304   6.793 -0.8337  2.6902  1.9207
  127OSM    C7S13589   5.733   6.391   6.938  0.3236 -0.0058  0.8774
  127OSM    H7S13590   5.706   6.499   6.928 -1.7788 -0.4558  1.1885
  127OSM    H7T13591   5.837   6.380   6.973  0.1135 -0.1473  1.4630
  127OSM    C8S13592   5.649   6.335   7.048  0.4516  0.1164 -0.1301
  127OSM    H8S13593   5.677   6.229   7.065  2.1451  0.7957  1.6189
  127OSM    H8T13594   5.547   6.337   7.003  1.9356  0.8254 -3.8121
  127OSM    C9S13595   5.664   6.419   7.176  1.1711  0.0491 -0.5920
  127OSM    H9S13596   5.594   6.384   7.254  2.4409 -1.6896 -0.1715
  127OSM    H9T13597   5.623   6.521   7.159 -0.8922 -0.7410 -0.5900
  127OSM   C10S13598   5.798   6.428   7.238  0.1377 -0.2202 -0.4191
  127OSM   H10S13599   5.865   6.468   7.159  1.4703 -0.0602  0.7573
  127OSM   H10T13600   5.821   6.322   7.259 -0.5053 -0.3459 -0.3307
  127OSM   C11S13601   5.804   6.522   7.367  0.1544  0.2686 -0.3998
  127OSM   H11S13602   5.793   6.631   7.347  0.7585  0.9509  2.5921
  127OSM   H11T13603   5.910   6.522   7.398 -0.1953  0.7033  0.8341
  127OSM   C12S13604   5.713   6.480   7.480  0.2604 -0.2889  0.4546
  127OSM   H12S13605   5.710   6.369   7.488  0.5599 -0.5340 -2.0658
  127OSM   H12T13606   5.610   6.510   7.451  0.4529  0.7456  0.7962
  127OSM   C13S13607   5.735   6.558   7.608  0.2855  0.1860  0.3665
  127OSM   H13S13608   5.648   6.531   7.672 -1.1531 -0.2505 -1.6489
  127OSM   H13T13609   5.721   6.664   7.578 -2.1551  0.3151  1.6937
  127OSM   C14S13610   5.860   6.521   7.681 -0.2442 -0.4056 -0.7744
  127OSM   H14S13611   5.951   6.566   7.634 -0.9287  2.9747  0.8224
  127OSM   H14T13612   5.863   6.410   7.685 -5.0517 -0.7466 -1.5141
  127OSM   C15S13613   5.867   6.577   7.823  0.0970  0.8959 -0.5821
  127OSM   H15S13614   5.840   6.685   7.823  0.2682  1.0095  1.9056
  127OSM   H15T13615   5.969   6.564   7.863  0.1335  1.8274 -0.3375
  127OSM   C16S13616   5.783   6.497   7.929  0.5383  0.9899  0.3069
  127OSM   H16S13617   5.799   6.388   7.920 -1.7401  0.5353  1.0612
  127OSM   H16T13618   5.675   6.515   7.906  0.6629  0.0260 -1.1543
  127OSM   C17S13619   5.771   6.533   8.076 -0.0137  0.0219 -0.4894
  127OSM   H17S13620   5.863   6.507   8.133  0.7333  1.7174 -0.8514
  127OSM   H17T13621   5.695   6.461   8.113 -0.0810 -0.5776 -1.7227
  127OSM   C18S13622   5.732   6.682   8.102 -0.0522  0.0682 -0.1094
  127OSM   H18S13623   5.793   6.753   8.042 -0.5752 -1.4257 -2.5263
  127OSM   H18T13624   5.759   6.706   8.208  1.5022  1.6894 -0.8106
  127OSM   H18U13625   5.625   6.709   8.093  0.0059  0.0504 -0.8498
  127OSM    C1F13626   5.906   6.857   6.766 -0.4417 -0.8380  0.6925
  127OSM     OF13627   5.806   6.917   6.719 -0.2610  0.0330 -0.1643
  127OSM    C2F13628   5.989   6.923   6.876  0.0994  0.1720  0.7986
  127OSM    H2F13629   6.001   7.029   6.843 -2.2076  0.0523 -0.6649
  127OSM    H2G13630   6.085   6.871   6.891 -0.5298 -1.2712  0.0242
  127OSM    C3F13631   5.894   6.927   7.002  0.2415  0.1413  0.1153
  127OSM    H3F13632   5.847   6.827   7.018 -0.9575  0.6979  0.1815
  127OSM    H3G13633   5.811   7.000   7.001  0.6980  0.6617  0.1338
  127OSM    C4F13634   5.962   6.957   7.134  0.0292  0.5509  0.0327
  127OSM    H4F13635   5.999   7.062   7.136  0.1611  0.6061  4.4659
  127OSM    H4G13636   6.044   6.883   7.151 -0.5585 -0.9057 -2.7833
  127OSM    C5F13637   5.863   6.949   7.254  0.2584 -0.4847 -0.5842
  127OSM    H5F13638   5.800   6.860   7.235 -2.3638  1.7153 -3.1327
  127OSM    H5G13639   5.802   7.042   7.261 -0.3759 -1.0112  3.8310
  127OSM    C6F13640   5.925   6.924   7.398  0.7335  0.2047  0.8934
  127OSM    H6F13641   6.005   7.001   7.401  2.4978 -1.1786 -3.3247
  127OSM    H6G13642   5.982   6.830   7.380 -0.8096 -1.3286  3.4098
  127OSM    C7F13643   5.818   6.924   7.517  0.0124 -0.5753  1.0828
  127OSM    H7F13644   5.725   6.862   7.512  0.1533 -0.7962  1.1691
  127OSM    H7G13645   5.763   7.020   7.514 -0.7884 -1.0347  0.5437
  127OSM    C8F13646   5.886   6.913   7.647  0.0490 -0.0451 -0.3716
  127OSM    H8F13647   5.939   6.819   7.673  3.4244  2.0049  0.8103
  127OSM    H8G13648   5.811   6.924   7.728  1.4623 -0.9740  1.1518
  127OSM    C9F13649   5.978   7.025   7.675 -0.1587 -0.1620  0.4100
  127OSM    H9F13650   5.951   7.123   7.633 -0.6401 -1.0038 -1.3532
  127OSM   C10F13651   6.087   7.029   7.743  0.7672  0.2817 -0.8082
  127OSM   H10F13652   6.125   7.127   7.776  1.5843 -0.0573 -0.7124
  127OSM   C11F13653   6.142   6.906   7.817 -0.2901  0.4508 -0.4856
  127OSM   H11F13654   6.246   6.931   7.846 -0.9218  4.3133 -0.9860
  127OSM   H11G13655   6.128   6.821   7.746 -0.6781 -0.8746  1.0995
  127OSM   C12F13656   6.076   6.866   7.950 -0.8798  0.3476  0.1877
  127OSM   H12F13657   6.104   6.765   7.987  1.3120  1.4562  1.8053
  127OSM   H12G13658   5.967   6.871   7.928 -0.8027  1.4651  0.0073
  127OSM   C13F13659   6.122   6.961   8.068 -0.2117 -0.0666  0.4123
  127OSM   H13F13660   6.114   7.065   8.027 -0.5471 -0.6730 -1.1552
  127OSM   H13G13661   6.232   6.947   8.072 -0.2582 -0.0966  1.7789
  127OSM   C14F13662   6.042   6.935   8.192  0.0662  0.4063 -0.3399
  127OSM   H14F13663   5.985   6.840   8.190  0.5700  0.0885  0.1145
  127OSM   H14G13664   5.950   6.997   8.197 -1.1084 -1.3491  1.9715
  127OSM   C15F13665   6.116   6.953   8.330  0.1908 -0.1789 -0.9858
  127OSM   H15F13666   6.038   6.951   8.409  1.7168 -1.0057  0.5545
  127OSM   H15G13667   6.166   7.051   8.346 -1.2439  0.5925 -1.0479
  127OSM   C16F13668   6.213   6.833   8.354  0.7019 -0.3260 -0.6782
  127OSM   H16F13669   6.257   6.846   8.454 -0.3252 -2.6127  0.1449
  127OSM   H16G13670   6.295   6.840   8.279  0.9020  0.5287 -0.3838
  127OSM   C17F13671   6.142   6.703   8.365  0.2857  0.2116  0.7778
  127OSM   H17F13672   6.118   6.665   8.264  0.4398  0.6152  0.5916
  127OSM   H17G13673   6.044   6.714   8.417 -0.8789 -0.9029 -1.0880
  127OSM   C18F13674   6.226   6.588   8.423 -0.1586 -0.5386 -0.6370
  127OSM   H18F13675   6.313   6.559   8.361  0.9066  0.9559  0.0966
  127OSM   H18G13676   6.167   6.496   8.442  1.2075 -1.7797 -2.1162
  127OSM   H18H13677   6.276   6.622   8.517 -0.3415  0.4840 -0.9012
  128OSM      N13678   0.824   4.137   6.073 -0.3490 -0.3384  0.2281
  128OSM    C1513679   0.675   4.121   6.051  0.2537 -1.2174 -0.4965
  128OSM   H15A13680   0.615   4.176   6.122 -0.4332 -1.6248 -0.7453
  128OSM   H15B13681   0.640   4.019   6.054  0.5966 -1.3018  1.7459
  128OSM   H15C13682   0.651   4.167   5.956  0.4409 -1.0018 -0.4387
  128OSM    C1413683   0.899   4.052   5.977 -0.1398 -0.0665  0.2723
  128OSM   H14A13684   0.897   4.081   5.873 -0.2852 -0.4841  0.1584
  128OSM   H14B13685   0.859   3.952   5.981 -0.0688 -0.0905  0.4163
  128OSM   H14C13686   1.000   4.035   6.013 -0.2237 -1.2509 -0.0214
  128OSM    C1313687   0.883   4.276   6.056  0.4334  0.5253 -0.6465
  128OSM   H13A13688   0.989   4.277   6.073  0.5251  1.3761 -1.1640
  128OSM   H13B13689   0.837   4.351   6.119  1.6431  1.1303 -0.4543
  128OSM   H13C13690   0.864   4.310   5.955  0.3406  4.2467  0.4693
  128OSM    C1213691   0.852   4.091   6.215 -0.4633 -0.4369  0.4737
  128OSM   H12A13692   0.796   4.003   6.245  1.0003 -0.5800  3.1596
  128OSM   H12B13693   0.816   4.166   6.284 -0.1040  1.8746 -1.7294
  128OSM    C1113694   1.000   4.060   6.254 -0.0373  1.3233 -0.2622
  128OSM   H11A13695   1.010   4.069   6.364  1.6214  2.2409 -0.4469
  128OSM   H11B13696   1.073   4.131   6.209  0.1769  0.1092 -1.9398
  128OSM      P13697   1.179   3.895   6.160  0.1140 -0.0481  0.0091
  128OSM    O1313698   1.190   3.756   6.108  0.0580  0.0175  0.0360
  128OSM    O1413699   1.221   4.005   6.068  0.3349 -0.1376 -0.7149
  128OSM    O1113700   1.262   3.924   6.288  0.4750  0.9246  0.7108
  128OSM    O1213701   1.030   3.928   6.206 -0.7137  0.3173  0.5983
  128OSM    C1S13702   1.231   3.862   6.412 -0.4196 -0.3354 -0.3061
  128OSM    H1S13703   1.244   3.752   6.405  0.4110 -0.1688 -2.1213
  128OSM    H1T13704   1.128   3.882   6.446 -0.8170 -2.0126 -0.4344
  128OSM     NF13705   1.324   3.828   6.645 -0.3814 -0.3818  0.4843
  128OSM    HNF13706   1.280   3.871   6.724 -1.0047  0.9632 -0.5479
  128OSM    C2S13707   1.333   3.912   6.525 -0.2368 -0.0734  0.0171
  128OSM    H2S13708   1.433   3.897   6.480 -2.0315 -2.0083 -3.7804
  128OSM    C3S13709   1.311   4.065   6.549 -0.2659  0.3210 -0.0602
  128OSM    H3S13710   1.206   4.065   6.585  0.1441 -0.3075  1.1602
  128OSM     O313711   1.303   4.137   6.429  0.1036  0.1305 -0.0512
  128OSM    HO313712   1.290   4.074   6.358  1.9695  1.8388 -2.0554
  128OSM    C4S13713   1.416   4.116   6.638  0.2947  0.3529 -0.3476
  128OSM    H4S13714   1.519   4.093   6.607  0.8550  1.4074  0.6651
  128OSM    C5S13715   1.384   4.184   6.745  0.4073 -0.1152 -0.6636
  128OSM    H5S13716   1.277   4.200   6.768  0.7490 -0.8439  1.8107
  128OSM    C6S13717   1.488   4.239   6.844  0.0770 -0.7563 -0.7471
  128OSM    H6S13718   1.502   4.349   6.846  2.3116 -0.9976 -0.1097
  128OSM    H6T13719   1.584   4.189   6.820 -1.3248 -3.2383 -1.6041
  128OSM    C7S13720   1.461   4.202   6.991  0.7819 -1.1330 -0.4030
  128OSM    H7S13721   1.454   4.091   6.995 -2.0739 -1.1312 -2.1540
  128OSM    H7T13722   1.361   4.242   7.018  0.3485 -2.6147  0.2872
  128OSM    C8S13723   1.566   4.249   7.098 -0.3835 -0.4615 -0.2954
  128OSM    H8S13724   1.603   4.353   7.093  1.5281 -1.0784  0.0800
  128OSM    H8T13725   1.657   4.187   7.083  1.3308  1.8944 -0.0099
  128OSM    C9S13726   1.525   4.216   7.247  0.9730  0.5188 -0.0260
  128OSM    H9S13727   1.491   4.111   7.242  0.2299  0.7440  0.1465
  128OSM    H9T13728   1.432   4.270   7.278  1.1838 -0.2287  2.0383
  128OSM   C10S13729   1.637   4.221   7.349  0.1657  0.2053  0.4717
  128OSM   H10S13730   1.671   4.326   7.353  0.8907  0.0149 -0.3305
  128OSM   H10T13731   1.716   4.145   7.330 -2.6011 -3.4017  1.9771
  128OSM   C11S13732   1.572   4.173   7.481 -0.9817 -0.2593 -0.6417
  128OSM   H11S13733   1.523   4.073   7.471 -0.6447 -0.4962  0.0006
  128OSM   H11T13734   1.502   4.255   7.508  0.5814  0.6816  0.7393
  128OSM   C12S13735   1.675   4.185   7.600  0.5111 -0.3316 -0.7761
  128OSM   H12S13736   1.722   4.285   7.587 -2.5309  1.5604  1.3758
  128OSM   H12T13737   1.754   4.110   7.583  1.2393 -0.2379  1.6976
  128OSM   C13S13738   1.611   4.183   7.743 -0.7193  0.3115  0.3740
  128OSM   H13S13739   1.556   4.089   7.764 -0.7287  0.4425  0.9596
  128OSM   H13T13740   1.529   4.259   7.740  0.2223  1.3356 -0.0953
  128OSM   C14S13741   1.725   4.186   7.851  0.4025  0.2136  0.2394
  128OSM   H14S13742   1.773   4.283   7.827  2.1401 -0.5531  0.4982
  128OSM   H14T13743   1.792   4.104   7.819 -1.4242 -1.9081  1.5185
  128OSM   C15S13744   1.677   4.165   7.995  0.5547  0.1652 -0.0803
  128OSM   H15S13745   1.631   4.065   8.007  2.1883 -0.6765 -0.5282
  128OSM   H15T13746   1.600   4.241   8.015  1.2131  0.3559  1.9146
  128OSM   C16S13747   1.800   4.183   8.083 -0.1147 -0.1515  0.5567
  128OSM   H16S13748   1.844   4.274   8.039 -0.6947 -0.3157 -0.3754
  128OSM   H16T13749   1.870   4.099   8.062  1.5954  1.5874 -1.0266
  128OSM   C17S13750   1.758   4.210   8.229  0.0100  0.2108 -0.9381
  128OSM   H17S13751   1.691   4.131   8.269 -0.6441  0.2999 -1.8406
  128OSM   H17T13752   1.694   4.300   8.221 -0.3679  0.0863  0.4395
  128OSM   C18S13753   1.865   4.220   8.330 -0.3397  0.6213 -0.2238
  128OSM   H18S13754   1.828   4.252   8.430  0.5249 -1.2718  0.7419
  128OSM   H18T13755   1.946   4.290   8.298  2.4194 -2.4274 -0.3988
  128OSM   H18U13756   1.925   4.128   8.346  0.7671  1.4762  0.6572
  128OSM    C1F13757   1.366   3.700   6.646 -0.1962  0.3955  0.2903
  128OSM     OF13758   1.446   3.651   6.567  0.0782 -0.4799  0.1782
  128OSM    C2F13759   1.317   3.612   6.761 -0.0360 -0.6745 -0.2772
  128OSM    H2F13760   1.267   3.522   6.719  0.8162 -0.8634 -0.9008
  128OSM    H2G13761   1.237   3.654   6.825  1.7719  1.0861  0.9381
  128OSM    C3F13762   1.438   3.563   6.844  0.8907 -0.8391 -0.4742
  128OSM    H3F13763   1.479   3.652   6.898 -2.2302 -0.5561  1.6877
  128OSM    H3G13764   1.522   3.517   6.788  0.5430 -2.2328  0.1245
  128OSM    C4F13765   1.403   3.457   6.945 -0.5288  0.4394 -0.2600
  128OSM    H4F13766   1.389   3.360   6.893 -1.8253  0.4872 -0.0352
  128OSM    H4G13767   1.308   3.478   6.998 -1.5361  0.9675 -2.2083
  128OSM    C5F13768   1.517   3.446   7.045 -0.0441  0.1163 -0.8267
  128OSM    H5F13769   1.508   3.536   7.110 -0.3746 -1.1981  1.0178
  128OSM    H5G13770   1.618   3.446   6.999  0.5999 -0.2174  0.5507
  128OSM    C6F13771   1.500   3.326   7.139 -0.3816  0.7069 -0.4412
  128OSM    H6F13772   1.538   3.229   7.102 -1.6639 -0.3696  0.9412
  128OSM    H6G13773   1.391   3.320   7.160 -0.6174 -0.4452 -1.8565
  128OSM    C7F13774   1.562   3.359   7.277 -0.1627  0.3420 -0.1702
  128OSM    H7F13775   1.663   3.397   7.251  0.0794 -0.4888 -0.4932
  128OSM    H7G13776   1.580   3.259   7.323  1.3391  0.6318 -0.0663
  128OSM    C8F13777   1.470   3.454   7.365 -0.3128  0.8667  0.1643
  128OSM    H8F13778   1.449   3.539   7.297 -1.3593 -0.5389 -1.3576
  128OSM    H8G13779   1.537   3.492   7.445 -0.5488  3.1023 -0.6461
  128OSM    C9F13780   1.353   3.388   7.430 -0.0470 -0.1905 -0.4223
  128OSM    H9F13781   1.253   3.418   7.396  1.0663  1.2497 -2.6027
  128OSM   C10F13782   1.365   3.291   7.523  0.0557  0.9596 -0.8225
  128OSM   H10F13783   1.269   3.259   7.567 -0.4783 -0.3531 -2.8434
  128OSM   C11F13784   1.490   3.213   7.576  0.7051 -0.0077  0.7956
  128OSM   H11F13785   1.580   3.224   7.512  1.4015  0.7371  1.8691
  128OSM   H11G13786   1.463   3.106   7.589  0.8149  0.0676  1.7125
  128OSM   C12F13787   1.532   3.272   7.714  0.1205 -0.3045 -0.2466
  128OSM   H12F13788   1.574   3.374   7.704  1.9765 -0.6607  2.5895
  128OSM   H12G13789   1.623   3.221   7.752 -1.1979 -3.1666 -0.6610
  128OSM   C13F13790   1.422   3.255   7.821  0.3071 -0.3953  0.4702
  128OSM   H13F13791   1.408   3.148   7.849 -0.8707 -0.1884  0.7331
  128OSM   H13G13792   1.321   3.285   7.787  0.1785 -0.4780  0.7786
  128OSM   C14F13793   1.455   3.324   7.947 -0.4396  0.7806  0.0314
  128OSM   H14F13794   1.469   3.429   7.915 -0.4253 -0.1760 -3.4231
  128OSM   H14G13795   1.555   3.289   7.980 -0.4909 -0.2398 -0.8355
  128OSM   C15F13796   1.355   3.307   8.059 -0.3704  0.3724  0.0671
  128OSM   H15F13797   1.355   3.204   8.099  1.1736  0.6864  0.9834
  128OSM   H15G13798   1.256   3.336   8.019 -2.1983  0.3224  4.0940
  128OSM   C16F13799   1.384   3.398   8.177 -0.2906  0.6570 -0.2089
  128OSM   H16F13800   1.290   3.378   8.234 -1.8739 -0.2228 -2.9355
  128OSM   H16G13801   1.380   3.509   8.170 -0.9739  0.5998 -0.8964
  128OSM   C17F13802   1.517   3.355   8.240  0.5253 -0.0105  0.3240
  128OSM   H17F13803   1.600   3.407   8.187  1.5586  0.2769  2.1329
  128OSM   H17G13804   1.531   3.247   8.218  2.1771  0.4831 -1.2864
  128OSM   C18F13805   1.522   3.376   8.388 -0.7937  0.5036  0.4346
  128OSM   H18F13806   1.623   3.409   8.419  0.3356 -1.7179 -0.6605
  128OSM   H18G13807   1.516   3.277   8.438  1.6335 -1.2200 -2.3314
  128OSM   H18H13808   1.453   3.452   8.429 -0.1999  0.8398  0.8204
  129OSM      N13809   5.420   1.153   6.293  0.1279  0.0926 -0.2756
  129OSM    C1513810   5.350   1.269   6.226 -0.3657  0.2814  0.0444
  129OSM   H15A13811   5.276   1.323   6.284 -0.5046  1.4285 -1.1730
  129OSM   H15B13812   5.300   1.222   6.143 -2.1145  1.7741  0.1888
  129OSM   H15C13813   5.425   1.339   6.194 -1.6163  0.5493 -2.5488
  129OSM    C1413814   5.523   1.103   6.201  0.0623 -0.1453 -0.3898
  129OSM   H14A13815   5.568   1.017   6.248 -1.0259 -0.7266 -0.3903
  129OSM   H14B13816   5.601   1.173   6.174  1.2153 -0.8493  1.0367
  129OSM   H14C13817   5.482   1.066   6.108 -2.5046  1.0545  0.1755
  129OSM    C1313818   5.506   1.202   6.406  0.0747  0.1785 -0.7230
  129OSM   H13A13819   5.445   1.217   6.493  1.3321  1.3431 -0.0160
  129OSM   H13B13820   5.556   1.295   6.382 -1.8970  2.0826  2.0322
  129OSM   H13C13821   5.575   1.121   6.426 -0.4795 -0.3457 -0.9129
  129OSM    C1213822   5.327   1.048   6.332 -0.5876 -0.3525  0.3233
  129OSM   H12A13823   5.285   1.015   6.238  1.3257  0.3250 -0.8369
  129OSM   H12B13824   5.244   1.083   6.392  0.6910 -1.6115  2.9787
  129OSM    C1113825   5.393   0.921   6.404  0.6850 -0.4874 -0.4914
  129OSM   H11A13826   5.432   0.971   6.496 -1.4369  2.7178 -1.1520
  129OSM   H11B13827   5.480   0.878   6.351  1.4274  0.9190 -0.4486
  129OSM      P13828   5.257   0.703   6.376  0.2356 -0.1183  0.3843
  129OSM    O1313829   5.124   0.693   6.314  0.2144  0.0271 -0.4881
  129OSM    O1413830   5.374   0.652   6.292  0.1478  0.3351 -0.2592
  129OSM    O1113831   5.264   0.618   6.508 -0.5429 -0.1859 -0.1983
  129OSM    O1213832   5.288   0.841   6.433  0.0277 -0.3327 -0.1089
  129OSM    C1S13833   5.377   0.549   6.560 -0.3943  0.7502  0.2419
  129OSM    H1S13834   5.470   0.583   6.510  0.0257  0.4257  0.7919
  129OSM    H1T13835   5.377   0.444   6.525 -2.1555  0.1100  1.9501
  129OSM     NF13836   5.518   0.487   6.755  0.0564 -0.1924 -0.0757
  129OSM    HNF13837   5.518   0.387   6.757  0.3912 -0.1894  0.2784
  129OSM    C2S13838   5.388   0.545   6.712 -0.0064 -0.1151  0.5918
  129OSM    H2S13839   5.391   0.649   6.749  2.8132  0.2964 -0.5462
  129OSM    C3S13840   5.256   0.483   6.766 -0.6377  0.2607 -0.6066
  129OSM    H3S13841   5.252   0.379   6.727 -0.9813 -0.1325  0.4273
  129OSM     O313842   5.135   0.547   6.737 -0.0347 -0.1787  0.4593
  129OSM    HO313843   5.152   0.598   6.658 -1.6633 -1.4384 -0.7529
  129OSM    C4S13844   5.271   0.455   6.909  0.3132 -0.0065 -0.3602
  129OSM    H4S13845   5.284   0.348   6.932  0.3815 -0.0561 -0.6379
  129OSM    C5S13846   5.238   0.549   7.011  0.1318 -0.0273  0.2131
  129OSM    H5S13847   5.214   0.653   6.984  2.7479  0.2317 -1.4016
  129OSM    C6S13848   5.242   0.507   7.154  0.3512  0.5804 -0.0262
  129OSM    H6S13849   5.289   0.407   7.168  0.1343  0.1967 -1.8342
  129OSM    H6T13850   5.140   0.473   7.182  0.9289 -0.8610  0.3833
  129OSM    C7S13851   5.266   0.618   7.262 -0.1353  0.4153 -0.3622
  129OSM    H7S13852   5.180   0.688   7.255 -0.8726  0.2216  4.0318
  129OSM    H7T13853   5.364   0.666   7.243  0.2625  0.0084  0.6274
  129OSM    C8S13854   5.262   0.562   7.410 -0.0295 -0.3689  0.2709
  129OSM    H8S13855   5.357   0.511   7.437  0.5058 -0.7920 -2.2334
  129OSM    H8T13856   5.178   0.489   7.419 -1.9417  1.7620  0.4881
  129OSM    C9S13857   5.254   0.679   7.512 -0.7833 -0.2877  0.0780
  129OSM    H9S13858   5.148   0.712   7.517  0.0052  2.3168  2.8656
  129OSM    H9T13859   5.321   0.762   7.478 -1.6299  0.2833 -0.2378
  129OSM   C10S13860   5.300   0.637   7.647 -0.7276 -0.0544 -1.1041
  129OSM   H10S13861   5.316   0.727   7.712  0.2805 -2.4886  2.3318
  129OSM   H10T13862   5.401   0.592   7.645  0.1990  1.9543 -1.8247
  129OSM   C11S13863   5.195   0.557   7.718 -0.4220 -0.4603  0.0661
  129OSM   H11S13864   5.170   0.452   7.690  1.3686 -0.4515 -1.8185
  129OSM   H11T13865   5.111   0.629   7.710 -0.6640 -0.8245 -0.7869
  129OSM   C12S13866   5.228   0.548   7.869 -0.5835  0.1833  0.6452
  129OSM   H12S13867   5.236   0.647   7.919 -0.9239 -0.7263  2.6327
  129OSM   H12T13868   5.331   0.509   7.883 -0.3276 -0.5444 -2.6368
  129OSM   C13S13869   5.120   0.460   7.947  1.0273  0.4057 -0.0113
  129OSM   H13S13870   5.139   0.450   8.056  1.8841 -2.8784 -0.3438
  129OSM   H13T13871   5.135   0.365   7.891  0.9878  0.9274 -0.9192
  129OSM   C14S13872   4.970   0.503   7.926 -0.6810 -0.6186  0.6482
  129OSM   H14S13873   4.904   0.416   7.945 -0.5485 -1.4277 -2.1238
  129OSM   H14T13874   4.954   0.518   7.817 -1.0530 -0.2240  0.7534
  129OSM   C15S13875   4.937   0.636   7.990 -0.3884 -0.3348  0.2892
  129OSM   H15S13876   5.002   0.720   7.958 -0.2082 -0.8104 -0.6149
  129OSM   H15T13877   4.926   0.631   8.101 -2.7614 -0.6226  0.0907
  129OSM   C16S13878   4.799   0.677   7.936  0.0891  0.1443  0.1872
  129OSM   H16S13879   4.717   0.603   7.949 -0.4957  1.1598  2.8340
  129OSM   H16T13880   4.818   0.696   7.828  1.2752  0.8476  0.5065
  129OSM   C17S13881   4.758   0.812   8.006 -0.3558 -0.5053 -0.2145
  129OSM   H17S13882   4.840   0.885   7.992  0.1485 -0.7879  1.1460
  129OSM   H17T13883   4.728   0.785   8.110  1.4363 -3.3597 -0.3278
  129OSM   C18S13884   4.640   0.878   7.923  0.5605  0.5998 -0.6618
  129OSM   H18S13885   4.633   0.986   7.948 -0.1333  0.1072  1.4866
  129OSM   H18T13886   4.545   0.826   7.947  0.7701  1.0567  1.3927
  129OSM   H18U13887   4.656   0.869   7.814  0.1556 -0.7516 -0.6193
  129OSM    C1F13888   5.630   0.554   6.744 -0.1933 -0.0839 -0.7581
  129OSM     OF13889   5.629   0.668   6.693 -0.2867 -0.2042 -0.5943
  129OSM    C2F13890   5.758   0.489   6.788  0.6701 -0.0053 -0.7449
  129OSM    H2F13891   5.828   0.474   6.703 -0.0159 -1.5090 -1.0988
  129OSM    H2G13892   5.727   0.384   6.810 -0.1238 -0.0680 -2.0281
  129OSM    C3F13893   5.814   0.578   6.903 -0.7644  0.1669 -0.4096
  129OSM    H3F13894   5.826   0.682   6.865  0.8073  0.5707  1.0518
  129OSM    H3G13895   5.909   0.530   6.935 -0.6261 -0.5245 -1.7773
  129OSM    C4F13896   5.733   0.599   7.033 -0.2055 -0.4519  0.1420
  129OSM    H4F13897   5.690   0.508   7.080 -0.8828 -0.4943 -0.5308
  129OSM    H4G13898   5.646   0.663   7.007 -0.3937 -0.6854  0.1930
  129OSM    C5F13899   5.813   0.677   7.146 -0.0573  0.4591  0.1884
  129OSM    H5F13900   5.813   0.778   7.099 -0.4606  0.3017 -0.1616
  129OSM    H5G13901   5.921   0.653   7.157 -0.0342  0.1310 -0.7190
  129OSM    C6F13902   5.736   0.685   7.281  0.3468 -0.9860  0.4447
  129OSM    H6F13903   5.635   0.723   7.255  1.2167  1.1151 -0.0308
  129OSM    H6G13904   5.785   0.760   7.345  1.2148  0.0605 -1.3656
  129OSM    C7F13905   5.715   0.550   7.352  0.0914  0.1746  0.4552
  129OSM    H7F13906   5.812   0.499   7.368  0.3981  1.1783  2.0920
  129OSM    H7G13907   5.649   0.494   7.282  0.4312 -1.1016  1.1248
  129OSM    C8F13908   5.645   0.567   7.486  0.0841  0.4800 -0.2511
  129OSM    H8F13909   5.612   0.467   7.521 -0.1309  0.5810 -0.1607
  129OSM    H8G13910   5.554   0.630   7.473  0.8014  1.5147 -0.3836
  129OSM    C9F13911   5.729   0.636   7.588 -0.1731 -0.2335  0.0904
  129OSM    H9F13912   5.780   0.726   7.553 -2.5068  1.4565  0.7944
  129OSM   C10F13913   5.749   0.609   7.722 -0.5246  0.0057  0.7178
  129OSM   H10F13914   5.795   0.689   7.781  0.1773  0.0620  0.1077
  129OSM   C11F13915   5.703   0.484   7.796 -0.2265  0.7458  0.6007
  129OSM   H11F13916   5.711   0.393   7.733 -1.0701  2.3255 -1.9281
  129OSM   H11G13917   5.593   0.487   7.813 -0.3511 -0.1106  0.0219
  129OSM   C12F13918   5.785   0.465   7.923  0.9592  0.2171 -0.1495
  129OSM   H12F13919   5.884   0.428   7.891 -0.2685 -2.3694 -1.2588
  129OSM   H12G13920   5.745   0.378   7.980  0.5922 -0.6600 -1.6830
  129OSM   C13F13921   5.803   0.576   8.030  0.9329  0.1986 -0.4680
  129OSM   H13F13922   5.704   0.596   8.078  1.5637 -1.0683  1.4726
  129OSM   H13G13923   5.831   0.672   7.982 -0.1550  0.3665 -0.7870
  129OSM   C14F13924   5.906   0.525   8.134  0.0891  0.6460 -0.2353
  129OSM   H14F13925   6.009   0.524   8.093 -0.4449 -0.1223 -1.6390
  129OSM   H14G13926   5.876   0.420   8.156  2.9621 -0.1345  0.3385
  129OSM   C15F13927   5.914   0.616   8.255  0.2967  0.5333 -0.8022
  129OSM   H15F13928   5.813   0.658   8.275  0.9218  1.5619  0.3009
  129OSM   H15G13929   5.974   0.703   8.220 -0.4890  0.5237 -2.2568
  129OSM   C16F13930   5.968   0.544   8.372  0.1750  0.5805  0.1609
  129OSM   H16F13931   6.072   0.511   8.351 -0.3422 -0.4794 -0.8389
  129OSM   H16G13932   5.919   0.445   8.385  3.0052 -0.6580  2.6589
  129OSM   C17F13933   5.967   0.624   8.502  0.0365  0.3742 -1.1128
  129OSM   H17F13934   5.987   0.554   8.586 -0.9116 -1.8867 -2.6487
  129OSM   H17G13935   5.861   0.649   8.520 -0.2382  0.1222 -2.2941
  129OSM   C18F13936   6.059   0.748   8.496  0.1816  0.5483 -0.9284
  129OSM   H18F13937   6.074   0.791   8.597 -1.2993  1.9584 -1.2620
  129OSM   H18G13938   6.024   0.827   8.426  0.8270  0.3120 -1.5297
  129OSM   H18H13939   6.159   0.716   8.459  1.3244  1.8001  0.8826
  130OSM      N13940   1.769   2.722   6.061  0.1840 -0.2739 -0.6074
  130OSM    C1513941   1.852   2.594   6.082  0.1375  0.7252 -0.3789
  130OSM   H15A13942   1.866   2.542   5.988 -2.3033  0.9310 -0.9409
  130OSM   H15B13943   1.798   2.526   6.146  1.5071 -2.7562 -2.6314
  130OSM   H15C13944   1.949   2.615   6.123  0.8069  1.2076 -2.1223
  130OSM    C1413945   1.805   2.785   5.931  0.2421 -0.1218 -0.3071
  130OSM   H14A13946   1.902   2.832   5.945  1.0064 -0.9608 -2.3223
  130OSM   H14B13947   1.737   2.859   5.892 -0.9281 -1.3096 -0.6068
  130OSM   H14C13948   1.805   2.711   5.852 -0.8965 -1.6417  1.0600
  130OSM    C1313949   1.628   2.674   6.065 -0.0822  1.0117  0.5816
  130OSM   H13A13950   1.601   2.618   5.977 -2.0724  0.6380  1.3647
  130OSM   H13B13951   1.573   2.767   6.073 -1.0606  0.6682 -1.4782
  130OSM   H13C13952   1.611   2.600   6.141  1.9754  1.5453  1.6428
  130OSM    C1213953   1.785   2.822   6.180 -0.1504  0.8565  0.3113
  130OSM   H12A13954   1.753   2.767   6.266 -0.3473 -0.2833 -0.4702
  130OSM   H12B13955   1.720   2.907   6.169  0.0294  0.8848 -0.7172
  130OSM    C1113956   1.923   2.885   6.190  0.6648  0.1199 -0.1875
  130OSM   H11A13957   1.911   2.973   6.257  1.1413 -1.2207  1.7597
  130OSM   H11B13958   1.953   2.941   6.099 -1.6780  4.3778  1.3658
  130OSM      P13959   2.022   2.727   6.381 -0.0653  0.3884 -0.1779
  130OSM    O1313960   1.892   2.665   6.403 -0.2344  0.7267  0.4136
  130OSM    O1413961   2.150   2.649   6.392  0.2438  0.0877 -0.5210
  130OSM    O1113962   2.033   2.859   6.474 -0.1177 -0.5630  0.3290
  130OSM    O1213963   2.023   2.791   6.227 -0.0442 -0.4826 -0.3796
  130OSM    C1S13964   1.936   2.901   6.564  0.2507  0.1058  0.0928
  130OSM    H1S13965   1.837   2.905   6.513  0.2190  2.4347  0.2525
  130OSM    H1T13966   1.952   3.008   6.588 -0.7756  0.8137 -2.1136
  130OSM     NF13967   1.824   2.896   6.786 -0.0661  1.1124 -0.5098
  130OSM    HNF13968   1.840   2.967   6.854  1.5791 -0.2309  0.5999
  130OSM    C2S13969   1.940   2.840   6.704  1.3435  0.1594 -0.3908
  130OSM    H2S13970   1.932   2.731   6.688 -0.4812  0.3579 -1.0577
  130OSM    C3S13971   2.073   2.874   6.765  0.0059 -0.4189  0.9167
  130OSM    H3S13972   2.081   2.983   6.748 -0.7896 -0.6669 -1.3828
  130OSM     O313973   2.182   2.812   6.692 -0.4377 -0.3493  0.0524
  130OSM    HO313974   2.141   2.776   6.613 -2.9512  1.2117  0.5220
  130OSM    C4S13975   2.081   2.831   6.909 -0.9345 -0.7661  0.1267
  130OSM    H4S13976   2.067   2.723   6.929 -1.5733 -0.1522  3.5942
  130OSM    C5S13977   2.103   2.908   7.015  0.5631  0.0652 -0.4605
  130OSM    H5S13978   2.119   3.016   7.002  2.2340  0.1713  1.8265
  130OSM    C6S13979   2.103   2.852   7.153  1.0963  0.0331 -0.9732
  130OSM    H6S13980   2.046   2.756   7.150 -1.2036  1.3436 -1.3511
  130OSM    H6T13981   2.057   2.930   7.216  0.0244 -1.9548  0.8301
  130OSM    C7S13982   2.238   2.822   7.226  0.3160 -0.2223  0.2776
  130OSM    H7S13983   2.277   2.923   7.251 -1.3124  0.4466  0.2222
  130OSM    H7T13984   2.297   2.752   7.163  0.5019 -1.4747  1.7703
  130OSM    C8S13985   2.223   2.748   7.359  0.4297  0.6709 -0.2999
  130OSM    H8S13986   2.322   2.701   7.381  0.1367 -0.8445 -1.9740
  130OSM    H8T13987   2.168   2.653   7.340  0.2249  0.5625  0.7402
  130OSM    C9S13988   2.154   2.832   7.472 -0.1955 -0.1572  0.0752
  130OSM    H9S13989   2.048   2.840   7.438 -0.3023  1.5000  0.7005
  130OSM    H9T13990   2.203   2.931   7.482  0.8920 -0.7287  0.5729
  130OSM   C10S13991   2.149   2.775   7.617  0.0882 -0.3819 -0.2312
  130OSM   H10S13992   2.251   2.732   7.624  0.1836 -0.1515 -0.2060
  130OSM   H10T13993   2.073   2.694   7.614 -0.9511  0.5942 -1.3815
  130OSM   C11S13994   2.117   2.884   7.718 -0.1696  0.7346  0.2155
  130OSM   H11S13995   2.009   2.905   7.709 -0.2574  0.0192 -0.5341
  130OSM   H11T13996   2.173   2.978   7.698 -2.7266  1.7074 -3.4597
  130OSM   C12S13997   2.142   2.847   7.862  0.0582  0.1905  0.7642
  130OSM   H12S13998   2.093   2.923   7.925 -2.2183  1.7447 -2.5781
  130OSM   H12T13999   2.251   2.852   7.886  0.8375 -2.4971 -1.6508
  130OSM   C13S14000   2.091   2.707   7.889 -0.0607 -0.1800  0.1926
  130OSM   H13S14001   2.161   2.627   7.858 -0.4518 -0.1370 -0.8446
  130OSM   H13T14002   1.997   2.686   7.834  0.6057  0.0168 -1.0426
  130OSM   C14S14003   2.049   2.684   8.039 -0.1718 -0.9330 -0.2397
  130OSM   H14S14004   2.006   2.582   8.030  0.1696 -0.9342 -2.3837
  130OSM   H14T14005   1.965   2.752   8.061  0.6261 -0.1663  0.5444
  130OSM   C15S14006   2.161   2.710   8.138 -0.0937 -0.9933  0.3004
  130OSM   H15S14007   2.200   2.814   8.129 -1.8044 -0.4071 -0.9311
  130OSM   H15T14008   2.249   2.651   8.106  1.2432  1.7654 -1.5359
  130OSM   C16S14009   2.119   2.670   8.274 -0.8257 -0.3121 -0.0249
  130OSM   H16S14010   2.015   2.702   8.296 -0.9295 -1.9838  2.1559
  130OSM   H16T14011   2.184   2.723   8.347 -0.8912 -2.0861  1.3690
  130OSM   C17S14012   2.141   2.515   8.305  0.4054  0.0201  0.0493
  130OSM   H17S14013   2.249   2.493   8.291  0.3982  0.1580 -0.2177
  130OSM   H17T14014   2.086   2.468   8.221 -2.0167  0.9258  1.0058
  130OSM   C18S14015   2.102   2.468   8.445  0.2531  0.3903  0.2674
  130OSM   H18S14016   2.089   2.358   8.449  0.2524  0.3868  0.1707
  130OSM   H18T14017   2.002   2.508   8.468 -0.5252  0.0397 -2.2241
  130OSM   H18U14018   2.175   2.505   8.521 -1.3136  4.9544 -0.1359
  130OSM    C1F14019   1.705   2.847   6.788 -0.7426  1.2104 -0.3163
  130OSM     OF14020   1.679   2.748   6.716 -0.4028  0.8773  0.9149
  130OSM    C2F14021   1.597   2.917   6.877 -0.1464 -0.1025  0.3416
  130OSM    H2F14022   1.497   2.915   6.827  0.7358 -0.3933 -1.4760
  130OSM    H2G14023   1.635   3.020   6.887 -0.8139  0.0819  1.1073
  130OSM    C3F14024   1.582   2.852   7.018 -1.0929  0.0315  0.0421
  130OSM    H3F14025   1.537   2.752   7.004 -2.2131  0.1481  2.3461
  130OSM    H3G14026   1.507   2.903   7.083 -0.5220 -2.9437  3.2690
  130OSM    C4F14027   1.703   2.863   7.107 -0.3089  0.7389  1.0162
  130OSM    H4F14028   1.717   2.972   7.127 -1.1805  1.2308 -0.8870
  130OSM    H4G14029   1.788   2.833   7.042  0.4457  0.5565  2.0659
  130OSM    C5F14030   1.696   2.782   7.235  0.3885  0.0127  0.0052
  130OSM    H5F14031   1.796   2.771   7.283 -1.3353 -0.0454  3.9862
  130OSM    H5G14032   1.659   2.681   7.205  0.6378  0.1788 -0.8761
  130OSM    C6F14033   1.591   2.839   7.331 -0.2718  0.1777  0.3984
  130OSM    H6F14034   1.494   2.821   7.281 -0.8731  2.7223  0.4744
  130OSM    H6G14035   1.601   2.949   7.342 -0.4026  0.0006  3.0932
  130OSM    C7F14036   1.598   2.787   7.474  0.0198  0.1647 -0.6240
  130OSM    H7F14037   1.589   2.676   7.473 -1.2163  0.1865  1.5671
  130OSM    H7G14038   1.512   2.829   7.531  1.4089  0.8348  1.0777
  130OSM    C8F14039   1.733   2.817   7.549  0.2155  0.7065 -0.2738
  130OSM    H8F14040   1.736   2.925   7.575 -0.2134  0.7391 -0.3508
  130OSM    H8G14041   1.820   2.788   7.487  0.6131  2.3206 -0.5166
  130OSM    C9F14042   1.748   2.738   7.683 -0.1778  0.0437 -0.0120
  130OSM    H9F14043   1.789   2.636   7.679  0.8620  0.4187  0.6708
  130OSM   C10F14044   1.702   2.784   7.800 -0.4354 -0.0983 -0.0820
  130OSM   H10F14045   1.709   2.721   7.890  1.9995 -1.7690 -1.3351
  130OSM   C11F14046   1.616   2.910   7.818  0.2564  0.2109 -0.7665
  130OSM   H11F14047   1.533   2.918   7.744 -0.7137 -0.7392  0.1721
  130OSM   H11G14048   1.668   3.007   7.803 -1.2987  1.1160 -0.4263
  130OSM   C12F14049   1.537   2.916   7.952  0.3178  0.4220  0.1592
  130OSM   H12F14050   1.479   2.822   7.959  2.9100 -1.2471  0.9076
  130OSM   H12G14051   1.466   3.001   7.948  2.4839  2.3835  0.6587
  130OSM   C13F14052   1.611   2.932   8.092  0.0472  0.2387  0.3198
  130OSM   H13F14053   1.639   3.039   8.101  2.5634 -0.1789 -1.4168
  130OSM   H13G14054   1.698   2.865   8.102 -1.0459 -1.1882  0.5797
  130OSM   C14F14055   1.515   2.893   8.207 -0.0391  0.0667 -0.3485
  130OSM   H14F14056   1.491   2.785   8.196 -3.3516  0.7469 -0.6581
  130OSM   H14G14057   1.418   2.947   8.206  0.3241  0.9276  2.2718
  130OSM   C15F14058   1.574   2.921   8.351 -0.2769 -0.3169  0.8002
  130OSM   H15F14059   1.579   3.031   8.363  2.8874  0.3038 -3.6198
  130OSM   H15G14060   1.677   2.880   8.356  0.7977  1.7125 -2.1783
  130OSM   C16F14061   1.498   2.854   8.470  0.2719 -0.0820  0.2973
  130OSM   H16F14062   1.527   2.747   8.462 -1.4158 -0.4443 -1.8799
  130OSM   H16G14063   1.388   2.846   8.462  0.0571  2.2144  0.2055
  130OSM   C17F14064   1.527   2.919   8.609 -0.1306 -0.3382 -0.0792
  130OSM   H17F14065   1.511   3.029   8.603 -0.1183 -0.0544  3.2384
  130OSM   H17G14066   1.634   2.904   8.634 -0.0134  0.8997  0.2254
  130OSM   C18F14067   1.451   2.870   8.731  0.3262  0.4919  0.3872
  130OSM   H18F14068   1.466   2.761   8.742  1.8059  0.8571  2.7591
  130OSM   H18G14069   1.346   2.899   8.714  0.6474  1.2600 -0.3541
  130OSM   H18H14070   1.486   2.918   8.825  1.2462  0.3355  0.1384
  131OSM      N14071   4.520   0.632   6.448  0.5663  0.3634 -0.6601
  131OSM    C1514072   4.549   0.777   6.425 -0.0168  0.6135  0.1389
  131OSM   H15A14073   4.491   0.808   6.340 -0.0896 -0.9469 -0.4113
  131OSM   H15B14074   4.654   0.788   6.399  1.3402 -5.1903  1.6781
  131OSM   H15C14075   4.535   0.842   6.510 -0.6895  0.2138  0.3402
  131OSM    C1414076   4.590   0.596   6.572  0.3102 -0.3833  0.4033
  131OSM   H14A14077   4.579   0.491   6.593 -1.1010 -0.2919  0.2266
  131OSM   H14B14078   4.542   0.655   6.648 -3.1520  0.2051 -2.0055
  131OSM   H14C14079   4.696   0.612   6.559  0.3533  0.4642  1.6917
  131OSM    C1314080   4.371   0.607   6.466 -0.5343  0.1774 -0.2406
  131OSM   H13A14081   4.315   0.624   6.376  2.3494 -1.1875 -2.4684
  131OSM   H13B14082   4.326   0.659   6.550 -2.9534 -0.9581 -0.7586
  131OSM   H13C14083   4.360   0.504   6.498 -1.9312  0.1558 -0.7341
  131OSM    C1214084   4.579   0.550   6.329  0.2766 -0.1863 -0.9496
  131OSM   H12A14085   4.686   0.559   6.336  0.0797  1.5028  0.6937
  131OSM   H12B14086   4.550   0.603   6.239 -1.7268 -0.4107 -0.5014
  131OSM    C1114087   4.539   0.399   6.332 -0.5080 -0.1217 -0.3809
  131OSM   H11A14088   4.433   0.383   6.304 -0.2458 -3.6342  0.2809
  131OSM   H11B14089   4.552   0.354   6.432  0.9086 -1.2920 -1.0367
  131OSM      P14090   4.589   0.185   6.189 -0.2085  0.4622 -0.4478
  131OSM    O1314091   4.462   0.197   6.117  0.1785 -0.0371  0.1267
  131OSM    O1414092   4.708   0.130   6.121 -0.3295 -0.4331  0.1675
  131OSM    O1114093   4.556   0.108   6.322 -0.1817 -0.3270  0.4099
  131OSM    O1214094   4.624   0.329   6.238 -0.0650  0.7305  0.3180
  131OSM    C1S14095   4.664   0.077   6.410  0.2849  0.0241  0.3639
  131OSM    H1S14096   4.696   0.174   6.453 -1.8027  0.4444  1.1063
  131OSM    H1T14097   4.748   0.032   6.353  1.1840  1.3506  0.6078
  131OSM     NF14098   4.732  -0.036   6.610 -0.7063  0.0859 -0.6971
  131OSM    HNF14099   4.782  -0.121   6.598 -0.5218  0.0743  0.1495
  131OSM    C2S14100   4.622  -0.019   6.523  0.0503  0.4282 -0.6294
  131OSM    H2S14101   4.538   0.022   6.584  0.5825 -0.8608  1.0244
  131OSM    C3S14102   4.572  -0.160   6.454  0.3550 -0.6477 -0.7407
  131OSM    H3S14103   4.658  -0.191   6.391  1.4728 -0.2149  0.5265
  131OSM     O314104   4.451  -0.141   6.374 -0.0352 -0.2616  0.8182
  131OSM    HO314105   4.452  -0.048   6.352 -0.7338 -0.8170 -1.9260
  131OSM    C4S14106   4.545  -0.267   6.555 -0.7667 -1.1770  0.2346
  131OSM    H4S14107   4.636  -0.328   6.560  0.4473  0.5285  0.0677
  131OSM    C5S14108   4.444  -0.286   6.645  0.5878  0.3670 -0.6370
  131OSM    H5S14109   4.376  -0.202   6.661  0.0987 -0.1207 -0.0962
  131OSM    C6S14110   4.435  -0.401   6.747 -0.5424  0.0544  0.2319
  131OSM    H6S14111   4.417  -0.497   6.694  0.2541 -0.7847  1.4506
  131OSM    H6T14112   4.352  -0.383   6.819 -2.0893  2.1396 -1.9062
  131OSM    C7S14113   4.565  -0.423   6.831 -0.2963  0.1716  0.3423
  131OSM    H7S14114   4.663  -0.427   6.779 -0.5838  3.2085 -0.6347
  131OSM    H7T14115   4.550  -0.525   6.872 -2.1652 -0.3292 -1.4284
  131OSM    C8S14116   4.584  -0.321   6.945 -0.0692  0.3475 -0.0674
  131OSM    H8S14117   4.487  -0.316   7.000  0.7067  1.7061  1.2416
  131OSM    H8T14118   4.598  -0.222   6.897  1.5034 -0.4214 -1.2914
  131OSM    C9S14119   4.706  -0.354   7.030  0.2924 -0.5855 -0.3883
  131OSM    H9S14120   4.781  -0.320   6.955  1.0622 -1.2795  0.0479
  131OSM    H9T14121   4.726  -0.457   7.064 -0.3846 -0.3368  0.8385
  131OSM   C10S14122   4.726  -0.263   7.152 -0.1210  0.3703 -0.5201
  131OSM   H10S14123   4.709  -0.157   7.125  0.8157  1.1474  1.7328
  131OSM   H10T14124   4.830  -0.278   7.187 -1.1324 -0.8401  2.2766
  131OSM   C11S14125   4.645  -0.309   7.271 -0.0438  0.1781  0.3581
  131OSM   H11S14126   4.671  -0.416   7.282 -0.5233 -0.2890 -2.4983
  131OSM   H11T14127   4.538  -0.298   7.242  0.4987  0.3171 -1.7655
  131OSM   C12S14128   4.681  -0.232   7.396  0.3494  0.6318 -0.1834
  131OSM   H12S14129   4.662  -0.125   7.377  0.6277  0.4256 -1.8033
  131OSM   H12T14130   4.787  -0.251   7.425  0.1486  0.2773  0.3421
  131OSM   C13S14131   4.608  -0.281   7.523  0.0067 -0.4122  0.0554
  131OSM   H13S14132   4.591  -0.390   7.539  1.3842 -0.9244 -1.6651
  131OSM   H13T14133   4.508  -0.235   7.511  0.1312  0.2988  1.5095
  131OSM   C14S14134   4.663  -0.235   7.656 -0.3166  0.0890  0.1495
  131OSM   H14S14135   4.692  -0.129   7.641 -1.4400  0.6965  1.8489
  131OSM   H14T14136   4.755  -0.284   7.694  0.0757 -0.0088 -0.9093
  131OSM   C15S14137   4.567  -0.226   7.775  0.2172 -0.2262  0.4594
  131OSM   H15S14138   4.526  -0.329   7.784  0.2410 -0.2948 -0.1568
  131OSM   H15T14139   4.479  -0.160   7.760 -0.6790 -1.3380  0.6943
  131OSM   C16S14140   4.615  -0.183   7.914 -0.0947  0.0761 -0.0241
  131OSM   H16S14141   4.648  -0.079   7.893  2.8483 -0.7021  0.3948
  131OSM   H16T14142   4.695  -0.248   7.956 -0.9714 -1.8010 -1.1127
  131OSM   C17S14143   4.510  -0.186   8.016  0.5770 -0.1534 -0.0423
  131OSM   H17S14144   4.547  -0.266   8.084 -0.5295 -1.3272 -0.7813
  131OSM   H17T14145   4.413  -0.219   7.973 -0.0556  1.3443  0.1601
  131OSM   C18S14146   4.489  -0.055   8.107  0.2683  0.2562  0.4456
  131OSM   H18S14147   4.411  -0.084   8.180 -1.0189 -1.6741 -1.5541
  131OSM   H18T14148   4.446   0.027   8.046  2.0854  1.4636  0.7212
  131OSM   H18U14149   4.582  -0.017   8.153  1.7565 -1.4253 -1.0061
  131OSM    C1F14150   4.770   0.061   6.688  0.9660  0.2548  0.0286
  131OSM     OF14151   4.726   0.179   6.682  0.1591 -0.1841  0.0308
  131OSM    C2F14152   4.879   0.030   6.784  0.6281  0.0645 -0.3034
  131OSM    H2F14153   4.974   0.006   6.731  1.8432 -1.0307  2.2221
  131OSM    H2G14154   4.846  -0.060   6.839 -0.7867  0.4846 -0.4413
  131OSM    C3F14155   4.894   0.148   6.886  0.0165  0.0188  0.7050
  131OSM    H3F14156   4.790   0.170   6.917 -0.9252 -2.2351 -0.6539
  131OSM    H3G14157   4.922   0.240   6.830 -3.5462  1.2146  0.6302
  131OSM    C4F14158   4.977   0.110   7.003 -0.3726 -0.7067 -0.5677
  131OSM    H4F14159   5.082   0.087   6.976  0.6242  1.5428  1.0661
  131OSM    H4G14160   4.938   0.012   7.037 -1.0918 -1.2715 -2.8197
  131OSM    C5F14161   4.987   0.215   7.121 -0.2182 -0.0689  0.4379
  131OSM    H5F14162   4.880   0.221   7.151 -0.3415 -0.1246  0.0181
  131OSM    H5G14163   5.021   0.309   7.072 -0.3271 -0.4704 -0.4158
  131OSM    C6F14164   5.073   0.167   7.239  0.4535 -0.0032  0.4784
  131OSM    H6F14165   5.180   0.180   7.212  0.4871 -0.0611  0.5811
  131OSM    H6G14166   5.051   0.059   7.252 -0.3898 -0.0859 -1.3864
  131OSM    C7F14167   5.047   0.238   7.366  0.1259  0.4619 -0.3400
  131OSM    H7F14168   5.042   0.348   7.355 -2.2639  0.7421  2.3940
  131OSM    H7G14169   5.141   0.222   7.422  0.0775  0.5232 -0.2425
  131OSM    C8F14170   4.931   0.189   7.455  0.3215 -0.8095 -0.4859
  131OSM    H8F14171   4.948   0.079   7.462 -0.3737 -0.8808  0.3547
  131OSM    H8G14172   4.832   0.209   7.410 -0.6205 -1.2757  1.2530
  131OSM    C9F14173   4.941   0.271   7.586  0.7705 -0.5184  0.0052
  131OSM    H9F14174   4.927   0.379   7.569 -1.0388 -0.7585 -0.2147
  131OSM   C10F14175   4.954   0.216   7.709  0.6657  0.1850 -0.0887
  131OSM   H10F14176   4.955   0.273   7.803 -0.2395  0.0784 -0.0063
  131OSM   C11F14177   4.950   0.068   7.734 -0.4957  0.0537  0.7969
  131OSM   H11F14178   5.051   0.028   7.710 -0.7934  0.8231 -2.1120
  131OSM   H11G14179   4.880   0.021   7.662 -0.9212  1.0648  0.5363
  131OSM   C12F14180   4.909   0.038   7.874 -0.2095 -0.3548  0.2316
  131OSM   H12F14181   4.877  -0.068   7.877 -0.4822 -0.4222 -2.6591
  131OSM   H12G14182   4.823   0.106   7.895 -1.1495 -0.9335 -1.5658
  131OSM   C13F14183   5.030   0.060   7.971  0.5303 -0.4535  0.4813
  131OSM   H13F14184   5.114   0.128   7.945  0.8895 -0.3846  1.7296
  131OSM   H13G14185   5.078  -0.040   7.978 -1.7451 -1.5359  1.8485
  131OSM   C14F14186   4.981   0.092   8.117  0.7285 -0.3525  1.0285
  131OSM   H14F14187   4.916   0.008   8.150  0.6748 -0.4076  0.7832
  131OSM   H14G14188   4.922   0.185   8.124 -0.3106 -0.4135 -3.9220
  131OSM   C15F14189   5.103   0.099   8.209  0.5256 -0.4610 -1.3535
  131OSM   H15F14190   5.149   0.199   8.199  0.6342 -0.0118  2.2922
  131OSM   H15G14191   5.173   0.017   8.183  1.0029 -0.5653  0.1571
  131OSM   C16F14192   5.071   0.103   8.368  0.5323  1.0228 -0.4044
  131OSM   H16F14193   5.162   0.076   8.425  0.1954 -0.6775 -0.6169
  131OSM   H16G14194   4.999   0.022   8.391  0.9883  1.3447  2.4860
  131OSM   C17F14195   5.011   0.236   8.407 -0.3588  0.0764 -0.2443
  131OSM   H17F14196   4.945   0.270   8.325  0.1759 -0.1130 -0.7560
  131OSM   H17G14197   5.084   0.320   8.407  0.6125 -0.7383  0.5326
  131OSM   C18F14198   4.942   0.237   8.544 -0.3175  0.9360  0.0777
  131OSM   H18F14199   5.021   0.209   8.618 -1.3893 -3.7108 -0.2325
  131OSM   H18G14200   4.864   0.159   8.551  0.3836  0.2859  0.8784
  131OSM   H18H14201   4.897   0.335   8.570 -1.1921  0.4461  0.4529
  132OSM      N14202   0.551   0.956   6.273 -0.0155 -0.4192  0.1679
  132OSM    C1514203   0.621   0.840   6.214 -1.0535 -0.1327  0.0613
  132OSM   H15A14204   0.704   0.823   6.281  0.3938 -2.9084 -2.2082
  132OSM   H15B14205   0.669   0.859   6.119  0.1703 -0.4562  0.5835
  132OSM   H15C14206   0.561   0.750   6.208  0.7101 -1.3442 -0.6790
  132OSM    C1414207   0.648   1.073   6.261  1.0691 -0.0189 -0.7231
  132OSM   H14A14208   0.743   1.042   6.303 -0.1050 -0.9435  1.4142
  132OSM   H14B14209   0.608   1.164   6.304 -0.9809 -0.9063 -0.6190
  132OSM   H14C14210   0.662   1.091   6.156  1.7250 -1.7222 -0.9666
  132OSM    C1314211   0.425   0.991   6.189 -0.3142  0.5360 -0.5139
  132OSM   H13A14212   0.384   1.088   6.213 -2.6254  0.0965 -2.2745
  132OSM   H13B14213   0.351   0.912   6.182 -2.1029  2.1406 -0.6671
  132OSM   H13C14214   0.464   0.999   6.089  1.1562 -0.4277 -0.0515
  132OSM    C1214215   0.516   0.933   6.422 -0.0730 -0.0831  0.3683
  132OSM   H12A14216   0.427   0.873   6.431 -0.2674  0.4376  2.5292
  132OSM   H12B14217   0.483   1.029   6.458  2.2873  0.6511  0.7749
  132OSM    C1114218   0.622   0.876   6.517  0.1073 -0.5307 -0.1239
  132OSM   H11A14219   0.575   0.882   6.618 -0.1140  0.1092 -0.2632
  132OSM   H11B14220   0.703   0.951   6.526  0.6950 -1.1263 -0.3680
  132OSM      P14221   0.804   0.708   6.509 -0.1426  0.4170 -0.1090
  132OSM    O1314222   0.827   0.564   6.492 -0.0193 -0.4233 -0.2145
  132OSM    O1414223   0.895   0.796   6.424  0.5714  0.8185 -0.2644
  132OSM    O1114224   0.825   0.747   6.657  0.5367  0.5802 -0.1621
  132OSM    O1214225   0.657   0.741   6.480 -1.0123 -0.0773  0.3222
  132OSM    C1S14226   0.791   0.664   6.772  0.1486  0.0637 -0.2346
  132OSM    H1S14227   0.836   0.562   6.769  0.9679  0.0250  4.8301
  132OSM    H1T14228   0.682   0.646   6.780 -0.1466  0.8143 -2.0520
  132OSM     NF14229   0.808   0.638   7.015 -0.3943 -0.4392 -0.2070
  132OSM    HNF14230   0.718   0.669   7.045  0.0794  2.7117 -1.6105
  132OSM    C2S14231   0.851   0.729   6.903  0.4657  0.7087 -0.2264
  132OSM    H2S14232   0.961   0.744   6.904  0.3314  1.9119 -0.7866
  132OSM    C3S14233   0.801   0.881   6.920  0.2419  0.4259  0.6368
  132OSM    H3S14234   0.693   0.873   6.943  0.2875 -1.6252  0.3291
  132OSM     O314235   0.813   0.961   6.800  0.0806  0.1046  0.2617
  132OSM    HO314236   0.824   0.891   6.736  1.0800 -0.1858  0.7301
  132OSM    C4S14237   0.857   0.939   7.042 -0.4771 -0.3764 -0.4161
  132OSM    H4S14238   0.791   0.927   7.129 -1.2800 -0.7013 -1.0617
  132OSM    C5S14239   0.978   0.992   7.063 -0.2362 -0.0568 -0.3321
  132OSM    H5S14240   1.049   1.004   6.980 -0.5817  0.6672 -0.5300
  132OSM    C6S14241   1.025   1.039   7.202  0.1269  0.2864  0.2568
  132OSM    H6S14242   1.129   1.008   7.227  0.3872  0.3895 -0.6507
  132OSM    H6T14243   0.959   1.011   7.286  0.0048  1.6576  0.6527
  132OSM    C7S14244   1.020   1.192   7.199 -0.2297 -0.0543 -0.9331
  132OSM    H7S14245   0.920   1.231   7.170  0.8562  2.5665 -1.3602
  132OSM    H7T14246   1.088   1.238   7.125  0.8030 -0.0167  0.0135
  132OSM    C8S14247   1.072   1.248   7.333  0.4511 -0.2237 -0.5947
  132OSM    H8S14248   1.167   1.195   7.356 -0.4646 -1.5987  0.1783
  132OSM    H8T14249   1.004   1.234   7.420  0.2571  0.5811 -0.6151
  132OSM    C9S14250   1.099   1.400   7.304 -0.2033  1.0541 -0.4805
  132OSM    H9S14251   1.010   1.443   7.253 -0.6466 -0.9039 -1.4460
  132OSM    H9T14252   1.192   1.400   7.243 -0.1862  1.6116 -0.4618
  132OSM   C10S14253   1.131   1.476   7.437 -0.3352  0.7279  0.5098
  132OSM   H10S14254   1.233   1.453   7.475  0.1211  2.6583  0.5531
  132OSM   H10T14255   1.043   1.449   7.500 -1.7389  2.1037 -0.7658
  132OSM   C11S14256   1.104   1.627   7.433 -0.2679  0.2564 -0.2360
  132OSM   H11S14257   1.036   1.644   7.347 -0.7810 -0.9030 -0.0773
  132OSM   H11T14258   1.201   1.677   7.410 -0.0180  0.0051  0.2530
  132OSM   C12S14259   1.032   1.676   7.559  0.0018 -0.0382 -0.4559
  132OSM   H12S14260   0.936   1.622   7.575  0.6044 -0.9453  0.1936
  132OSM   H12T14261   1.006   1.784   7.552 -2.7450 -0.4372  1.9892
  132OSM   C13S14262   1.119   1.662   7.691 -0.6017 -0.0092 -0.5483
  132OSM   H13S14263   1.214   1.713   7.667 -0.6967  0.1609 -0.5657
  132OSM   H13T14264   1.143   1.555   7.708  0.7718  0.4351  0.4409
  132OSM   C14S14265   1.040   1.711   7.813  0.6801  0.3442 -0.0607
  132OSM   H14S14266   0.940   1.662   7.818  0.1265  1.4509 -0.0058
  132OSM   H14T14267   1.016   1.819   7.807 -4.1377 -0.4080  1.1967
  132OSM   C15S14268   1.116   1.682   7.942 -0.7963 -0.5763 -0.2246
  132OSM   H15S14269   1.149   1.781   7.981 -0.9426 -0.1478 -1.1496
  132OSM   H15T14270   1.202   1.614   7.926  0.3097  0.3734  1.3179
  132OSM   C16S14271   1.026   1.627   8.050 -0.4606  0.1062 -0.2470
  132OSM   H16S14272   0.966   1.542   8.012  1.9502 -1.9234  0.2705
  132OSM   H16T14273   0.953   1.707   8.077  0.3337  0.3679  1.2689
  132OSM   C17S14274   1.092   1.588   8.189  0.3652  0.2583 -0.6816
  132OSM   H17S14275   1.132   1.676   8.245  0.8198 -0.2594 -0.1857
  132OSM   H17T14276   1.176   1.521   8.163 -0.4966 -0.8930 -0.5537
  132OSM   C18S14277   0.989   1.522   8.281 -0.5100 -0.1751  0.1177
  132OSM   H18S14278   0.935   1.439   8.231  0.0406 -0.4854  0.0307
  132OSM   H18T14279   0.916   1.593   8.324  0.9449  1.2484  0.3511
  132OSM   H18U14280   1.057   1.495   8.365  0.5925 -1.9263 -1.2564
  132OSM    C1F14281   0.871   0.525   7.046  0.3717  0.2865  0.0638
  132OSM     OF14282   0.949   0.474   6.971  0.1376  0.6763  0.4504
  132OSM    C2F14283   0.838   0.469   7.178 -0.9022  0.7400 -0.6344
  132OSM    H2F14284   0.792   0.370   7.158  0.6885 -0.2183  0.2279
  132OSM    H2G14285   0.776   0.535   7.243 -2.1899 -1.3540  0.3806
  132OSM    C3F14286   0.971   0.439   7.265  0.1853  0.2308 -0.0112
  132OSM    H3F14287   1.044   0.523   7.271  0.8537 -0.2697 -0.8139
  132OSM    H3G14288   1.032   0.364   7.211  1.4714  0.1124  1.5374
  132OSM    C4F14289   0.943   0.389   7.416 -0.7629 -0.5686  0.2602
  132OSM    H4F14290   1.037   0.344   7.457 -0.4688 -1.1295 -0.9722
  132OSM    H4G14291   0.867   0.308   7.413 -0.8805 -0.4715  0.5344
  132OSM    C5F14292   0.891   0.506   7.486  0.1512  0.2041 -0.0080
  132OSM    H5F14293   0.823   0.576   7.433 -0.9009  1.1865  2.4493
  132OSM    H5G14294   0.981   0.570   7.501  0.3685  0.0561 -0.6471
  132OSM    C6F14295   0.824   0.464   7.615 -0.0029  0.5260  0.3300
  132OSM    H6F14296   0.903   0.420   7.679  1.6948 -1.2110 -2.7138
  132OSM    H6G14297   0.753   0.379   7.608  1.2088 -0.4077 -1.0505
  132OSM    C7F14298   0.752   0.584   7.683  0.0590  0.0831 -0.7309
  132OSM    H7F14299   0.645   0.590   7.654 -0.0157  0.8497 -0.3071
  132OSM    H7G14300   0.809   0.671   7.645 -1.7015  1.6158 -0.0149
  132OSM    C8F14301   0.769   0.570   7.837  0.2322  0.4361  0.1148
  132OSM    H8F14302   0.736   0.666   7.882 -1.0805 -0.3684  0.9540
  132OSM    H8G14303   0.875   0.575   7.869  0.3283  3.1404 -0.4129
  132OSM    C9F14304   0.701   0.443   7.889 -0.0286  0.8801  0.0934
  132OSM    H9F14305   0.781   0.381   7.932  0.1593  0.9187 -0.1964
  132OSM   C10F14306   0.567   0.421   7.907 -0.6695 -0.1684 -0.0279
  132OSM   H10F14307   0.533   0.326   7.949  0.3248 -0.0712  1.0585
  132OSM   C11F14308   0.460   0.518   7.868  0.2097  0.4027 -0.0832
  132OSM   H11F14309   0.414   0.488   7.771 -1.5659  1.8480  0.2669
  132OSM   H11G14310   0.493   0.622   7.849 -1.3224  1.0141  0.4373
  132OSM   C12F14311   0.343   0.533   7.977 -0.5050 -0.0227 -0.3222
  132OSM   H12F14312   0.277   0.448   7.949  0.7984  0.0223 -3.9271
  132OSM   H12G14313   0.286   0.626   7.951  1.0507  2.2015  3.3505
  132OSM   C13F14314   0.363   0.535   8.123 -0.2967 -0.3282  0.4185
  132OSM   H13F14315   0.438   0.615   8.141 -0.4438  0.1522 -0.9584
  132OSM   H13G14316   0.396   0.438   8.165 -2.0719 -1.3516 -0.4342
  132OSM   C14F14317   0.229   0.577   8.184  0.7696  0.1312  0.5904
  132OSM   H14F14318   0.160   0.495   8.155  0.7794  0.4609 -0.3905
  132OSM   H14G14319   0.204   0.677   8.143  0.2221 -0.8770 -1.6670
  132OSM   C15F14320   0.237   0.564   8.331 -0.4706 -0.0230  0.3663
  132OSM   H15F14321   0.134   0.592   8.362 -1.2842 -1.2387 -1.1143
  132OSM   H15G14322   0.311   0.633   8.377 -0.3341 -0.2788  0.5381
  132OSM   C16F14323   0.273   0.426   8.396 -0.4147 -0.0958 -0.2159
  132OSM   H16F14324   0.372   0.390   8.360 -0.4728  0.3594 -0.8446
  132OSM   H16G14325   0.201   0.349   8.361  0.9809 -1.8105  0.5151
  132OSM   C17F14326   0.249   0.427   8.548  0.6710  0.1977  0.1357
  132OSM   H17F14327   0.147   0.464   8.570  0.5314 -1.2589  2.2335
  132OSM   H17G14328   0.322   0.499   8.592  0.5279  1.0519 -0.9725
  132OSM   C18F14329   0.272   0.288   8.620 -0.1745 -0.1421  0.2558
  132OSM   H18F14330   0.197   0.220   8.574 -0.0558  0.1394 -0.3651
  132OSM   H18G14331   0.271   0.293   8.731 -1.2734  1.5144  0.2162
  132OSM   H18H14332   0.367   0.242   8.585 -1.1043 -1.0111 -1.2086
  133OSM      N14333   1.186   0.733   6.211 -1.1149 -0.1541  0.4938
  133OSM    C1514334   1.224   0.862   6.278  0.2712  0.4435  0.3642
  133OSM   H15A14335   1.141   0.926   6.304 -0.9063 -0.3416 -1.2549
  133OSM   H15B14336   1.293   0.914   6.213  0.7037  1.3023  1.4656
  133OSM   H15C14337   1.294   0.851   6.359  1.2920  1.4795 -0.3359
  133OSM    C1414338   1.110   0.767   6.085  0.9003  0.0591 -0.0060
  133OSM   H14A14339   1.020   0.821   6.112  0.4465  0.1484 -1.5952
  133OSM   H14B14340   1.086   0.675   6.032  0.9884  0.8494 -1.4704
  133OSM   H14C14341   1.165   0.821   6.010  1.5805  0.4784  0.7822
  133OSM    C1314342   1.321   0.673   6.170  0.1656  0.3290 -0.6366
  133OSM   H13A14343   1.303   0.569   6.144 -0.0634  0.7375 -2.2256
  133OSM   H13B14344   1.387   0.661   6.254 -0.9311  0.1802  0.2211
  133OSM   H13C14345   1.362   0.735   6.091  0.4101  1.3752  0.2919
  133OSM    C1214346   1.104   0.642   6.300 -0.5921  0.0563  0.8269
  133OSM   H12A14347   1.006   0.684   6.318 -2.4855 -3.0296 -1.4127
  133OSM   H12B14348   1.148   0.633   6.398 -0.6110 -0.0600  0.8246
  133OSM    C1114349   1.078   0.495   6.255  0.6715 -0.2497  0.9794
  133OSM   H11A14350   1.024   0.506   6.159 -0.1185  0.3010  1.4840
  133OSM   H11B14351   1.006   0.462   6.332 -2.0031  2.9284  0.0380
  133OSM      P14352   1.283   0.342   6.340  0.0117  0.2796 -0.1951
  133OSM    O1314353   1.237   0.199   6.342  0.0409  0.3484  0.3878
  133OSM    O1414354   1.429   0.354   6.310 -0.1390 -0.2686 -0.3468
  133OSM    O1114355   1.233   0.438   6.464  0.2488  0.0956  0.2350
  133OSM    O1214356   1.196   0.416   6.229 -0.6209 -0.5373  0.3312
  133OSM    C1S14357   1.146   0.389   6.563 -0.1116  0.0318 -0.1058
  133OSM    H1S14358   1.128   0.280   6.563  0.6869 -0.1131 -1.1389
  133OSM    H1T14359   1.047   0.440   6.567 -0.2009 -0.0484 -1.1132
  133OSM     NF14360   1.147   0.349   6.802 -0.3402 -0.1596 -0.3916
  133OSM    HNF14361   1.070   0.394   6.848  1.9623  0.6105  3.0956
  133OSM    C2S14362   1.209   0.423   6.699 -0.3630 -0.1647 -0.6871
  133OSM    H2S14363   1.316   0.395   6.702 -0.9427 -2.5190  1.0748
  133OSM    C3S14364   1.192   0.580   6.723 -0.8961  0.5472 -0.3483
  133OSM    H3S14365   1.082   0.596   6.713 -0.9057  0.4987 -0.3212
  133OSM     O314366   1.253   0.648   6.610 -0.3845  0.1613 -0.5813
  133OSM    HO314367   1.275   0.579   6.546  2.5716  2.0068 -1.7511
  133OSM    C4S14368   1.242   0.635   6.857  0.5225 -0.0951  0.4356
  133OSM    H4S14369   1.156   0.643   6.925 -1.1613  0.0985 -1.6210
  133OSM    C5S14370   1.367   0.674   6.892 -0.0763 -0.3815  1.0845
  133OSM    H5S14371   1.444   0.666   6.814  1.0842 -0.9974  2.2531
  133OSM    C6S14372   1.399   0.741   7.018 -0.1250 -0.5691 -0.4707
  133OSM    H6S14373   1.402   0.851   7.002 -0.7702 -0.3633  0.7635
  133OSM    H6T14374   1.503   0.714   7.046  0.7942  3.0580  0.1965
  133OSM    C7S14375   1.299   0.708   7.139 -0.5033  0.2872 -0.3369
  133OSM    H7S14376   1.297   0.597   7.152 -0.3609  0.2163 -0.9013
  133OSM    H7T14377   1.194   0.739   7.122 -1.5373 -0.9314  2.9115
  133OSM    C8S14378   1.343   0.771   7.273 -0.4210 -0.2713  0.0568
  133OSM    H8S14379   1.372   0.874   7.244  0.4830 -0.1770  1.2761
  133OSM    H8T14380   1.436   0.724   7.310 -0.0105 -1.8123 -2.5956
  133OSM    C9S14381   1.237   0.772   7.373  0.0440  1.1930 -0.7579
  133OSM    H9S14382   1.201   0.672   7.407 -0.0128  1.1778 -0.8609
  133OSM    H9T14383   1.143   0.812   7.330 -2.0343 -2.7867 -0.4214
  133OSM   C10S14384   1.282   0.853   7.495  0.3026  0.9833 -0.0998
  133OSM   H10S14385   1.344   0.935   7.455  2.8784 -0.8254 -0.0636
  133OSM   H10T14386   1.339   0.783   7.560 -1.5732 -1.6830 -1.1366
  133OSM   C11S14387   1.167   0.905   7.583  0.5479 -0.3763  0.1089
  133OSM   H11S14388   1.102   0.827   7.628 -2.6117  3.3230  2.6513
  133OSM   H11T14389   1.098   0.973   7.528 -2.0488  0.0286  3.5217
  133OSM   C12S14390   1.223   0.979   7.710 -0.2448 -0.8733 -0.2502
  133OSM   H12S14391   1.274   0.905   7.776 -0.9589 -0.8298  0.3698
  133OSM   H12T14392   1.140   1.022   7.769 -0.3869 -2.6186  0.9053
  133OSM   C13S14393   1.326   1.095   7.689  0.0364 -0.4284 -0.0017
  133OSM   H13S14394   1.268   1.174   7.638  0.6413 -1.1034 -1.8335
  133OSM   H13T14395   1.419   1.063   7.635  0.9859 -0.8884  1.8253
  133OSM   C14S14396   1.360   1.155   7.826  0.1942  0.1678  0.2767
  133OSM   H14S14397   1.434   1.086   7.872 -0.7725 -1.2317 -0.1854
  133OSM   H14T14398   1.269   1.156   7.891  0.5660 -1.0626  0.8547
  133OSM   C15S14399   1.412   1.298   7.815  0.2969 -0.6731 -1.3981
  133OSM   H15S14400   1.330   1.357   7.770 -0.7843 -1.5830 -0.6822
  133OSM   H15T14401   1.509   1.300   7.760  1.3578 -0.4577  0.3938
  133OSM   C16S14402   1.437   1.334   7.965 -0.2481  0.3352 -0.5554
  133OSM   H16S14403   1.505   1.263   8.017 -1.4935 -0.5125 -0.0304
  133OSM   H16T14404   1.340   1.319   8.017 -0.7235 -2.2840 -1.9861
  133OSM   C17S14405   1.489   1.479   7.978 -0.6253 -0.2250 -0.1257
  133OSM   H17S14406   1.413   1.554   7.945  0.5419  1.5362  0.9830
  133OSM   H17T14407   1.579   1.489   7.914 -0.0646 -1.7149  0.3924
  133OSM   C18S14408   1.532   1.512   8.120  0.4562 -0.5790 -0.4678
  133OSM   H18S14409   1.527   1.621   8.142  2.1974 -0.9393  2.2737
  133OSM   H18T14410   1.637   1.476   8.129  1.2348  1.5911 -0.3992
  133OSM   H18U14411   1.476   1.457   8.200  0.7861  0.2555  0.3531
  133OSM    C1F14412   1.172   0.220   6.833 -0.0536  1.0648  0.2404
  133OSM     OF14413   1.262   0.154   6.783  0.0052 -0.1941 -0.4860
  133OSM    C2F14414   1.084   0.157   6.939  0.0393 -0.2935  0.5962
  133OSM    H2F14415   1.043   0.065   6.892 -0.4798 -0.0999  0.6571
  133OSM    H2G14416   0.997   0.224   6.957 -1.1886 -1.9586  1.1952
  133OSM    C3F14417   1.165   0.136   7.071 -0.9469  0.2615 -0.1465
  133OSM    H3F14418   1.201   0.239   7.092  0.1635  0.3221 -2.0912
  133OSM    H3G14419   1.255   0.074   7.051 -0.4741  0.5709  0.9693
  133OSM    C4F14420   1.076   0.061   7.175 -0.4982 -0.1106 -0.2332
  133OSM    H4F14421   1.070  -0.048   7.151  1.7174  0.1768 -2.5097
  133OSM    H4G14422   0.974   0.104   7.179 -1.2838 -1.9617  1.4165
  133OSM    C5F14423   1.124   0.088   7.318 -0.2829 -0.0885 -0.2925
  133OSM    H5F14424   1.128   0.196   7.343  2.5735 -0.1253 -0.2389
  133OSM    H5G14425   1.231   0.058   7.323 -0.1898  0.2995  0.2398
  133OSM    C6F14426   1.044   0.010   7.423 -0.2861 -0.1312 -0.3709
  133OSM    H6F14427   1.066  -0.096   7.398  1.0005  0.3474 -1.4265
  133OSM    H6G14428   0.935   0.026   7.409 -0.5625 -1.6469 -0.1405
  133OSM    C7F14429   1.097   0.051   7.557  0.0704 -0.9994 -0.3219
  133OSM    H7F14430   1.124   0.158   7.570 -1.8760 -0.5962  0.8640
  133OSM    H7G14431   1.187  -0.008   7.585 -0.7451 -3.2802 -2.1123
  133OSM    C8F14432   0.995   0.046   7.663  0.0112  0.7788 -0.0881
  133OSM    H8F14433   0.945  -0.053   7.662 -1.2767  1.4138 -1.3104
  133OSM    H8G14434   0.916   0.124   7.654 -1.9756 -1.0906  0.3947
  133OSM    C9F14435   1.063   0.065   7.796 -0.4541  0.0606 -0.5195
  133OSM    H9F14436   1.119   0.159   7.810  2.8996 -1.7014 -0.8878
  133OSM   C10F14437   1.081  -0.035   7.881 -0.1997  0.1397 -0.7160
  133OSM   H10F14438   1.133  -0.007   7.974 -0.8145 -0.6604 -0.1192
  133OSM   C11F14439   1.045  -0.180   7.869  0.5870  0.3732 -0.7509
  133OSM   H11F14440   1.135  -0.230   7.911  1.1095  2.0854  0.2400
  133OSM   H11G14441   1.032  -0.216   7.764  2.8797  0.8672 -1.2551
  133OSM   C12F14442   0.928  -0.220   7.966 -0.1533 -0.0629  0.0071
  133OSM   H12F14443   0.910  -0.329   7.954 -3.0993  0.5123 -1.9596
  133OSM   H12G14444   0.837  -0.168   7.929 -0.2918 -1.6108 -1.9936
  133OSM   C13F14445   0.953  -0.187   8.114 -0.5768 -0.5877 -0.5725
  133OSM   H13F14446   0.987  -0.082   8.131 -0.5431 -0.3372 -2.0177
  133OSM   H13G14447   1.046  -0.246   8.131 -0.3465 -0.6637 -1.9597
  133OSM   C14F14448   0.822  -0.232   8.190 -0.8660 -0.0703 -0.0378
  133OSM   H14F14449   0.828  -0.343   8.191  1.3077 -0.1014 -2.9725
  133OSM   H14G14450   0.740  -0.201   8.122 -0.1584 -1.2445 -1.4838
  133OSM   C15F14451   0.805  -0.191   8.332  0.1640  1.1569  0.1642
  133OSM   H15F14452   0.786  -0.082   8.341 -0.5962  1.1672 -1.2169
  133OSM   H15G14453   0.903  -0.213   8.381 -0.2757 -1.3758  0.0321
  133OSM   C16F14454   0.704  -0.271   8.404 -0.2087  0.5189  0.3147
  133OSM   H16F14455   0.725  -0.380   8.409 -0.3527  0.5126  0.9073
  133OSM   H16G14456   0.610  -0.256   8.347  0.3166  0.0850 -0.7029
  133OSM   C17F14457   0.696  -0.220   8.556  0.1285  0.6279  0.7398
  133OSM   H17F14458   0.606  -0.270   8.597 -0.5463  1.0952 -0.1404
  133OSM   H17G14459   0.680  -0.111   8.543 -0.3542  0.7767  2.3485
  133OSM   C18F14460   0.807  -0.241   8.660  0.0844 -0.5688 -0.0587
  133OSM   H18F14461   0.821  -0.350   8.680 -1.1974 -0.3800  2.2150
  133OSM   H18G14462   0.797  -0.192   8.759  0.6659 -0.6450  0.0418
  133OSM   H18H14463   0.902  -0.201   8.618 -0.1346  2.3692  1.9376
  134OSM      N14464   2.466   3.831   6.387 -0.1462  0.1195  0.0826
  134OSM    C1514465   2.347   3.886   6.316  0.1979 -0.8875 -0.1231
  134OSM   H15A14466   2.296   3.798   6.281  0.9224 -1.5562  0.4671
  134OSM   H15B14467   2.376   3.954   6.237 -0.7276  3.1206  2.6420
  134OSM   H15C14468   2.280   3.939   6.382  0.6379 -0.9758  0.4032
  134OSM    C1414469   2.519   3.721   6.299 -0.0868 -0.1299  0.4224
  134OSM   H14A14470   2.440   3.648   6.291 -0.6937  0.7042 -1.7184
  134OSM   H14B14471   2.602   3.669   6.345  0.0388 -2.3791 -2.1214
  134OSM   H14C14472   2.539   3.754   6.198  0.7858 -0.5054  0.4611
  134OSM    C1314473   2.576   3.936   6.394  0.3771  0.0302  0.0289
  134OSM   H13A14474   2.562   4.018   6.462  1.2883  0.4602 -0.2924
  134OSM   H13B14475   2.595   3.971   6.294  1.5290 -0.7029 -0.0238
  134OSM   H13C14476   2.665   3.890   6.434 -1.4363 -3.0233  0.9510
  134OSM    C1214477   2.434   3.779   6.529 -0.0700  0.6485 -0.1612
  134OSM   H12A14478   2.349   3.713   6.525  0.2361  0.0644  1.7803
  134OSM   H12B14479   2.406   3.871   6.579 -0.5173  0.7366 -0.5676
  134OSM    C1114480   2.548   3.705   6.607  0.9457 -0.0973 -0.1131
  134OSM   H11A14481   2.517   3.694   6.713  1.6343  0.2228  0.1277
  134OSM   H11B14482   2.642   3.763   6.601 -0.4600  2.2232 -0.9171
  134OSM      P14483   2.453   3.463   6.565 -0.2494 -0.0452 -0.0674
  134OSM    O1314484   2.320   3.508   6.526  0.2323 -0.1060  0.5830
  134OSM    O1414485   2.507   3.333   6.517  0.3678  0.7831  0.6951
  134OSM    O1114486   2.448   3.451   6.725 -0.1222 -0.7367 -0.2597
  134OSM    O1214487   2.561   3.574   6.539 -0.1022  0.0046 -0.1739
  134OSM    C1S14488   2.561   3.438   6.810  0.4214 -0.4055  0.6070
  134OSM    H1S14489   2.590   3.532   6.862  0.9022  0.9517 -1.9272
  134OSM    H1T14490   2.653   3.396   6.763  1.7467  2.6639  0.2254
  134OSM     NF14491   2.641   3.355   7.015 -0.2920 -0.3192 -0.6182
  134OSM    HNF14492   2.724   3.307   6.989 -0.3658 -1.2783  0.8414
  134OSM    C2S14493   2.522   3.344   6.927  0.4349  0.3198 -0.1469
  134OSM    H2S14494   2.431   3.392   6.969  2.2826  2.6199  1.5645
  134OSM    C3S14495   2.496   3.199   6.882 -0.4513 -0.4986 -1.5315
  134OSM    H3S14496   2.584   3.169   6.820  1.4943 -1.1504  1.3200
  134OSM     O314497   2.380   3.196   6.799  0.1319  0.4207  0.2430
  134OSM    HO314498   2.373   3.289   6.780 -0.2253  0.5299  0.8608
  134OSM    C4S14499   2.490   3.108   7.006 -0.3141 -0.5741 -0.1221
  134OSM    H4S14500   2.401   3.126   7.069 -0.1690  0.9770 -0.3138
  134OSM    C5S14501   2.578   3.015   7.040  0.2116  0.1907  0.3729
  134OSM    H5S14502   2.659   2.992   6.969 -1.2508 -0.8627 -1.0187
  134OSM    C6S14503   2.576   2.922   7.160 -0.7080 -0.5990  0.1436
  134OSM    H6S14504   2.646   2.837   7.145 -1.2969 -0.8816 -1.0853
  134OSM    H6T14505   2.477   2.873   7.166 -2.0061  1.6547 -1.2617
  134OSM    C7S14506   2.585   2.973   7.306  0.2088  0.0363 -0.0271
  134OSM    H7S14507   2.495   3.034   7.327  2.5977  4.4210 -1.2278
  134OSM    H7T14508   2.666   3.034   7.354 -0.3277 -0.1995  1.2258
  134OSM    C8S14509   2.595   2.844   7.397  0.1823 -0.4887 -0.2880
  134OSM    H8S14510   2.687   2.787   7.372  0.5646  0.7575 -1.9476
  134OSM    H8T14511   2.509   2.782   7.363  0.8270 -1.2547 -0.5367
  134OSM    C9S14512   2.581   2.876   7.547 -0.5113 -0.7029  0.0353
  134OSM    H9S14513   2.515   2.965   7.559 -0.6135 -0.6431 -0.8991
  134OSM    H9T14514   2.676   2.921   7.583 -0.5284  1.5819 -2.3994
  134OSM   C10S14515   2.553   2.754   7.636  0.1429 -0.5161 -0.5455
  134OSM   H10S14516   2.616   2.669   7.604  1.7573  1.0769 -1.7677
  134OSM   H10T14517   2.448   2.720   7.621  0.3297 -1.0170 -0.7497
  134OSM   C11S14518   2.572   2.786   7.788  0.6965 -0.5336  0.8825
  134OSM   H11S14519   2.497   2.858   7.828 -0.2848 -1.7604  1.3570
  134OSM   H11T14520   2.667   2.843   7.797  0.2909  0.0062  1.9755
  134OSM   C12S14521   2.583   2.667   7.883 -0.6327  0.1439 -0.4140
  134OSM   H12S14522   2.643   2.584   7.842 -2.4855 -0.6941 -1.5658
  134OSM   H12T14523   2.485   2.617   7.896  0.4020 -1.7497  0.5215
  134OSM   C13S14524   2.643   2.702   8.024 -1.2052 -0.6204 -0.4865
  134OSM   H13S14525   2.743   2.749   8.026 -0.4590 -2.1668  1.3991
  134OSM   H13T14526   2.660   2.599   8.062  0.0148 -0.3939 -0.3885
  134OSM   C14S14527   2.541   2.765   8.115 -0.0920 -0.2949 -0.2665
  134OSM   H14S14528   2.445   2.711   8.104  0.3122 -1.0284 -0.2474
  134OSM   H14T14529   2.525   2.872   8.091 -0.4064 -0.0873  0.7835
  134OSM   C15S14530   2.587   2.752   8.264  0.1290 -0.3320  0.5187
  134OSM   H15S14531   2.662   2.831   8.284  0.7521 -0.3146 -1.6333
  134OSM   H15T14532   2.629   2.649   8.271 -1.3252 -1.0684 -0.9459
  134OSM   C16S14533   2.470   2.761   8.354  0.0801  0.1686 -0.1743
  134OSM   H16S14534   2.396   2.682   8.328  0.9854 -0.0120 -2.4032
  134OSM   H16T14535   2.413   2.855   8.341 -0.4456 -0.4230 -2.6962
  134OSM   C17S14536   2.517   2.736   8.498  0.6831 -0.3198 -0.1949
  134OSM   H17S14537   2.562   2.834   8.525  3.3523 -0.4353 -3.5500
  134OSM   H17T14538   2.601   2.663   8.500 -0.3773 -1.6202 -1.1999
  134OSM   C18S14539   2.400   2.688   8.583 -0.6361  0.3039 -0.6759
  134OSM   H18S14540   2.379   2.756   8.669  1.1787  0.0455  0.0182
  134OSM   H18T14541   2.418   2.590   8.633  0.9381  0.7903 -0.2066
  134OSM   H18U14542   2.308   2.681   8.521  1.1693  1.8721 -3.7293
  134OSM    C1F14543   2.652   3.455   7.094  0.0172  0.2346 -0.6879
  134OSM     OF14544   2.557   3.520   7.118  0.6533  0.7636  0.2888
  134OSM    C2F14545   2.782   3.505   7.145 -0.0268  0.7620 -1.2732
  134OSM    H2F14546   2.800   3.598   7.086  1.3732 -0.7351 -3.3865
  134OSM    H2G14547   2.862   3.434   7.116 -0.8252 -0.9547  0.5631
  134OSM    C3F14548   2.789   3.548   7.293  0.0439 -0.8475  0.0332
  134OSM    H3F14549   2.768   3.457   7.353  0.7765 -2.3308 -1.8594
  134OSM    H3G14550   2.709   3.623   7.308  0.2979 -0.8427  1.5652
  134OSM    C4F14551   2.923   3.611   7.326 -0.6941  0.0657 -0.2079
  134OSM    H4F14552   2.930   3.677   7.237 -3.3143 -0.0988 -0.6082
  134OSM    H4G14553   2.997   3.532   7.300 -1.3519 -0.7568  0.3882
  134OSM    C5F14554   2.937   3.678   7.458  0.0908 -0.6090  0.4866
  134OSM    H5F14555   2.886   3.776   7.453  0.0760 -0.6599 -0.9942
  134OSM    H5G14556   3.043   3.711   7.457 -0.8209  2.6735 -0.5159
  134OSM    C6F14557   2.898   3.596   7.576  0.0948 -0.1415 -0.1783
  134OSM    H6F14558   2.923   3.490   7.551 -1.7001 -0.4878 -0.7211
  134OSM    H6G14559   2.787   3.597   7.582  0.0571 -1.1714 -0.4996
  134OSM    C7F14560   2.976   3.641   7.698 -0.6215  0.3358 -0.5955
  134OSM    H7F14561   2.960   3.750   7.715 -3.0167 -0.0451  0.0169
  134OSM    H7G14562   3.084   3.628   7.678 -0.4970 -2.1220  1.2942
  134OSM    C8F14563   2.954   3.555   7.822 -0.2882  0.2939 -0.3952
  134OSM    H8F14564   3.026   3.579   7.903  0.4469  0.2063 -1.0099
  134OSM    H8G14565   2.964   3.449   7.792 -1.6847  0.6728 -2.3788
  134OSM    C9F14566   2.816   3.584   7.883  0.2572 -0.2370  0.7351
  134OSM    H9F14567   2.741   3.569   7.805 -0.6014  0.4052  1.4209
  134OSM   C10F14568   2.778   3.623   8.009  0.1740  0.5019 -0.0202
  134OSM   H10F14569   2.674   3.653   8.028  0.5106  0.2622  2.5993
  134OSM   C11F14570   2.868   3.645   8.129 -0.1083 -0.8877 -0.1411
  134OSM   H11F14571   2.817   3.720   8.193  0.9326 -1.8140  1.8442
  134OSM   H11G14572   2.967   3.692   8.112 -0.1696 -0.5670  0.3734
  134OSM   C12F14573   2.895   3.525   8.224 -0.6341  0.0070 -0.2332
  134OSM   H12F14574   2.945   3.442   8.170  0.7708  1.0903 -0.6532
  134OSM   H12G14575   2.794   3.493   8.256  0.1987 -2.4247  0.1653
  134OSM   C13F14576   2.991   3.549   8.351  0.1537 -0.2102 -0.1237
  134OSM   H13F14577   3.074   3.599   8.297 -0.3954 -1.2613 -2.0345
  134OSM   H13G14578   3.044   3.456   8.381  1.8690  0.4522 -0.9119
  134OSM   C14F14579   2.940   3.631   8.475 -0.1222 -0.4532 -0.7340
  134OSM   H14F14580   2.883   3.721   8.445 -1.0312 -0.7019  0.2166
  134OSM   H14G14581   3.028   3.657   8.537 -0.5356 -1.2766  0.2233
  134OSM   C15F14582   2.844   3.555   8.572  0.3652  0.9351  0.1991
  134OSM   H15F14583   2.900   3.462   8.594 -0.8512 -0.1122 -0.9841
  134OSM   H15G14584   2.759   3.520   8.508  0.3408 -0.3718  0.9119
  134OSM   C16F14585   2.802   3.612   8.702  0.0728  0.1483  0.2613
  134OSM   H16F14586   2.753   3.708   8.675 -0.9812 -0.4980 -0.1549
  134OSM   H16G14587   2.884   3.642   8.771 -0.1012  1.4248 -0.0600
  134OSM   C17F14588   2.701   3.522   8.781  0.2388 -0.2894  0.3089
  134OSM   H17F14589   2.748   3.422   8.774  0.6721 -0.1371  0.9831
  134OSM   H17G14590   2.614   3.531   8.713  0.2752 -2.0196 -0.0045
  134OSM   C18F14591   2.695   3.564   8.928 -0.0593  0.4359  0.2126
  134OSM   H18F14592   2.793   3.551   8.980 -1.3856 -2.7453  2.1548
  134OSM   H18G14593   2.639   3.483   8.978  1.9833 -0.0868  1.7811
  134OSM   H18H14594   2.649   3.665   8.935 -2.0500 -0.2534 -1.7556
  135OSM      N14595   2.243   3.139   6.317 -0.0856 -0.2281  0.1428
  135OSM    C1514596   2.228   3.129   6.466 -0.8224 -0.6857 -0.1714
  135OSM   H15A14597   2.157   3.050   6.489 -0.5441 -0.7490  0.4815
  135OSM   H15B14598   2.195   3.221   6.510  1.8718 -0.4230  1.5520
  135OSM   H15C14599   2.325   3.122   6.513  0.0579  4.0970 -0.8005
  135OSM    C1414600   2.338   3.251   6.287  0.3781  0.3757  0.0362
  135OSM   H14A14601   2.363   3.262   6.183  1.6918 -0.7244  0.1946
  135OSM   H14B14602   2.433   3.239   6.339  0.3678  1.1164  0.2448
  135OSM   H14C14603   2.293   3.346   6.313  1.5579  1.5368 -1.8975
  135OSM    C1314604   2.312   3.014   6.273  0.2471 -0.2715 -0.5485
  135OSM   H13A14605   2.351   3.032   6.174  0.8616  0.4500 -0.1955
  135OSM   H13B14606   2.245   2.930   6.267 -0.1918  0.1767 -3.0767
  135OSM   H13C14607   2.391   2.984   6.341 -0.5440 -0.9528  0.0832
  135OSM    C1214608   2.102   3.155   6.260 -0.5945  0.2412 -0.3922
  135OSM   H12A14609   2.056   3.062   6.290 -0.4754  0.2625 -0.1412
  135OSM   H12B14610   2.099   3.155   6.152  2.0809 -1.8890 -0.5578
  135OSM    C1114611   2.015   3.279   6.303 -0.0329 -0.0885  0.8744
  135OSM   H11A14612   1.917   3.266   6.254  0.2804 -4.5854  1.0388
  135OSM   H11B14613   2.063   3.375   6.273 -0.7114 -0.9525 -3.5495
  135OSM      P14614   1.860   3.324   6.521 -0.1426  0.3091 -0.5135
  135OSM    O1314615   1.841   3.464   6.478  0.1892  0.3232 -0.0724
  135OSM    O1414616   1.742   3.235   6.492 -0.6225  0.0100 -0.0527
  135OSM    O1114617   1.884   3.307   6.677  0.2740  0.1379 -0.6660
  135OSM    O1214618   1.993   3.282   6.451 -0.3835  0.1849  0.2020
  135OSM    C1S14619   2.012   3.329   6.741 -0.3937 -1.0415 -0.2343
  135OSM    H1S14620   2.069   3.409   6.687  0.7231  0.5855  3.0877
  135OSM    H1T14621   2.076   3.238   6.740 -0.4831 -1.1151  0.6611
  135OSM     NF14622   2.112   3.461   6.927  0.3603 -0.0547  0.6810
  135OSM    HNF14623   2.178   3.423   6.991 -0.2600 -5.3155 -1.3236
  135OSM    C2S14624   2.003   3.375   6.883 -0.0356  0.1168 -0.9808
  135OSM    H2S14625   1.920   3.447   6.894  1.5018  1.6249  2.1157
  135OSM    C3S14626   1.975   3.254   6.976 -0.1646  0.4061 -0.5923
  135OSM    H3S14627   2.071   3.200   6.992 -1.2449 -1.3471  0.2991
  135OSM     O314628   1.879   3.165   6.921 -0.2763  0.4282  0.4610
  135OSM    HO314629   1.871   3.191   6.829 -0.9438 -1.1377  0.0344
  135OSM    C4S14630   1.928   3.310   7.104  0.4808  1.1026 -0.3143
  135OSM    H4S14631   1.848   3.386   7.107 -0.9885 -0.3738 -0.4978
  135OSM    C5S14632   1.971   3.266   7.218 -0.3130 -0.5307  0.0341
  135OSM    H5S14633   2.030   3.175   7.205 -0.1114 -0.3793 -0.1181
  135OSM    C6S14634   1.928   3.305   7.354  0.7216  0.8217  0.2587
  135OSM    H6S14635   1.842   3.374   7.365 -0.8485 -1.2321  1.7996
  135OSM    H6T14636   2.015   3.354   7.402  2.0185  1.1520 -2.2477
  135OSM    C7S14637   1.895   3.169   7.432 -0.3957  0.2664 -0.2097
  135OSM    H7S14638   1.979   3.096   7.422 -1.0890 -0.4828 -0.6801
  135OSM    H7T14639   1.809   3.127   7.375  1.5915 -2.2084 -1.6107
  135OSM    C8S14640   1.856   3.200   7.582  0.2094 -0.2187 -0.1749
  135OSM    H8S14641   1.784   3.121   7.612  0.4463 -2.2091 -4.0764
  135OSM    H8T14642   1.794   3.291   7.577  1.3210  0.6272  0.8844
  135OSM    C9S14643   1.966   3.217   7.683  0.6340  0.0167  0.6749
  135OSM    H9S14644   2.012   3.316   7.663 -0.2301 -0.1856 -3.0562
  135OSM    H9T14645   2.040   3.135   7.674 -0.7543 -1.1275 -0.9179
  135OSM   C10S14646   1.918   3.220   7.830  0.5994  0.0686  0.2112
  135OSM   H10S14647   1.873   3.123   7.859  1.1704  0.0127  0.9431
  135OSM   H10T14648   1.828   3.287   7.832  1.9600  1.9881  2.0746
  135OSM   C11S14649   2.026   3.280   7.917 -0.8751 -0.1337  0.0820
  135OSM   H11S14650   2.038   3.386   7.883 -3.0413  0.5495  1.2541
  135OSM   H11T14651   2.121   3.226   7.894 -1.0874 -1.4166  1.9864
  135OSM   C12S14652   1.993   3.281   8.077 -0.1209 -0.1535  0.4108
  135OSM   H12S14653   1.888   3.317   8.078 -0.3446 -0.5030 -2.4359
  135OSM   H12T14654   2.051   3.362   8.125  0.5647  0.2484 -1.0542
  135OSM   C13S14655   2.004   3.148   8.142 -0.3630 -0.3388 -0.2756
  135OSM   H13S14656   2.111   3.119   8.134  0.6044  3.1137 -1.7258
  135OSM   H13T14657   1.934   3.072   8.102  0.4097 -1.0538 -0.2843
  135OSM   C14S14658   1.963   3.153   8.293 -0.4340  0.2799 -0.2741
  135OSM   H14S14659   1.854   3.170   8.306 -0.1483  1.5681  0.5986
  135OSM   H14T14660   2.028   3.219   8.354  2.2928 -2.4948  0.0084
  135OSM   C15S14661   1.988   3.010   8.354 -0.9000  0.3312  0.4801
  135OSM   H15S14662   2.091   2.975   8.333 -1.8900 -1.3417 -2.0572
  135OSM   H15T14663   1.923   2.935   8.303 -0.1767  0.5848 -0.8482
  135OSM   C16S14664   1.960   3.012   8.508 -0.4778 -0.9830 -0.6316
  135OSM   H16S14665   1.857   3.051   8.520  0.3856  0.9284  1.2667
  135OSM   H16T14666   2.039   3.081   8.545  0.2058 -0.8301 -2.2688
  135OSM   C17S14667   1.960   2.869   8.565 -0.3392  0.2180  0.1936
  135OSM   H17S14668   2.041   2.808   8.518 -1.2410  0.2459 -1.4935
  135OSM   H17T14669   1.869   2.826   8.518  0.1506 -0.6519  0.0224
  135OSM   C18S14670   1.947   2.864   8.714 -0.6969  0.6644 -0.3999
  135OSM   H18S14671   2.042   2.876   8.770 -1.0594 -1.0462  0.6530
  135OSM   H18T14672   1.901   2.764   8.731 -1.1164  0.7252 -1.1359
  135OSM   H18U14673   1.883   2.947   8.751 -0.8934  0.0415  0.6860
  135OSM    C1F14674   2.130   3.582   6.872  0.1565  0.5861 -0.3170
  135OSM     OF14675   2.059   3.630   6.785  0.2887 -0.5833  0.2673
  135OSM    C2F14676   2.243   3.664   6.935  0.3457  0.7733  0.5954
  135OSM    H2F14677   2.333   3.600   6.941  1.7283  2.6593  0.8250
  135OSM    H2G14678   2.203   3.668   7.039 -2.3343 -1.1326 -0.2446
  135OSM    C3F14679   2.267   3.806   6.881  0.3068  0.3076  0.2423
  135OSM    H3F14680   2.173   3.862   6.896  0.1264  0.1084 -0.1217
  135OSM    H3G14681   2.276   3.796   6.770  0.7566  0.7908  0.2293
  135OSM    C4F14682   2.396   3.864   6.929 -0.2923  0.0767  0.0906
  135OSM    H4F14683   2.420   3.937   6.848 -2.9141  1.0878  0.1175
  135OSM    H4G14684   2.467   3.779   6.941 -0.8470 -0.1902  1.6361
  135OSM    C5F14685   2.376   3.937   7.064  0.0584  0.2919  0.7148
  135OSM    H5F14686   2.315   3.873   7.132 -0.9359 -0.3973 -0.7782
  135OSM    H5G14687   2.306   4.018   7.035 -0.8427 -0.6972  0.0599
  135OSM    C6F14688   2.506   3.986   7.133  0.1605 -0.1904  0.2912
  135OSM    H6F14689   2.567   4.044   7.061  0.6765 -1.5377 -0.3843
  135OSM    H6G14690   2.579   3.906   7.154  1.5432  1.1033  0.6277
  135OSM    C7F14691   2.470   4.061   7.262  0.4122  0.1969  0.3600
  135OSM    H7F14692   2.382   4.122   7.235 -0.9686 -1.2257  1.4902
  135OSM    H7G14693   2.552   4.128   7.296  0.4035  0.6559 -0.4842
  135OSM    C8F14694   2.429   3.976   7.389  0.4243 -0.0351  0.1386
  135OSM    H8F14695   2.357   3.902   7.349  2.1364 -1.4934 -0.3467
  135OSM    H8G14696   2.365   4.036   7.458 -1.6868  0.3625 -2.0421
  135OSM    C9F14697   2.546   3.917   7.460 -0.1618  0.1142 -0.2606
  135OSM    H9F14698   2.616   3.852   7.407  1.1216  2.7169 -1.9742
  135OSM   C10F14699   2.572   3.931   7.598  0.3865  0.2235 -0.0343
  135OSM   H10F14700   2.657   3.875   7.640 -0.1501  0.0575  0.8265
  135OSM   C11F14701   2.493   3.996   7.699  0.4587 -1.3250 -0.7145
  135OSM   H11F14702   2.415   4.060   7.653  1.0975  0.7638  0.9268
  135OSM   H11G14703   2.565   4.062   7.753 -1.0439 -1.8385  2.0780
  135OSM   C12F14704   2.435   3.909   7.805  0.3700  0.8594 -0.4061
  135OSM   H12F14705   2.516   3.855   7.858 -1.2052 -2.9180 -1.4980
  135OSM   H12G14706   2.364   3.832   7.766 -0.3979  2.3067 -1.9979
  135OSM   C13F14707   2.350   3.990   7.906  0.3130 -0.1085 -0.0427
  135OSM   H13F14708   2.260   4.021   7.849 -0.2055 -3.1166 -1.0251
  135OSM   H13G14709   2.399   4.083   7.941  1.2270 -0.8469  0.6897
  135OSM   C14F14710   2.318   3.923   8.034  1.0790  0.0861 -0.1300
  135OSM   H14F14711   2.262   3.833   8.001  0.9254 -0.4257  1.4494
  135OSM   H14G14712   2.238   3.972   8.094  0.9095 -0.7509  0.3439
  135OSM   C15F14713   2.436   3.891   8.129  0.0293 -0.0169  0.3895
  135OSM   H15F14714   2.493   3.983   8.155 -1.9436  1.9497 -1.6658
  135OSM   H15G14715   2.503   3.828   8.068  1.6029  1.3162  0.6680
  135OSM   C16F14716   2.406   3.819   8.258  0.8272 -0.2095 -0.8809
  135OSM   H16F14717   2.355   3.721   8.240  0.0086  0.3052 -1.4602
  135OSM   H16G14718   2.348   3.883   8.328  3.4361  0.3333  0.9197
  135OSM   C17F14719   2.533   3.777   8.334  0.0306  0.4017  0.1747
  135OSM   H17F14720   2.600   3.865   8.346 -0.3924  0.5891  1.2459
  135OSM   H17G14721   2.589   3.708   8.267 -0.3044  2.3360 -2.2807
  135OSM   C18F14722   2.513   3.699   8.465  0.2434 -0.2055 -0.6235
  135OSM   H18F14723   2.467   3.769   8.537  0.2805 -0.5443 -0.2692
  135OSM   H18G14724   2.606   3.661   8.512  0.2194  1.3993  0.8147
  135OSM   H18H14725   2.449   3.609   8.455  2.8990 -2.3301  0.1493
  136OSM      N14726   6.635   3.149   5.902 -0.2073  0.6011  0.0856
  136OSM    C1514727   6.793   3.154   5.904  0.2485  0.0186  0.3915
  136OSM   H15A14728   6.833   3.102   5.818  0.6284 -0.2731  0.7369
  136OSM   H15B14729   6.828   3.093   5.986 -1.8300 -0.0670  1.2909
  136OSM   H15C14730   6.843   3.248   5.888 -0.4625 -0.0271 -2.7022
  136OSM    C1414731   6.593   3.240   5.792  0.3359  0.1518  0.0846
  136OSM   H14A14732   6.632   3.339   5.808 -0.8620  0.4853  1.1044
  136OSM   H14B14733   6.486   3.253   5.786  0.4307  0.4680 -1.1336
  136OSM   H14C14734   6.632   3.215   5.695 -1.5695  1.1471 -0.9987
  136OSM    C1314735   6.591   3.008   5.862 -0.0458  0.0068 -0.5588
  136OSM   H13A14736   6.612   2.979   5.761 -1.0965 -0.1134 -0.7541
  136OSM   H13B14737   6.484   3.003   5.877  0.1012 -2.0603  0.1024
  136OSM   H13C14738   6.636   2.930   5.922  1.9915 -0.5259 -2.6276
  136OSM    C1214739   6.577   3.182   6.041 -0.7206 -0.0887  0.0097
  136OSM   H12A14740   6.469   3.185   6.044 -0.7188  0.8054 -0.4164
  136OSM   H12B14741   6.589   3.288   6.052 -0.1083 -0.1509  0.0032
  136OSM    C1114742   6.606   3.097   6.164  0.2593 -0.1482  0.1268
  136OSM   H11A14743   6.588   2.991   6.134 -0.1973 -0.6524  2.0546
  136OSM   H11B14744   6.534   3.112   6.247 -0.1581 -0.5532 -0.1555
  136OSM      P14745   6.799   3.232   6.285 -0.1583 -0.0124  0.1252
  136OSM    O1314746   6.777   3.238   6.425  0.0448 -0.4309 -0.2809
  136OSM    O1414747   6.938   3.234   6.233  0.4427  0.0396 -0.1239
  136OSM    O1114748   6.729   3.359   6.218 -0.7363 -0.4777 -0.1185
  136OSM    O1214749   6.739   3.102   6.214  0.1796 -0.4874 -0.6845
  136OSM    C1S14750   6.615   3.424   6.276  0.3277 -1.2309  0.2081
  136OSM    H1S14751   6.558   3.348   6.334 -0.4089 -1.2756 -0.5667
  136OSM    H1T14752   6.545   3.458   6.198  0.8608 -0.1845  0.1689
  136OSM     NF14753   6.529   3.581   6.446  0.5367 -0.2052 -0.8895
  136OSM    HNF14754   6.472   3.646   6.396  1.6198  1.5141  0.0230
  136OSM    C2S14755   6.649   3.553   6.367 -0.0903  0.2089 -0.7772
  136OSM    H2S14756   6.727   3.517   6.438 -1.5197  0.1936  0.8559
  136OSM    C3S14757   6.695   3.668   6.278  0.1458  0.0654 -0.3232
  136OSM    H3S14758   6.612   3.688   6.207 -2.2028 -2.4478  1.5009
  136OSM     O314759   6.817   3.643   6.201 -0.0184  0.4175 -0.0558
  136OSM    HO314760   6.830   3.549   6.213 -0.3682  0.6222  2.4493
  136OSM    C4S14761   6.706   3.792   6.354  0.2959 -0.1275 -0.6709
  136OSM    H4S14762   6.622   3.862   6.350  0.7675  0.3847 -1.8841
  136OSM    C5S14763   6.802   3.826   6.443 -0.9496  0.1926 -0.2751
  136OSM    H5S14764   6.882   3.753   6.459 -1.6856 -0.6876 -0.5261
  136OSM    C6S14765   6.816   3.953   6.520 -0.7423 -0.2308 -0.0938
  136OSM    H6S14766   6.755   4.038   6.483  0.9324  0.8866 -0.3754
  136OSM    H6T14767   6.920   3.989   6.517 -1.4803  1.9750 -0.7484
  136OSM    C7S14768   6.782   3.939   6.671 -0.2989  0.2376 -0.5585
  136OSM    H7S14769   6.681   3.894   6.683 -0.5317  0.6056 -1.1289
  136OSM    H7T14770   6.795   4.037   6.722 -2.5239 -0.3120  1.2609
  136OSM    C8S14771   6.893   3.853   6.746  0.1719  0.1339  1.1164
  136OSM    H8S14772   6.990   3.894   6.713 -1.5404  3.0527 -0.6320
  136OSM    H8T14773   6.895   3.749   6.706 -0.6677  0.0481  1.2804
  136OSM    C9S14774   6.877   3.846   6.898  0.2858 -0.2080  0.4848
  136OSM    H9S14775   6.871   3.948   6.941 -0.9624 -0.0554 -0.0108
  136OSM    H9T14776   6.962   3.791   6.943 -1.7037 -3.7387  0.3516
  136OSM   C10S14777   6.751   3.766   6.943  0.5299 -0.1183  0.3137
  136OSM   H10S14778   6.754   3.660   6.910  1.2181 -0.6793  2.0622
  136OSM   H10T14779   6.652   3.805   6.913  0.1388 -0.8123  0.6618
  136OSM   C11S14780   6.736   3.737   7.096 -0.1606  0.3291 -0.0902
  136OSM   H11S14781   6.715   3.834   7.145  1.3123  0.5340  0.1994
  136OSM   H11T14782   6.836   3.702   7.132  0.0385  2.1703  1.3156
  136OSM   C12S14783   6.634   3.630   7.119  0.2579 -0.6850  0.8346
  136OSM   H12S14784   6.654   3.547   7.049 -0.5734 -1.0088  0.9685
  136OSM   H12T14785   6.532   3.665   7.090  1.1380  0.3895 -1.1190
  136OSM   C13S14786   6.637   3.577   7.258 -0.0669  0.5377  0.5262
  136OSM   H13S14787   6.728   3.518   7.279  0.4012  0.6135 -1.1743
  136OSM   H13T14788   6.546   3.515   7.271 -0.7358  0.5443 -3.0516
  136OSM   C14S14789   6.615   3.683   7.373 -0.1720 -0.0548  0.5961
  136OSM   H14S14790   6.536   3.753   7.337  0.2968 -0.1729 -0.6959
  136OSM   H14T14791   6.709   3.742   7.377 -1.3188  1.7957  2.8535
  136OSM   C15S14792   6.572   3.624   7.510 -0.2126 -0.3470  0.3632
  136OSM   H15S14793   6.649   3.548   7.534 -0.3450 -0.5997  0.0106
  136OSM   H15T14794   6.477   3.571   7.485 -0.0773 -1.1167  1.4213
  136OSM   C16S14795   6.545   3.722   7.622  0.6221 -0.0094  0.1332
  136OSM   H16S14796   6.465   3.792   7.589 -0.4502 -0.5285  1.5457
  136OSM   H16T14797   6.628   3.794   7.631 -0.7527  1.3874  2.9207
  136OSM   C17S14798   6.495   3.651   7.751  0.1722  0.1421 -0.3984
  136OSM   H17S14799   6.400   3.602   7.722 -0.8241  2.8115 -1.9645
  136OSM   H17T14800   6.473   3.726   7.829  1.8290  0.7199 -0.4366
  136OSM   C18S14801   6.568   3.539   7.813 -0.3784 -0.6084 -0.1498
  136OSM   H18S14802   6.528   3.515   7.914 -0.3641 -0.8537 -0.2012
  136OSM   H18T14803   6.676   3.565   7.824 -0.7258  1.0017 -0.3192
  136OSM   H18U14804   6.559   3.443   7.759 -0.8952 -0.4684 -0.3189
  136OSM    C1F14805   6.484   3.516   6.551  0.2486 -0.3390 -0.0788
  136OSM     OF14806   6.523   3.397   6.571  0.0708 -0.3297  0.3033
  136OSM    C2F14807   6.388   3.588   6.639 -1.0418  0.5390 -0.4636
  136OSM    H2F14808   6.293   3.604   6.583  0.2476 -3.5995 -4.4500
  136OSM    H2G14809   6.438   3.680   6.675  1.1982 -0.7837  0.0252
  136OSM    C3F14810   6.368   3.511   6.771  0.4357 -0.0196  0.0977
  136OSM    H3F14811   6.467   3.496   6.819 -0.5826  0.1089  2.3645
  136OSM    H3G14812   6.325   3.410   6.752  0.5837 -0.0211 -0.2270
  136OSM    C4F14813   6.278   3.587   6.876 -0.5702 -0.0824  0.3731
  136OSM    H4F14814   6.173   3.597   6.842 -0.0633  0.0178 -1.2839
  136OSM    H4G14815   6.329   3.686   6.870  1.0651 -0.8380  1.0575
  136OSM    C5F14816   6.284   3.537   7.022 -0.6656  0.8631 -0.0386
  136OSM    H5F14817   6.389   3.508   7.041 -0.1974  1.5599 -1.4221
  136OSM    H5G14818   6.227   3.443   7.033  0.2451  0.5256  2.2339
  136OSM    C6F14819   6.249   3.646   7.121 -0.4886  0.2449 -0.2422
  136OSM    H6F14820   6.157   3.698   7.087  0.5371  0.3943 -3.0838
  136OSM    H6G14821   6.330   3.722   7.127  0.9871 -1.2689 -0.2455
  136OSM    C7F14822   6.225   3.597   7.269 -0.3682 -0.6542  0.1415
  136OSM    H7F14823   6.327   3.582   7.309 -1.0012  0.5232  2.3433
  136OSM    H7G14824   6.181   3.495   7.277  0.6348 -1.1551 -0.5108
  136OSM    C8F14825   6.166   3.705   7.364 -0.6683 -0.1382 -0.3334
  136OSM    H8F14826   6.068   3.732   7.321 -0.9867  1.0784  1.0602
  136OSM    H8G14827   6.243   3.785   7.366 -1.0121  0.2126 -1.0090
  136OSM    C9F14828   6.131   3.662   7.502 -0.2269  0.2611  0.6586
  136OSM    H9F14829   6.195   3.586   7.550 -1.8839  0.3599  3.2921
  136OSM   C10F14830   6.040   3.708   7.583 -0.3230  0.2730  0.3936
  136OSM   H10F14831   6.026   3.657   7.679 -0.3218 -1.0831 -0.2990
  136OSM   C11F14832   5.950   3.821   7.557 -0.0253 -0.6467 -0.1906
  136OSM   H11F14833   5.983   3.870   7.463  0.5062 -0.9994 -0.1932
  136OSM   H11G14834   5.944   3.891   7.643 -4.8814 -1.6114  0.5580
  136OSM   C12F14835   5.807   3.767   7.544 -0.0947  0.0875  0.3774
  136OSM   H12F14836   5.765   3.747   7.645 -0.6058 -1.7482 -0.1561
  136OSM   H12G14837   5.799   3.676   7.481 -3.7020  0.0408  0.7145
  136OSM   C13F14838   5.713   3.871   7.475  0.0367 -0.4622 -0.5305
  136OSM   H13F14839   5.729   3.874   7.365 -0.0388 -1.1357 -0.5630
  136OSM   H13G14840   5.732   3.975   7.510 -0.7521  0.4618 -2.6859
  136OSM   C14F14841   5.569   3.826   7.491  0.3297 -0.2513  0.4734
  136OSM   H14F14842   5.535   3.847   7.595 -0.1881  2.2714 -0.1273
  136OSM   H14G14843   5.565   3.715   7.484  0.8043 -0.2080 -0.6796
  136OSM   C15F14844   5.480   3.896   7.383  1.0918 -0.6317  0.1710
  136OSM   H15F14845   5.543   3.911   7.292  2.4388 -0.4579  1.1079
  136OSM   H15G14846   5.446   3.994   7.423  0.6719 -0.5646 -0.3319
  136OSM   C16F14847   5.343   3.836   7.360 -0.0884  0.1747  0.0074
  136OSM   H16F14848   5.295   3.835   7.460  0.4395  1.3077  0.2799
  136OSM   H16G14849   5.354   3.732   7.321  0.9063 -0.4362  1.8025
  136OSM   C17F14850   5.253   3.908   7.259 -0.9995  0.8441  0.0513
  136OSM   H17F14851   5.299   3.906   7.158  0.0780  3.5409  0.3792
  136OSM   H17G14852   5.252   4.015   7.290  4.2724  0.8569  1.1701
  136OSM   C18F14853   5.115   3.836   7.254 -0.7604 -0.0681  0.1135
  136OSM   H18F14854   5.054   3.887   7.177  0.1057  0.7621 -0.0496
  136OSM   H18G14855   5.065   3.841   7.353 -0.0259  1.5778  0.4367
  136OSM   H18H14856   5.120   3.730   7.221  1.6373  0.3834 -1.2026
  137OSM      N14857   3.737   2.418   6.235 -0.3035 -0.4119  0.0990
  137OSM    C1514858   3.820   2.300   6.191 -0.1492 -0.0546 -0.1751
  137OSM   H15A14859   3.927   2.315   6.193 -0.3786  1.7064  1.1834
  137OSM   H15B14860   3.783   2.274   6.093  0.0585 -2.4785  0.3173
  137OSM   H15C14861   3.785   2.212   6.244 -0.8351 -0.0618 -0.6228
  137OSM    C1414862   3.755   2.529   6.144  0.1370 -0.9574  0.0059
  137OSM   H14A14863   3.756   2.625   6.193  1.2017 -0.9934  0.0916
  137OSM   H14B14864   3.662   2.532   6.089 -0.4480 -1.3925  0.9670
  137OSM   H14C14865   3.837   2.531   6.073 -1.7816 -0.1341 -2.3561
  137OSM    C1314866   3.593   2.386   6.238 -0.1201  0.5713  0.0497
  137OSM   H13A14867   3.570   2.324   6.324 -0.6815  0.5520 -0.1062
  137OSM   H13B14868   3.568   2.326   6.152 -0.1211 -1.4355  1.3914
  137OSM   H13C14869   3.527   2.471   6.223 -1.0211 -0.3287 -1.3504
  137OSM    C1214870   3.783   2.456   6.375  0.1335  0.4294  0.1909
  137OSM   H12A14871   3.889   2.474   6.378  0.0971  0.6187  0.3406
  137OSM   H12B14872   3.765   2.373   6.443 -0.0547  0.0307 -0.3367
  137OSM    C1114873   3.718   2.582   6.431 -0.0915 -0.4816  0.0247
  137OSM   H11A14874   3.719   2.583   6.542 -1.3988 -0.5699  0.0538
  137OSM   H11B14875   3.609   2.575   6.408 -0.6748  1.9768  1.6584
  137OSM      P14876   3.899   2.768   6.449  0.4116  0.0977  0.2267
  137OSM    O1314877   4.012   2.679   6.436  1.0301  0.1761 -0.1859
  137OSM    O1414878   3.924   2.904   6.405  0.3535 -0.5675 -0.1085
  137OSM    O1114879   3.857   2.779   6.597  0.2452 -0.1877 -0.0292
  137OSM    O1214880   3.774   2.702   6.378 -0.4595  0.1533 -0.1386
  137OSM    C1S14881   3.760   2.881   6.625  0.2809 -0.1329  0.2195
  137OSM    H1S14882   3.662   2.859   6.577  0.4054  1.0656 -0.6316
  137OSM    H1T14883   3.790   2.982   6.588 -2.3440  0.1872 -1.3143
  137OSM     NF14884   3.641   3.010   6.794 -0.4015  0.0009 -0.1205
  137OSM    HNF14885   3.675   3.088   6.847  3.3671 -0.8962 -0.9289
  137OSM    C2S14886   3.735   2.902   6.777  0.9609 -0.1385  0.1495
  137OSM    H2S14887   3.690   2.805   6.805 -0.3611 -0.1605 -1.8583
  137OSM    C3S14888   3.860   2.924   6.858  0.4253 -0.0776  0.4110
  137OSM    H3S14889   3.921   3.009   6.820  1.9719 -0.6940  1.3619
  137OSM     O314890   3.950   2.814   6.838 -0.2215  0.1290 -0.2508
  137OSM    HO314891   3.925   2.768   6.757 -2.1260  0.2195  0.2478
  137OSM    C4S14892   3.828   2.941   7.006 -0.2645  0.1127  0.0530
  137OSM    H4S14893   3.834   3.047   7.036  0.4137  0.8871 -2.4959
  137OSM    C5S14894   3.822   2.847   7.102  0.6825 -0.1632  0.5070
  137OSM    H5S14895   3.836   2.742   7.072 -2.0907 -0.1464 -1.2644
  137OSM    C6S14896   3.822   2.881   7.247  0.4979  0.0493 -0.5488
  137OSM    H6S14897   3.721   2.887   7.293  1.4172  0.7046  1.4585
  137OSM    H6T14898   3.854   2.987   7.254 -1.5903  0.6213  1.5445
  137OSM    C7S14899   3.911   2.801   7.331  0.2868 -0.1276  0.6727
  137OSM    H7S14900   4.020   2.823   7.319  0.1715 -0.5259 -1.6730
  137OSM    H7T14901   3.897   2.693   7.308  1.3200 -0.5361  1.8431
  137OSM    C8S14902   3.888   2.825   7.478 -0.5166  0.1982  0.5557
  137OSM    H8S14903   3.779   2.809   7.496 -1.7537  0.9441 -4.6526
  137OSM    H8T14904   3.904   2.933   7.500  0.5724  0.0666  0.4407
  137OSM    C9S14905   3.975   2.737   7.579 -0.4585 -0.4183  0.1867
  137OSM    H9S14906   4.076   2.782   7.573 -1.2680  1.3812 -1.1208
  137OSM    H9T14907   3.987   2.632   7.546  1.2396  0.2399 -1.4442
  137OSM   C10S14908   3.902   2.737   7.713 -0.1837  0.7965  0.5003
  137OSM   H10S14909   3.815   2.672   7.690  0.6978  0.1970 -1.3658
  137OSM   H10T14910   3.872   2.842   7.734 -0.6555  0.8284 -0.3091
  137OSM   C11S14911   3.991   2.686   7.823 -0.5453 -0.1062  0.2082
  137OSM   H11S14912   4.074   2.758   7.838 -0.9193  0.3676  0.0421
  137OSM   H11T14913   4.035   2.586   7.798 -1.8407 -0.7763  0.5274
  137OSM   C12S14914   3.912   2.666   7.949 -0.9181 -0.4433 -0.3979
  137OSM   H12S14915   3.887   2.558   7.955  4.2064 -1.8196  1.7408
  137OSM   H12T14916   3.824   2.732   7.932 -1.2390 -0.9547 -0.7452
  137OSM   C13S14917   3.982   2.720   8.074 -0.2592 -0.3985  0.6190
  137OSM   H13S14918   4.016   2.824   8.056 -1.1161 -0.2690 -0.3036
  137OSM   H13T14919   4.074   2.661   8.095 -0.8734 -1.9748 -0.8400
  137OSM   C14S14920   3.880   2.719   8.197 -0.2756  0.0775 -0.6244
  137OSM   H14S14921   3.794   2.787   8.178 -0.9159  0.3053  2.4771
  137OSM   H14T14922   3.944   2.758   8.279 -1.2891 -0.0876  0.2777
  137OSM   C15S14923   3.832   2.576   8.216 -0.3924 -0.5593 -0.0460
  137OSM   H15S14924   3.904   2.500   8.177 -1.3696 -0.3840 -2.3925
  137OSM   H15T14925   3.747   2.561   8.146  0.9155 -0.8208 -1.6493
  137OSM   C16S14926   3.775   2.547   8.357  0.3439  0.2580 -0.2801
  137OSM   H16S14927   3.761   2.438   8.368  2.3481  0.0655  0.8348
  137OSM   H16T14928   3.677   2.596   8.376 -0.4889 -1.8562  1.1922
  137OSM   C17S14929   3.874   2.581   8.476 -0.4298  0.3398  0.2460
  137OSM   H17S14930   3.891   2.689   8.494  1.2178  0.1661 -0.1797
  137OSM   H17T14931   3.974   2.540   8.453 -0.1993  0.9862  0.0810
  137OSM   C18S14932   3.837   2.507   8.604  0.2516 -0.5868 -1.0539
  137OSM   H18S14933   3.728   2.513   8.622  0.3900 -2.0948  0.5900
  137OSM   H18T14934   3.884   2.549   8.695 -1.6050 -0.2826 -0.2092
  137OSM   H18U14935   3.863   2.399   8.600  3.4322  0.0756 -0.7677
  137OSM    C1F14936   3.516   3.004   6.757  0.4895 -0.4690 -0.0805
  137OSM     OF14937   3.472   2.901   6.720  0.4235  0.3592  0.2164
  137OSM    C2F14938   3.428   3.131   6.774  0.1065 -0.8086  0.2298
  137OSM    H2F14939   3.360   3.135   6.685  0.3365 -1.4710  0.0213
  137OSM    H2G14940   3.489   3.224   6.776  0.8217 -1.1839 -1.5783
  137OSM    C3F14941   3.348   3.131   6.905  0.1396 -0.0681 -0.8521
  137OSM    H3F14942   3.258   3.065   6.897  1.3032 -1.8032 -0.3821
  137OSM    H3G14943   3.314   3.233   6.933  1.7625  0.2098  0.2110
  137OSM    C4F14944   3.418   3.064   7.027 -0.1812 -0.4336 -0.4289
  137OSM    H4F14945   3.503   3.125   7.064 -0.7573  0.8652 -1.1720
  137OSM    H4G14946   3.457   2.963   7.000  1.9175  0.5537 -1.3303
  137OSM    C5F14947   3.323   3.039   7.140 -0.1673 -0.8803  0.1358
  137OSM    H5F14948   3.252   2.958   7.111  0.3404 -0.5928 -2.1582
  137OSM    H5G14949   3.260   3.125   7.170 -0.3852 -1.5136  1.5977
  137OSM    C6F14950   3.399   2.976   7.251 -0.1236 -0.1564  0.4936
  137OSM    H6F14951   3.479   3.050   7.272  0.1216 -0.0552 -0.7402
  137OSM    H6G14952   3.443   2.878   7.223  0.5142  0.6817 -1.6587
  137OSM    C7F14953   3.316   2.939   7.376  0.3007 -0.0865 -0.2840
  137OSM    H7F14954   3.212   2.912   7.348  0.6103  1.0346 -2.8128
  137OSM    H7G14955   3.299   3.036   7.427  1.3318  0.5532 -1.1150
  137OSM    C8F14956   3.379   2.828   7.459 -0.8227 -0.1185 -0.0261
  137OSM    H8F14957   3.392   2.736   7.399  0.0402 -0.9402  1.3794
  137OSM    H8G14958   3.311   2.799   7.542 -1.0672 -0.1198 -0.2250
  137OSM    C9F14959   3.518   2.875   7.505 -0.2463 -0.4144 -0.0078
  137OSM    H9F14960   3.594   2.908   7.433 -0.8423  0.9037 -0.0557
  137OSM   C10F14961   3.540   2.890   7.639  0.0111  0.5294  0.3517
  137OSM   H10F14962   3.631   2.939   7.675  0.0684 -1.3835  3.2068
  137OSM   C11F14963   3.465   2.852   7.763  0.4994  0.3564  0.1909
  137OSM   H11F14964   3.424   2.749   7.765 -1.3363  1.0648  1.5924
  137OSM   H11G14965   3.371   2.911   7.775  0.0686 -0.0382 -1.0176
  137OSM   C12F14966   3.545   2.881   7.892  0.7238  0.1391  0.1622
  137OSM   H12F14967   3.577   2.986   7.907  0.5750 -0.1395  2.9644
  137OSM   H12G14968   3.630   2.811   7.878  0.4088 -0.1921 -0.1289
  137OSM   C13F14969   3.476   2.855   8.029 -0.1384  0.0264 -0.0800
  137OSM   H13F14970   3.389   2.922   8.049 -1.4759 -1.8738  0.7675
  137OSM   H13G14971   3.555   2.880   8.103 -0.2113  2.3108 -0.6891
  137OSM   C14F14972   3.436   2.710   8.052 -0.8156  0.0700 -0.3967
  137OSM   H14F14973   3.515   2.633   8.039 -0.6273 -0.0585  1.2723
  137OSM   H14G14974   3.359   2.680   7.978  0.6640 -3.6264 -0.6064
  137OSM   C15F14975   3.397   2.683   8.193  1.1322 -0.3817 -0.7071
  137OSM   H15F14976   3.298   2.728   8.215 -0.0375 -3.0418 -0.1034
  137OSM   H15G14977   3.470   2.726   8.265 -1.2676  0.4523  1.3731
  137OSM   C16F14978   3.399   2.530   8.216 -0.3167  0.0657  0.2133
  137OSM   H16F14979   3.508   2.507   8.213 -0.2104  0.6386 -1.2720
  137OSM   H16G14980   3.345   2.481   8.132  0.8174  1.0147 -1.1013
  137OSM   C17F14981   3.334   2.497   8.358  0.2917  0.7841  0.5513
  137OSM   H17F14982   3.229   2.533   8.357 -0.0795  0.2299 -4.1438
  137OSM   H17G14983   3.388   2.545   8.442 -0.3106  1.6647  0.4471
  137OSM   C18F14984   3.325   2.344   8.389 -0.1391  0.0925  0.3090
  137OSM   H18F14985   3.278   2.311   8.485 -0.5900  1.3406  0.5346
  137OSM   H18G14986   3.426   2.299   8.397 -0.0567  0.4837  1.9208
  137OSM   H18H14987   3.258   2.287   8.321 -0.8086  0.9994  0.1992
  138OSM      N14988   3.867   4.614   5.817 -0.0990  0.0911 -0.2123
  138OSM    C1514989   3.794   4.698   5.716 -0.6270 -0.1619  1.0365
  138OSM   H15A14990   3.701   4.654   5.685 -1.7686  3.3412 -1.0627
  138OSM   H15B14991   3.858   4.726   5.634  0.1856  0.1235  1.7512
  138OSM   H15C14992   3.768   4.791   5.764 -1.8280  0.0195  0.0609
  138OSM    C1414993   3.908   4.489   5.757 -0.5994  0.0822 -0.5646
  138OSM   H14A14994   3.826   4.430   5.719 -0.0155 -0.8579 -0.4035
  138OSM   H14B14995   3.964   4.431   5.829 -3.4379 -1.6715  0.3896
  138OSM   H14C14996   3.980   4.508   5.679  1.2873 -1.5894  0.6662
  138OSM    C1314997   3.989   4.683   5.869 -0.5581  0.0754 -0.4220
  138OSM   H13A14998   4.053   4.623   5.932 -0.5637 -0.5762 -1.0305
  138OSM   H13B14999   3.968   4.770   5.930  3.3922  0.1287  1.1282
  138OSM   H13C15000   4.052   4.718   5.788 -1.6069  1.0521 -0.8477
  138OSM    C1215001   3.773   4.583   5.927  0.2262 -0.4962  0.2658
  138OSM   H12A15002   3.827   4.519   5.995  0.8076  1.3826  1.6770
  138OSM   H12B15003   3.690   4.523   5.893 -0.5460  0.7229 -0.0475
  138OSM    C1115004   3.707   4.700   6.006 -0.3955 -1.3348  0.0366
  138OSM   H11A15005   3.645   4.657   6.088  1.1813 -1.6284  1.1306
  138OSM   H11B15006   3.644   4.756   5.934  1.9501  0.3242 -0.8420
  138OSM      P15007   3.747   4.902   6.149 -0.6118 -0.3043  0.3197
  138OSM    O1315008   3.861   4.969   6.215  0.5691  0.0455  0.1172
  138OSM    O1415009   3.664   4.990   6.059 -0.3020 -0.2444  0.5853
  138OSM    O1115010   3.658   4.838   6.268 -0.1223  0.7991 -0.3629
  138OSM    O1215011   3.810   4.781   6.068  0.1526 -0.7693  0.3433
  138OSM    C1S15012   3.719   4.727   6.340  0.4390  0.0494 -0.0778
  138OSM    H1S15013   3.828   4.737   6.354  0.3770  0.0803  0.4048
  138OSM    H1T15014   3.710   4.636   6.277  1.1017  0.2627 -0.4859
  138OSM     NF15015   3.741   4.604   6.554 -0.1783  0.2106  0.1910
  138OSM    HNF15016   3.704   4.512   6.542 -1.1307  0.3715  1.5680
  138OSM    C2S15017   3.663   4.706   6.488  0.2370 -0.2821 -0.4602
  138OSM    H2S15018   3.682   4.802   6.541 -2.7472  0.0802  0.0963
  138OSM    C3S15019   3.507   4.684   6.491 -0.0199 -0.3068 -0.1338
  138OSM    H3S15020   3.497   4.584   6.444 -2.3568 -0.6795  1.0640
  138OSM     O315021   3.442   4.778   6.411  0.4737 -0.4757 -0.5294
  138OSM    HO315022   3.511   4.813   6.354  1.2989  0.6463  1.0868
  138OSM    C4S15023   3.458   4.688   6.639  0.3391 -0.4405 -0.3142
  138OSM    H4S15024   3.492   4.598   6.692 -0.5238 -0.3438  0.4279
  138OSM    C5S15025   3.384   4.780   6.698  0.3992 -0.4100 -0.2284
  138OSM    H5S15026   3.352   4.868   6.639 -0.4601 -0.7327 -0.2578
  138OSM    C6S15027   3.335   4.780   6.842 -0.3051 -0.1620 -0.2106
  138OSM    H6S15028   3.226   4.761   6.853 -0.3347  0.6382  1.1596
  138OSM    H6T15029   3.340   4.884   6.882  0.0103 -0.5256  0.7273
  138OSM    C7S15030   3.404   4.687   6.940  0.3417  0.3678 -0.1401
  138OSM    H7S15031   3.513   4.702   6.925  0.1830  0.3698 -1.3367
  138OSM    H7T15032   3.367   4.586   6.913 -0.5710  0.1896  1.6051
  138OSM    C8S15033   3.376   4.722   7.082 -0.1167  0.6496 -0.1570
  138OSM    H8S15034   3.268   4.739   7.100 -0.3575  0.1335 -1.0408
  138OSM    H8T15035   3.409   4.825   7.108 -1.0799  0.8182  0.4421
  138OSM    C9S15036   3.444   4.633   7.181 -0.5632  0.0622 -0.3636
  138OSM    H9S15037   3.545   4.594   7.154  0.1430  1.0126  0.8130
  138OSM    H9T15038   3.381   4.541   7.185 -0.2750 -0.0955  1.3292
  138OSM   C10S15039   3.457   4.700   7.315 -0.8065  0.3495 -0.4852
  138OSM   H10S15040   3.368   4.755   7.352 -0.0390  0.3198  1.5697
  138OSM   H10T15041   3.537   4.777   7.311  0.9697 -1.3213  0.6017
  138OSM   C11S15042   3.487   4.599   7.426 -0.3620  0.7742  0.3681
  138OSM   H11S15043   3.584   4.547   7.414  1.1938  3.2255  1.5330
  138OSM   H11T15044   3.408   4.521   7.426  1.3039 -0.9917 -0.0823
  138OSM   C12S15045   3.491   4.658   7.567 -0.0396 -0.1815 -0.1164
  138OSM   H12S15046   3.396   4.706   7.599  1.5307  2.7910  0.4563
  138OSM   H12T15047   3.559   4.745   7.568  0.9644 -0.8638  3.1171
  138OSM   C13S15048   3.511   4.550   7.672  0.1407 -0.3205 -0.6620
  138OSM   H13S15049   3.587   4.476   7.639 -1.0191 -0.7209 -2.6055
  138OSM   H13T15050   3.423   4.497   7.714  0.5137 -0.6945 -0.3370
  138OSM   C14S15051   3.565   4.621   7.801 -0.3686  0.2359  0.6449
  138OSM   H14S15052   3.509   4.714   7.825 -3.3280 -1.8133  2.3023
  138OSM   H14T15053   3.669   4.654   7.780  0.2028 -2.0035 -0.2605
  138OSM   C15S15054   3.569   4.534   7.920  0.3869  0.3158 -0.7088
  138OSM   H15S15055   3.464   4.510   7.946  0.4532 -1.2675 -1.7456
  138OSM   H15T15056   3.612   4.590   8.005  0.3592  0.7235 -0.9605
  138OSM   C16S15057   3.646   4.406   7.912  0.0138 -0.5034  0.5372
  138OSM   H16S15058   3.750   4.426   7.881 -0.2718  1.0387  0.4615
  138OSM   H16T15059   3.608   4.353   7.822  0.2252  1.5442 -0.8245
  138OSM   C17S15060   3.639   4.305   8.025  0.7461  0.0014  0.5815
  138OSM   H17S15061   3.699   4.344   8.110  0.5673  1.8996 -0.1342
  138OSM   H17T15062   3.693   4.216   7.986 -0.3959 -0.3440 -0.2888
  138OSM   C18S15063   3.501   4.273   8.081 -0.5149  0.1960  0.0588
  138OSM   H18S15064   3.451   4.359   8.130 -2.3806 -0.5926 -0.3864
  138OSM   H18T15065   3.518   4.202   8.164 -1.7576 -1.3663 -0.9554
  138OSM   H18U15066   3.433   4.216   8.014 -1.8305 -1.4676  2.6765
  138OSM    C1F15067   3.859   4.630   6.616  0.8220 -0.1797 -0.4663
  138OSM     OF15068   3.901   4.743   6.612 -0.6954  0.4333 -0.1923
  138OSM    C2F15069   3.922   4.513   6.678  0.0328  0.6040 -0.6387
  138OSM    H2F15070   4.031   4.536   6.678  1.0083 -3.1437 -2.9639
  138OSM    H2G15071   3.926   4.423   6.613 -2.7644 -0.1404  0.1132
  138OSM    C3F15072   3.891   4.491   6.831 -0.3379  0.6225 -0.2157
  138OSM    H3F15073   3.944   4.394   6.847 -0.0526  1.0384  1.6412
  138OSM    H3G15074   3.781   4.495   6.844 -0.4595 -2.0501  0.0309
  138OSM    C4F15075   3.937   4.614   6.911  0.1103  0.5684 -0.1026
  138OSM    H4F15076   3.879   4.703   6.881 -3.1453 -0.2811  3.0185
  138OSM    H4G15077   4.042   4.647   6.899 -0.2697  2.1291  0.6776
  138OSM    C5F15078   3.917   4.582   7.063 -0.0845 -0.4552 -0.1210
  138OSM    H5F15079   3.991   4.507   7.098  1.6425  1.6705  1.0770
  138OSM    H5G15080   3.815   4.544   7.084 -0.7636  0.8309 -0.9154
  138OSM    C6F15081   3.935   4.709   7.156 -0.3880  0.8037  0.0377
  138OSM    H6F15082   3.878   4.792   7.109  0.9117 -0.5744 -4.4429
  138OSM    H6G15083   4.043   4.732   7.148 -0.0290 -0.8526 -0.3494
  138OSM    C7F15084   3.889   4.689   7.301  0.2847  0.0568  0.6042
  138OSM    H7F15085   3.937   4.596   7.339  2.7856  0.5050 -1.1866
  138OSM    H7G15086   3.782   4.664   7.316  0.4782 -1.1816  0.0388
  138OSM    C8F15087   3.922   4.806   7.388 -0.0208  0.4905 -0.4432
  138OSM    H8F15088   3.872   4.897   7.348 -0.1634  0.9146  0.6595
  138OSM    H8G15089   4.030   4.831   7.390  0.0561  0.1600 -0.4955
  138OSM    C9F15090   3.878   4.788   7.529  0.3004 -0.1735  0.7382
  138OSM    H9F15091   3.777   4.744   7.539  0.7386 -0.8993  2.2722
  138OSM   C10F15092   3.951   4.798   7.644 -0.6256  0.0431  1.0881
  138OSM   H10F15093   3.888   4.802   7.735  0.3331 -0.6382  1.8090
  138OSM   C11F15094   4.095   4.840   7.652  0.1289  0.5984 -0.0467
  138OSM   H11F15095   4.094   4.949   7.674  1.0522  0.7482 -0.6703
  138OSM   H11G15096   4.148   4.826   7.555  0.3045  1.6459 -0.1179
  138OSM   C12F15097   4.181   4.749   7.742 -0.1715  0.7239 -0.0842
  138OSM   H12F15098   4.288   4.766   7.718 -0.1648  0.1233 -0.4925
  138OSM   H12G15099   4.166   4.640   7.731 -0.8017  0.5630  1.9207
  138OSM   C13F15100   4.167   4.772   7.900  0.1035 -0.0072 -0.4251
  138OSM   H13F15101   4.241   4.706   7.950  0.1568  0.5234  0.2021
  138OSM   H13G15102   4.071   4.738   7.942  0.5702  0.4843  1.0902
  138OSM   C14F15103   4.181   4.920   7.941  0.6532  0.3198  0.5593
  138OSM   H14F15104   4.082   4.966   7.921 -0.6527 -1.6547  2.1128
  138OSM   H14G15105   4.267   4.964   7.885 -1.3412  2.1999 -1.2235
  138OSM   C15F15106   4.194   4.955   8.093  0.0488 -0.1188 -0.1125
  138OSM   H15F15107   4.293   4.922   8.133 -0.3591  0.0996  1.1138
  138OSM   H15G15108   4.117   4.896   8.146  0.2328 -1.2362 -1.0342
  138OSM   C16F15109   4.161   5.100   8.135  0.2377  0.3146  0.3598
  138OSM   H16F15110   4.055   5.123   8.112  0.0460 -1.6018 -0.8079
  138OSM   H16G15111   4.224   5.164   8.070 -1.5975  0.6000 -1.2166
  138OSM   C17F15112   4.170   5.133   8.281 -0.9940  0.7073  0.4279
  138OSM   H17F15113   4.172   5.243   8.295  0.4840  0.6511  0.8349
  138OSM   H17G15114   4.273   5.113   8.316 -0.5726  2.1366  0.0881
  138OSM   C18F15115   4.072   5.061   8.376 -0.0330  0.0873 -0.5589
  138OSM   H18F15116   4.084   5.103   8.478  0.0349  0.8985 -0.8950
  138OSM   H18G15117   4.090   4.952   8.388 -0.3293 -0.0148 -0.9917
  138OSM   H18H15118   3.966   5.074   8.345  0.2580  0.1408 -1.5716
  139OSM      N15119   1.678   6.230   6.326  0.2776 -0.0112  0.1865
  139OSM    C1515120   1.751   6.335   6.400 -0.4449 -0.3414 -0.3064
  139OSM   H15A15121   1.830   6.380   6.342  1.5960 -2.7398  0.4222
  139OSM   H15B15122   1.798   6.298   6.489  3.1403  2.2667 -0.9151
  139OSM   H15C15123   1.688   6.412   6.442 -0.0702 -0.4504  0.4611
  139OSM    C1415124   1.596   6.290   6.213  0.5165  0.7775  0.0526
  139OSM   H14A15125   1.537   6.218   6.158  0.4080  1.3780 -0.6359
  139OSM   H14B15126   1.658   6.337   6.139  1.0861  0.7985  0.5372
  139OSM   H14C15127   1.526   6.363   6.251 -0.8893 -0.2575 -0.4799
  139OSM    C1315128   1.773   6.131   6.270  0.0691 -0.7315 -0.0253
  139OSM   H13A15129   1.821   6.181   6.187  0.3312 -0.4184  0.3143
  139OSM   H13B15130   1.730   6.038   6.236  1.3551 -1.2352 -0.3332
  139OSM   H13C15131   1.853   6.105   6.337 -0.2975 -0.2573  0.6099
  139OSM    C1215132   1.587   6.161   6.428  0.5399 -1.0734  0.1150
  139OSM   H12A15133   1.543   6.238   6.489  0.8870 -0.5359 -0.2975
  139OSM   H12B15134   1.634   6.095   6.500 -1.0459  0.5387  2.7722
  139OSM    C1115135   1.476   6.069   6.358 -0.3557 -0.1756 -0.5578
  139OSM   H11A15136   1.403   6.117   6.290 -2.3883 -1.6852  0.4576
  139OSM   H11B15137   1.417   6.043   6.448  1.1687  2.0643  1.2351
  139OSM      P15138   1.436   5.824   6.293 -0.3639 -0.3253 -0.1644
  139OSM    O1315139   1.301   5.876   6.262 -0.2291 -0.0946  0.3086
  139OSM    O1415140   1.490   5.719   6.200  0.1890 -0.4200 -0.4227
  139OSM    O1115141   1.431   5.772   6.444  0.2090  0.0695  0.0400
  139OSM    O1215142   1.543   5.951   6.307  0.8222 -0.2490  0.2378
  139OSM    C1S15143   1.544   5.763   6.538 -0.4827 -0.3198  0.1610
  139OSM    H1S15144   1.618   5.839   6.504 -0.2859 -0.7663 -0.4361
  139OSM    H1T15145   1.583   5.659   6.541 -0.8950 -0.6215 -2.4497
  139OSM     NF15146   1.610   5.809   6.760  0.3879  0.3165 -0.5333
  139OSM    HNF15147   1.627   5.732   6.821  0.4659  1.1760  0.5609
  139OSM    C2S15148   1.498   5.800   6.678 -0.6620  0.5654  0.6570
  139OSM    H2S15149   1.454   5.902   6.668  2.0874  1.6904 -1.0600
  139OSM    C3S15150   1.390   5.692   6.727 -0.0175  0.2072  0.2744
  139OSM    H3S15151   1.432   5.589   6.731  1.3289  0.6306 -1.6232
  139OSM     O315152   1.277   5.674   6.641  0.2642 -0.3712 -0.2514
  139OSM    HO315153   1.312   5.717   6.563  1.5385 -1.3873 -0.2794
  139OSM    C4S15154   1.341   5.733   6.859 -0.2284  0.3669 -0.3142
  139OSM    H4S15155   1.394   5.682   6.941 -0.8395  0.3233  0.0654
  139OSM    C5S15156   1.252   5.830   6.888  0.1133  0.3932  0.6925
  139OSM    H5S15157   1.205   5.881   6.803  1.2364 -0.5010 -0.5287
  139OSM    C6S15158   1.205   5.856   7.030  0.4116 -0.0664 -0.3937
  139OSM    H6S15159   1.095   5.861   7.017  0.5536 -0.5886 -2.1535
  139OSM    H6T15160   1.236   5.953   7.074  0.3915  0.1749 -0.9018
  139OSM    C7S15161   1.230   5.733   7.128  0.9520  0.9483 -0.8334
  139OSM    H7S15162   1.337   5.725   7.153  1.1796 -0.3130 -2.0320
  139OSM    H7T15163   1.180   5.642   7.087 -1.1171 -0.0353  3.3881
  139OSM    C8S15164   1.153   5.751   7.267  0.5398  0.6353  0.0745
  139OSM    H8S15165   1.048   5.752   7.232  0.8094 -1.5319 -1.0161
  139OSM    H8T15166   1.199   5.845   7.304 -2.5855  1.8713  1.1545
  139OSM    C9S15167   1.165   5.639   7.367 -0.0028  0.4830 -0.6921
  139OSM    H9S15168   1.271   5.623   7.396 -0.1254  1.0320  0.0986
  139OSM    H9T15169   1.148   5.540   7.321  2.3074  0.6820 -2.1702
  139OSM   C10S15170   1.093   5.664   7.502  0.2134  0.3882 -0.3058
  139OSM   H10S15171   0.986   5.686   7.482  0.0197 -1.1405 -1.1100
  139OSM   H10T15172   1.138   5.751   7.554 -1.5292 -0.3549  2.7172
  139OSM   C11S15173   1.105   5.543   7.601  0.0565 -0.6702  0.1981
  139OSM   H11S15174   1.212   5.514   7.606  0.5016  0.9132  0.2322
  139OSM   H11T15175   1.032   5.464   7.572 -2.0245  0.7758  1.1968
  139OSM   C12S15176   1.077   5.579   7.745  0.2244  0.2922  0.3263
  139OSM   H12S15177   0.986   5.642   7.755  0.5156  0.8309 -0.3994
  139OSM   H12T15178   1.153   5.650   7.784  0.6840  0.9734 -1.6994
  139OSM   C13S15179   1.057   5.464   7.839 -0.1715 -0.9422 -0.0105
  139OSM   H13S15180   1.152   5.408   7.852  0.8877  0.6832 -0.4260
  139OSM   H13T15181   0.978   5.400   7.795 -0.8104 -0.8789  1.0033
  139OSM   C14S15182   1.001   5.510   7.975  0.0529 -0.3890 -0.0173
  139OSM   H14S15183   0.951   5.608   7.957 -0.4843 -0.2758  1.8815
  139OSM   H14T15184   1.093   5.529   8.034  0.9062 -2.6266 -0.5255
  139OSM   C15S15185   0.911   5.411   8.040  0.9815 -0.2640  0.1490
  139OSM   H15S15186   0.959   5.318   8.078  0.3406 -1.0564 -0.9300
  139OSM   H15T15187   0.834   5.372   7.971  0.5036 -0.0264  0.5406
  139OSM   C16S15188   0.848   5.470   8.170 -0.2618 -0.5371  0.7509
  139OSM   H16S15189   0.775   5.551   8.146 -1.2546 -1.6895 -0.2899
  139OSM   H16T15190   0.935   5.518   8.219 -0.2491  0.7950 -0.4771
  139OSM   C17S15191   0.787   5.364   8.259  0.0745 -0.4356  0.0365
  139OSM   H17S15192   0.870   5.295   8.286 -1.1073 -1.8311  0.2253
  139OSM   H17T15193   0.717   5.301   8.200  1.0669 -1.7917  0.2530
  139OSM   C18S15194   0.707   5.423   8.379  0.2326  0.4597 -0.5208
  139OSM   H18S15195   0.653   5.338   8.426 -0.6150  1.8861  1.1946
  139OSM   H18T15196   0.633   5.494   8.336  1.1612  1.2736 -0.8239
  139OSM   H18U15197   0.769   5.476   8.454 -1.3958  3.5122 -1.1616
  139OSM    C1F15198   1.691   5.918   6.755 -0.2101 -0.8242  0.3339
  139OSM     OF15199   1.665   6.014   6.682  0.5013  0.0914 -0.6550
  139OSM    C2F15200   1.812   5.921   6.841  0.5648  0.0288  0.2106
  139OSM    H2F15201   1.897   5.965   6.785  0.7303  2.2773  2.0408
  139OSM    H2G15202   1.829   5.813   6.858 -2.0866 -0.6505 -0.8999
  139OSM    C3F15203   1.785   6.015   6.971  0.0051  0.3915 -0.0944
  139OSM    H3F15204   1.789   6.123   6.949  1.8766  0.4970  0.6251
  139OSM    H3G15205   1.869   6.003   7.042  1.0540  1.8939 -1.0312
  139OSM    C4F15206   1.649   5.985   7.037 -0.1240 -0.3879  0.7051
  139OSM    H4F15207   1.642   5.876   7.060  0.1925 -0.2243  1.5936
  139OSM    H4G15208   1.558   6.024   6.987 -0.7158 -1.0130  1.2815
  139OSM    C5F15209   1.645   6.035   7.182  0.4165  0.6595 -0.5589
  139OSM    H5F15210   1.645   6.146   7.183 -2.1623  0.7077  0.1326
  139OSM    H5G15211   1.730   5.999   7.244  0.6496 -1.2489 -1.8847
  139OSM    C6F15212   1.507   5.984   7.239 -0.2887 -0.0988 -0.5705
  139OSM    H6F15213   1.501   5.873   7.227 -0.0905 -0.2727  0.7977
  139OSM    H6G15214   1.426   6.026   7.176 -1.0034  1.8216  1.5073
  139OSM    C7F15215   1.473   6.036   7.384 -0.0917 -0.0687 -0.4429
  139OSM    H7F15216   1.369   6.008   7.410  0.3374 -0.8933  0.4471
  139OSM    H7G15217   1.481   6.147   7.381  0.6760 -0.1261 -1.0677
  139OSM    C8F15218   1.568   5.985   7.492 -0.1105 -0.8013 -1.1161
  139OSM    H8F15219   1.526   6.030   7.584 -0.1222  0.9840 -1.9662
  139OSM    H8G15220   1.666   6.035   7.478 -1.1645  1.1936 -1.6929
  139OSM    C9F15221   1.582   5.836   7.505 -0.2401 -0.4512 -0.5765
  139OSM    H9F15222   1.627   5.785   7.418 -0.3422  1.9333 -2.1329
  139OSM   C10F15223   1.543   5.762   7.615 -0.3028  0.1927 -0.6395
  139OSM   H10F15224   1.557   5.653   7.619 -0.8702  0.1502  1.7936
  139OSM   C11F15225   1.479   5.816   7.733 -0.3250  0.1236 -0.5159
  139OSM   H11F15226   1.368   5.812   7.728 -0.3343  1.3535 -1.8467
  139OSM   H11G15227   1.507   5.918   7.765 -3.2162  0.6816  0.5501
  139OSM   C12F15228   1.516   5.718   7.847 -0.7399 -0.0308 -0.2352
  139OSM   H12F15229   1.492   5.769   7.943  1.7406  2.0161 -0.5765
  139OSM   H12G15230   1.626   5.704   7.850 -0.6241  0.1137 -2.3432
  139OSM   C13F15231   1.435   5.589   7.851 -0.1179 -0.4895  0.4302
  139OSM   H13F15232   1.450   5.531   7.758 -0.6389 -0.3932  0.2858
  139OSM   H13G15233   1.328   5.617   7.849  0.1458  0.6356  1.0032
  139OSM   C14F15234   1.475   5.498   7.966  0.3824 -0.5383  0.3474
  139OSM   H14F15235   1.581   5.521   7.990  0.1376 -0.8973  1.8344
  139OSM   H14G15236   1.468   5.391   7.937 -2.2263  0.0203 -1.4597
  139OSM   C15F15237   1.395   5.505   8.094  0.5987  0.2718  0.5490
  139OSM   H15F15238   1.440   5.445   8.176  0.6914  1.0342  1.0664
  139OSM   H15G15239   1.290   5.477   8.074  0.5083  0.0772  1.2469
  139OSM   C16F15240   1.400   5.641   8.167 -0.2116  0.3136 -0.5948
  139OSM   H16F15241   1.345   5.718   8.109 -0.3709 -0.7339 -1.8764
  139OSM   H16G15242   1.507   5.666   8.181 -0.2046 -0.6044  1.2429
  139OSM   C17F15243   1.332   5.628   8.305  0.1771  0.3821  0.5676
  139OSM   H17F15244   1.349   5.726   8.354 -1.6014  0.1911  1.6418
  139OSM   H17G15245   1.394   5.560   8.369  2.0195  3.0423  1.7976
  139OSM   C18F15246   1.177   5.591   8.303  0.4490  0.4753 -0.2729
  139OSM   H18F15247   1.133   5.592   8.405 -4.1183 -0.5276 -1.9592
  139OSM   H18G15248   1.150   5.497   8.251 -1.4790  1.6361 -1.5302
  139OSM   H18H15249   1.126   5.672   8.246  0.3396 -0.2401 -1.2145
  140OSM      N15250   2.782   0.530   6.373  0.3215 -0.1922  0.1791
  140OSM    C1515251   2.779   0.436   6.494  0.6807 -0.8498  0.1822
  140OSM   H15A15252   2.770   0.331   6.472 -0.6889 -0.5117 -0.9691
  140OSM   H15B15253   2.684   0.455   6.541  0.9762 -1.0396  0.8777
  140OSM   H15C15254   2.859   0.458   6.565  0.5800  1.9362 -0.4240
  140OSM    C1415255   2.918   0.514   6.305  0.4223  0.0517 -0.2297
  140OSM   H14A15256   2.996   0.566   6.358  0.3056  0.2122 -0.2138
  140OSM   H14B15257   2.904   0.556   6.206  0.5422 -1.5392 -0.9518
  140OSM   H14C15258   2.940   0.409   6.294  1.1252  0.1297  0.3965
  140OSM    C1315259   2.676   0.485   6.280  0.3814  0.3699 -0.2770
  140OSM   H13A15260   2.577   0.507   6.317  0.7523  2.3058 -0.3337
  140OSM   H13B15261   2.671   0.378   6.265  2.2955  0.3049 -0.7111
  140OSM   H13C15262   2.687   0.524   6.180 -1.5090  0.8167 -0.3454
  140OSM    C1215263   2.774   0.676   6.409  0.8927 -0.4818  0.0531
  140OSM   H12A15264   2.675   0.706   6.439  0.7204 -1.4287  0.4414
  140OSM   H12B15265   2.790   0.737   6.321  0.7525  0.8834  0.9422
  140OSM    C1115266   2.867   0.722   6.520 -0.0196  0.1292 -0.1205
  140OSM   H11A15267   2.848   0.670   6.616 -0.3449 -2.7933 -1.6406
  140OSM   H11B15268   2.835   0.828   6.535 -0.5351 -0.0858  0.3536
  140OSM      P15269   3.099   0.838   6.498 -0.0922  0.1900 -0.1009
  140OSM    O1315270   3.229   0.802   6.445 -1.0033 -0.5359  0.3071
  140OSM    O1415271   3.033   0.954   6.440  0.2308 -0.2871 -0.3048
  140OSM    O1115272   3.100   0.853   6.653  0.3726 -0.7658  0.2662
  140OSM    O1215273   3.005   0.711   6.481  0.2019  0.2101 -0.1844
  140OSM    C1S15274   3.225   0.832   6.732  0.2541 -0.4034  0.0915
  140OSM    H1S15275   3.286   0.925   6.726  0.6030 -0.6435 -0.1143
  140OSM    H1T15276   3.298   0.760   6.690  2.4758  0.2311  2.6435
  140OSM     NF15277   3.295   0.818   6.963 -0.7609 -0.1176 -0.2473
  140OSM    HNF15278   3.355   0.744   6.992 -0.5709 -0.3310 -1.1695
  140OSM    C2S15279   3.181   0.792   6.876 -0.7137 -0.1654  0.2069
  140OSM    H2S15280   3.089   0.850   6.898 -1.0871 -0.2431 -1.0637
  140OSM    C3S15281   3.147   0.637   6.868  0.2998  0.5995 -0.3912
  140OSM    H3S15282   3.239   0.587   6.832  2.5574  2.3547  2.4605
  140OSM     O315283   3.035   0.617   6.788 -0.3387  0.2039  0.0942
  140OSM    HO315284   3.001   0.706   6.776 -0.0901  0.5357  1.6090
  140OSM    C4S15285   3.116   0.597   7.014 -0.0176  0.7585  0.4031
  140OSM    H4S15286   3.051   0.658   7.077 -1.0671 -0.4671  0.5537
  140OSM    C5S15287   3.173   0.490   7.076 -0.3389  0.7008  0.1067
  140OSM    H5S15288   3.238   0.422   7.019 -2.0984 -2.6778  1.7870
  140OSM    C6S15289   3.164   0.449   7.217 -0.2364  0.6471  0.0919
  140OSM    H6S15290   3.120   0.347   7.226  1.3998 -0.0182  1.1807
  140OSM    H6T15291   3.087   0.511   7.267 -1.3310  0.1606 -0.9514
  140OSM    C7S15292   3.293   0.453   7.298 -0.1560  0.1477  0.7634
  140OSM    H7S15293   3.335   0.555   7.305 -1.6054  0.7749  0.6392
  140OSM    H7T15294   3.370   0.386   7.253 -0.7864 -1.6843  2.2978
  140OSM    C8S15295   3.259   0.397   7.435 -0.2498  0.1541  0.0887
  140OSM    H8S15296   3.253   0.286   7.434  0.5401  0.1010 -0.7279
  140OSM    H8T15297   3.153   0.424   7.453  0.2193  1.8514  0.5112
  140OSM    C9S15298   3.353   0.450   7.547 -0.7758  0.0976 -0.5381
  140OSM    H9S15299   3.453   0.470   7.503 -0.6032 -0.5598 -0.4410
  140OSM    H9T15300   3.355   0.373   7.626 -0.7024  1.8660  1.2789
  140OSM   C10S15301   3.286   0.570   7.616 -0.3040 -0.3172 -0.3397
  140OSM   H10S15302   3.183   0.531   7.634 -0.1516 -0.7777 -0.4642
  140OSM   H10T15303   3.272   0.660   7.552  0.1366  0.3260  0.4557
  140OSM   C11S15304   3.361   0.630   7.740  0.6890 -0.4460  0.3546
  140OSM   H11S15305   3.291   0.702   7.786 -0.4324 -1.8946  0.9932
  140OSM   H11T15306   3.449   0.693   7.716 -0.6593  1.1646 -0.5473
  140OSM   C12S15307   3.404   0.526   7.841 -0.1015 -0.4247  0.0673
  140OSM   H12S15308   3.469   0.451   7.791  0.4009 -0.5074  0.8221
  140OSM   H12T15309   3.317   0.474   7.886  0.8963 -1.4711  0.8460
  140OSM   C13S15310   3.476   0.576   7.966 -0.6720 -0.2918  0.6177
  140OSM   H13S15311   3.564   0.631   7.925 -0.8679 -0.6448 -0.3125
  140OSM   H13T15312   3.521   0.489   8.018  0.4664 -0.3434 -0.4081
  140OSM   C14S15313   3.394   0.665   8.060 -0.1991  0.6437  0.2450
  140OSM   H14S15314   3.324   0.731   8.006 -0.2988 -0.5823 -1.1723
  140OSM   H14T15315   3.464   0.734   8.113 -0.4232  3.5039 -2.8381
  140OSM   C15S15316   3.319   0.572   8.144 -0.6676  0.1528 -0.1662
  140OSM   H15S15317   3.391   0.500   8.188 -0.2579  0.8091  0.2372
  140OSM   H15T15318   3.240   0.520   8.086 -0.0117  0.3203 -1.2282
  140OSM   C16S15319   3.241   0.649   8.259 -0.5532 -0.3548  0.1208
  140OSM   H16S15320   3.202   0.571   8.327 -0.8920 -1.3576 -1.1716
  140OSM   H16T15321   3.157   0.700   8.206  0.4004  0.9817 -0.1544
  140OSM   C17S15322   3.317   0.759   8.337  0.1414  0.4823 -0.5138
  140OSM   H17S15323   3.371   0.833   8.274 -0.0284  3.4453  2.5365
  140OSM   H17T15324   3.402   0.715   8.393 -1.2144  0.9080  2.0102
  140OSM   C18S15325   3.231   0.851   8.423 -0.4756 -0.5290 -0.6885
  140OSM   H18S15326   3.182   0.936   8.370 -0.9320  0.1809  0.8201
  140OSM   H18T15327   3.289   0.902   8.502  0.8806 -0.3781 -1.7478
  140OSM   H18U15328   3.147   0.795   8.470 -0.9292  1.3405  0.8353
  140OSM    C1F15329   3.327   0.940   6.997  0.0340 -0.7438 -0.5616
  140OSM     OF15330   3.241   1.031   6.979 -0.2454  0.2516  0.3020
  140OSM    C2F15331   3.461   0.974   7.045 -0.2658 -0.0298 -0.1340
  140OSM    H2F15332   3.508   1.010   6.950 -1.2028  2.1006  0.1511
  140OSM    H2G15333   3.522   0.887   7.077  0.6019  0.2383 -0.9753
  140OSM    C3F15334   3.464   1.092   7.154  0.1113  0.0737  0.0768
  140OSM    H3F15335   3.382   1.161   7.123  0.3678  0.8109  0.9742
  140OSM    H3G15336   3.560   1.147   7.162  0.8030 -1.0343 -0.4229
  140OSM    C4F15337   3.434   1.040   7.296  0.3336  0.2563  0.0012
  140OSM    H4F15338   3.499   0.952   7.318  0.1107 -0.0093 -0.3899
  140OSM    H4G15339   3.336   0.989   7.287  0.7940 -0.5170 -0.7852
  140OSM    C5F15340   3.447   1.157   7.400 -1.4436 -0.0355  0.6820
  140OSM    H5F15341   3.372   1.233   7.372 -0.8022  0.2185 -0.3981
  140OSM    H5G15342   3.550   1.198   7.408 -1.2760 -0.7441  2.8439
  140OSM    C6F15343   3.414   1.107   7.539  0.6821  0.0911 -0.5311
  140OSM    H6F15344   3.319   1.049   7.531  0.0671  1.2593 -2.7343
  140OSM    H6G15345   3.382   1.195   7.600  0.7469 -1.1445  1.3373
  140OSM    C7F15346   3.517   1.019   7.613 -0.0401  0.2462  0.5890
  140OSM    H7F15347   3.624   1.050   7.611  0.4138 -0.8826  3.6022
  140OSM    H7G15348   3.522   0.921   7.562 -1.1381  0.3592  0.2522
  140OSM    C8F15349   3.472   0.990   7.763  0.5494 -0.5220  0.0605
  140OSM    H8F15350   3.534   0.906   7.802  1.9967  0.3060 -0.3812
  140OSM    H8G15351   3.368   0.952   7.756 -0.8037  1.4778  5.0846
  140OSM    C9F15352   3.468   1.114   7.856 -0.0092  0.1404 -0.0716
  140OSM    H9F15353   3.425   1.206   7.814  0.1938  1.5430  2.6011
  140OSM   C10F15354   3.517   1.135   7.979 -0.5950 -0.8339  0.2006
  140OSM   H10F15355   3.518   1.236   8.024 -1.8304  0.3009 -2.1187
  140OSM   C11F15356   3.590   1.033   8.057 -0.2021  0.0899  0.6020
  140OSM   H11F15357   3.696   1.031   8.022 -0.3401 -0.4038  0.2008
  140OSM   H11G15358   3.545   0.934   8.033  0.2617 -0.0204  0.1434
  140OSM   C12F15359   3.594   1.045   8.212 -0.0245 -0.2415  0.2785
  140OSM   H12F15360   3.499   1.004   8.252 -1.3242  2.0554 -0.2236
  140OSM   H12G15361   3.599   1.155   8.230 -2.3418 -0.2358  1.1628
  140OSM   C13F15362   3.718   0.981   8.268  0.4748 -0.6215  0.9009
  140OSM   H13F15363   3.805   1.035   8.225 -0.4169  0.5920  0.5830
  140OSM   H13G15364   3.722   0.873   8.244 -1.8804 -0.6979  0.6567
  140OSM   C14F15365   3.735   1.011   8.423  0.4072  0.7754  0.5572
  140OSM   H14F15366   3.660   0.942   8.466  0.4417  0.9649  0.9210
  140OSM   H14G15367   3.722   1.119   8.442 -0.1506  0.5651  1.4550
  140OSM   C15F15368   3.872   0.959   8.460 -0.3625 -0.6103  0.4943
  140OSM   H15F15369   3.954   1.023   8.421 -0.7460 -0.2157  0.3311
  140OSM   H15G15370   3.872   0.860   8.409 -1.3150 -2.1679  3.3131
  140OSM   C16F15371   3.893   0.951   8.613  0.3144 -0.7646  0.6452
  140OSM   H16F15372   3.822   0.881   8.661  3.3442 -3.9226  0.9394
  140OSM   H16G15373   3.877   1.051   8.660 -0.3718 -0.9402  0.7821
  140OSM   C17F15374   4.034   0.900   8.668  0.7038 -0.4002  0.5530
  140OSM   H17F15375   4.031   0.916   8.778  0.6646 -0.3269  0.5418
  140OSM   H17G15376   4.117   0.963   8.627  1.7014 -1.3294  1.0862
  140OSM   C18F15377   4.054   0.749   8.649  0.5596 -0.5113  0.7819
  140OSM   H18F15378   4.154   0.711   8.676  0.7184 -0.7537 -0.1375
  140OSM   H18G15379   4.035   0.723   8.543  1.7203  0.8947  0.1997
  140OSM   H18H15380   3.981   0.699   8.717 -1.1393 -1.7238 -1.8036
  141OSM      N15381   3.407   2.876   6.248 -0.4668 -0.2606  0.5976
  141OSM    C1515382   3.473   2.842   6.120 -0.7377  0.0703 -0.1153
  141OSM   H15A15383   3.466   2.737   6.096 -0.0442  0.2234 -1.0552
  141OSM   H15B15384   3.578   2.864   6.131 -0.6395  0.5529 -1.7864
  141OSM   H15C15385   3.439   2.904   6.038  0.1160 -0.2230 -0.7068
  141OSM    C1415386   3.465   2.786   6.344  0.2306  0.1657  0.0321
  141OSM   H14A15387   3.573   2.781   6.346  0.1812 -1.5633  1.2484
  141OSM   H14B15388   3.433   2.683   6.338 -1.1316  0.6304 -1.1433
  141OSM   H14C15389   3.442   2.823   6.442 -2.6438  3.9448 -1.8206
  141OSM    C1315390   3.448   3.013   6.295  0.0356 -0.2589 -0.2885
  141OSM   H13A15391   3.401   3.032   6.390  0.4087 -0.2426 -0.1084
  141OSM   H13B15392   3.420   3.100   6.238  1.4031  1.8362  2.0426
  141OSM   H13C15393   3.555   3.020   6.309  0.0460 -0.7601 -0.1070
  141OSM    C1215394   3.259   2.857   6.240  0.5744  0.0536  0.3289
  141OSM   H12A15395   3.236   2.756   6.211 -0.0481  0.1540  0.4593
  141OSM   H12B15396   3.214   2.924   6.168 -0.5338  2.2548  2.8887
  141OSM    C1115397   3.177   2.873   6.369 -0.0260  0.5540 -1.0359
  141OSM   H11A15398   3.185   2.787   6.438 -1.7216 -0.3880 -1.9602
  141OSM   H11B15399   3.070   2.880   6.341 -0.5106 -0.6371  0.4473
  141OSM      P15400   3.138   3.132   6.427 -0.6611  0.3020  0.3452
  141OSM    O1315401   3.222   3.242   6.476  0.7092  0.1778 -0.3771
  141OSM    O1415402   3.091   3.145   6.282 -0.3289 -0.1734  0.1700
  141OSM    O1115403   3.022   3.112   6.528  0.0920  0.1101  0.3457
  141OSM    O1215404   3.216   2.993   6.440 -0.0177 -0.2368  0.5203
  141OSM    C1S15405   3.039   3.092   6.667  0.4894 -0.5010 -0.2274
  141OSM    H1S15406   3.025   3.193   6.711 -1.6252 -0.1013 -1.6492
  141OSM    H1T15407   3.139   3.051   6.693  0.2651 -1.1865 -0.4256
  141OSM     NF15408   2.949   2.989   6.861 -0.2204 -0.6650  0.1542
  141OSM    HNF15409   3.010   2.914   6.884  0.8433  0.3534  0.7962
  141OSM    C2S15410   2.928   3.007   6.720 -0.0818  1.0059 -0.6540
  141OSM    H2S15411   2.836   3.068   6.709 -0.4855  0.7219  1.0032
  141OSM    C3S15412   2.914   2.864   6.654  0.3598 -0.3633 -0.3405
  141OSM    H3S15413   3.015   2.821   6.671  0.2053 -0.6045 -0.0201
  141OSM     O315414   2.898   2.867   6.515  0.0364  0.1375  0.4460
  141OSM    HO315415   2.933   2.952   6.488  0.8362 -0.5033 -0.6363
  141OSM    C4S15416   2.801   2.781   6.718  0.1534 -0.2189 -0.0645
  141OSM    H4S15417   2.840   2.720   6.800 -0.3795  0.3975  0.6615
  141OSM    C5S15418   2.674   2.761   6.671 -0.4644 -0.3479  0.3599
  141OSM    H5S15419   2.647   2.794   6.569  1.2590 -3.0482 -1.1207
  141OSM    C6S15420   2.573   2.666   6.733  0.6337  0.3844 -0.6447
  141OSM    H6S15421   2.542   2.579   6.671 -0.8405 -1.9281  3.0073
  141OSM    H6T15422   2.476   2.719   6.748 -0.8184 -2.7336  2.0162
  141OSM    C7S15423   2.619   2.602   6.871 -0.3780 -0.2914  0.4701
  141OSM    H7S15424   2.641   2.694   6.930  1.1825 -0.0234 -0.4603
  141OSM    H7T15425   2.715   2.547   6.860 -1.0929 -1.3399 -0.8421
  141OSM    C8S15426   2.519   2.504   6.935 -0.3131  0.4946 -0.0126
  141OSM    H8S15427   2.504   2.414   6.872  1.1787 -0.8673  1.5029
  141OSM    H8T15428   2.425   2.564   6.935  1.3103  3.1801  0.3694
  141OSM    C9S15429   2.552   2.464   7.078 -0.2036 -0.7921 -0.1452
  141OSM    H9S15430   2.588   2.559   7.124 -2.2473  0.4868 -1.0456
  141OSM    H9T15431   2.634   2.390   7.087  0.6429 -0.0491 -1.4711
  141OSM   C10S15432   2.421   2.411   7.139  1.1516 -0.8813  0.7626
  141OSM   H10S15433   2.375   2.348   7.061  1.2525  0.3414 -0.3145
  141OSM   H10T15434   2.349   2.494   7.159  2.0272  0.5189 -1.5655
  141OSM   C11S15435   2.430   2.333   7.270 -0.5018 -0.3805 -0.3211
  141OSM   H11S15436   2.493   2.242   7.256 -1.7441 -1.1119 -1.4217
  141OSM   H11T15437   2.325   2.303   7.291 -0.5196 -0.9295 -1.1478
  141OSM   C12S15438   2.483   2.412   7.389 -0.3056  0.6148 -0.4957
  141OSM   H12S15439   2.427   2.507   7.384 -3.2609 -1.0145 -0.9684
  141OSM   H12T15440   2.594   2.419   7.379 -0.0163 -0.9577  1.1084
  141OSM   C13S15441   2.445   2.323   7.505 -0.0858  0.0167 -0.2409
  141OSM   H13S15442   2.471   2.218   7.478 -0.6749  0.2452 -1.8552
  141OSM   H13T15443   2.335   2.330   7.523  0.3226  1.6350  2.0004
  141OSM   C14S15444   2.523   2.364   7.634 -0.6312  0.4260 -0.2151
  141OSM   H14S15445   2.520   2.474   7.650 -0.2668  0.7105 -1.9803
  141OSM   H14T15446   2.633   2.349   7.625 -0.6542 -1.0717  1.3913
  141OSM   C15S15447   2.459   2.279   7.756  0.3074 -0.4080 -0.0147
  141OSM   H15S15448   2.443   2.176   7.716  0.1793 -0.2014 -0.4978
  141OSM   H15T15449   2.361   2.323   7.783 -0.3256 -1.5324 -0.4047
  141OSM   C16S15450   2.554   2.273   7.878  0.3693  0.2555 -0.4822
  141OSM   H16S15451   2.586   2.375   7.911 -0.7508 -0.1932  2.2918
  141OSM   H16T15452   2.640   2.220   7.832 -2.0379 -0.9505 -3.9478
  141OSM   C17S15453   2.512   2.186   7.994  0.2317 -0.1508 -0.3814
  141OSM   H17S15454   2.584   2.178   8.079  0.5894  1.7971 -0.4482
  141OSM   H17T15455   2.489   2.081   7.965  0.3651 -0.9022  1.9740
  141OSM   C18S15456   2.388   2.245   8.061 -0.6872  0.9118 -0.5754
  141OSM   H18S15457   2.292   2.224   8.010 -0.7498 -1.0003  0.2684
  141OSM   H18T15458   2.406   2.355   8.063  1.7243  0.5944 -1.3321
  141OSM   H18U15459   2.377   2.218   8.168  0.8748 -0.0025 -0.6155
  141OSM    C1F15460   2.919   3.087   6.949 -0.0833 -0.6803 -0.4415
  141OSM     OF15461   2.861   3.194   6.910 -0.2806 -0.4033  0.0528
  141OSM    C2F15462   2.931   3.046   7.094  0.6998  0.2607 -0.1439
  141OSM    H2F15463   3.030   2.996   7.106 -0.4029 -2.5462 -1.7335
  141OSM    H2G15464   2.856   2.968   7.119 -0.5290  1.5489  0.3462
  141OSM    C3F15465   2.917   3.166   7.189  0.4015  0.1677  0.2318
  141OSM    H3F15466   2.817   3.215   7.190  1.2801  2.0705 -0.1000
  141OSM    H3G15467   2.977   3.254   7.156 -0.3259  0.3134 -0.7529
  141OSM    C4F15468   2.958   3.129   7.325  0.0449  0.0473 -0.8702
  141OSM    H4F15469   3.047   3.064   7.308 -0.5750 -0.9656 -0.3269
  141OSM    H4G15470   2.880   3.063   7.367  2.0363 -2.2699 -0.5342
  141OSM    C5F15471   2.989   3.246   7.425  0.0627  0.3964 -0.1149
  141OSM    H5F15472   2.883   3.280   7.428  0.3052  1.1195  0.3957
  141OSM    H5G15473   3.047   3.326   7.374  0.2235  1.5334  1.7801
  141OSM    C6F15474   3.037   3.196   7.562  0.4764 -0.4618  0.8428
  141OSM    H6F15475   3.072   3.281   7.624 -2.3144  0.6911  0.9742
  141OSM    H6G15476   3.123   3.126   7.552  2.4900  1.5391  2.8973
  141OSM    C7F15477   2.931   3.106   7.636  0.2248 -0.3895  0.4977
  141OSM    H7F15478   2.908   3.010   7.585 -1.4057  0.4298 -0.3899
  141OSM    H7G15479   2.832   3.157   7.635  0.0764 -0.6730 -0.7305
  141OSM    C8F15480   2.991   3.075   7.771 -0.5680  0.8287  0.1074
  141OSM    H8F15481   3.054   3.160   7.806 -2.0326  1.4211  1.4504
  141OSM    H8G15482   3.059   2.988   7.760 -0.2937  0.6427  2.6085
  141OSM    C9F15483   2.893   3.042   7.883  0.0725 -0.5025  0.1433
  141OSM    H9F15484   2.791   3.025   7.844 -0.0326  0.0656  0.1628
  141OSM   C10F15485   2.921   3.044   8.016  0.0710  0.2707  0.7458
  141OSM   H10F15486   2.846   3.020   8.092 -1.7106 -1.1293 -1.3261
  141OSM   C11F15487   3.064   3.059   8.074 -0.0406  0.0418 -0.1161
  141OSM   H11F15488   3.056   3.143   8.146 -1.5309  1.2544 -1.6243
  141OSM   H11G15489   3.134   3.092   7.994  2.1306 -0.1551  1.5974
  141OSM   C12F15490   3.113   2.937   8.154  0.0883 -0.4969  0.4583
  141OSM   H12F15491   3.223   2.929   8.167 -0.0421 -2.0279  0.7371
  141OSM   H12G15492   3.089   2.847   8.094  0.1950 -0.7933  0.8525
  141OSM   C13F15493   3.048   2.919   8.290  0.7515  0.2986 -0.1704
  141OSM   H13F15494   2.939   2.938   8.276  1.0804  1.3450 -1.3905
  141OSM   H13G15495   3.080   2.998   8.361  3.6195  0.8650 -1.9443
  141OSM   C14F15496   3.073   2.783   8.355  0.0429  0.1430  0.0395
  141OSM   H14F15497   3.176   2.751   8.380 -0.1650 -1.3181 -0.8378
  141OSM   H14G15498   3.033   2.704   8.288 -0.7885  0.0165  0.6587
  141OSM   C15F15499   3.012   2.762   8.495 -0.9618 -0.2516 -0.7345
  141OSM   H15F15500   2.902   2.776   8.489 -0.7093  2.2893 -0.2912
  141OSM   H15G15501   3.053   2.836   8.566  0.6667 -1.9922  0.2413
  141OSM   C16F15502   3.049   2.627   8.564  0.0930 -0.0738  0.1913
  141OSM   H16F15503   3.159   2.611   8.566  0.0217 -0.5159  0.5644
  141OSM   H16G15504   3.006   2.553   8.492 -0.2031 -0.9259  1.2273
  141OSM   C17F15505   2.978   2.615   8.695  0.9338  0.3465 -0.4861
  141OSM   H17F15506   2.868   2.604   8.690  1.0518 -2.7621  1.1328
  141OSM   H17G15507   2.997   2.701   8.762  0.6512 -1.0235  1.4514
  141OSM   C18F15508   3.022   2.486   8.777 -0.0425  0.4127  0.5001
  141OSM   H18F15509   3.026   2.515   8.884 -0.6556  2.8807 -0.0946
  141OSM   H18G15510   3.121   2.452   8.742  0.8850  1.8493  1.6332
  141OSM   H18H15511   2.953   2.401   8.756 -0.5315  1.0809 -0.7062
  142OSM      N15512   2.870   4.263   6.056  0.1698  0.0966  0.2248
  142OSM    C1515513   3.001   4.267   5.978 -0.0176  0.5241  0.3197
  142OSM   H15A15514   2.974   4.256   5.874 -1.1098  3.3183  0.2115
  142OSM   H15B15515   3.064   4.185   6.007 -1.0758 -0.8590 -1.0658
  142OSM   H15C15516   3.060   4.356   5.993  0.7654 -0.1281  1.2186
  142OSM    C1415517   2.776   4.362   5.986  0.0216  0.5669 -0.0400
  142OSM   H14A15518   2.825   4.457   5.996  2.5878 -0.7156  0.5820
  142OSM   H14B15519   2.680   4.365   6.037 -0.1784 -0.3528 -0.3414
  142OSM   H14C15520   2.751   4.325   5.888 -1.2694  0.1161  0.4271
  142OSM    C1315521   2.820   4.121   6.043  0.2292 -0.4226  0.4813
  142OSM   H13A15522   2.802   4.098   5.939 -0.1437 -0.2187  0.4978
  142OSM   H13B15523   2.725   4.111   6.095  0.6699 -0.6834  1.2678
  142OSM   H13C15524   2.894   4.055   6.087  2.4846  2.8338  1.9413
  142OSM    C1215525   2.883   4.301   6.206  0.3024  0.1685  0.2631
  142OSM   H12A15526   2.791   4.284   6.261 -1.1087 -0.4368 -2.1557
  142OSM   H12B15527   2.900   4.407   6.204  0.8168  0.1061  0.8762
  142OSM    C1115528   2.996   4.225   6.287 -0.6134 -0.0491 -0.0619
  142OSM   H11A15529   2.981   4.119   6.259 -1.8853 -0.5628  2.3497
  142OSM   H11B15530   2.966   4.247   6.392 -0.4679  2.1343 -0.4289
  142OSM      P15531   3.182   4.409   6.325  0.1309  0.5709  0.2920
  142OSM    O1315532   3.328   4.421   6.303  0.4068  0.0721 -1.6793
  142OSM    O1415533   3.098   4.518   6.276  0.7459  0.4717  0.0350
  142OSM    O1115534   3.149   4.385   6.477  0.2271  0.1477 -0.2650
  142OSM    O1215535   3.132   4.270   6.259  0.0289 -0.1577 -0.5078
  142OSM    C1S15536   3.215   4.300   6.561 -0.1708  0.0016 -0.8308
  142OSM    H1S15537   3.320   4.281   6.528  0.9228 -0.6223  2.5695
  142OSM    H1T15538   3.167   4.200   6.554  1.1314 -0.6647 -0.6013
  142OSM     NF15539   3.291   4.249   6.786 -0.3775  0.1533  0.8892
  142OSM    HNF15540   3.243   4.205   6.862  1.2083 -2.2387  0.5939
  142OSM    C2S15541   3.219   4.347   6.708 -0.3503 -0.2888  0.9771
  142OSM    H2S15542   3.274   4.443   6.706  0.4707 -0.5644 -4.5480
  142OSM    C3S15543   3.078   4.380   6.768  0.1614  0.1687  0.0779
  142OSM    H3S15544   3.029   4.283   6.792  1.1618 -0.7394 -1.3997
  142OSM     O315545   2.988   4.450   6.689 -0.0961 -0.1756 -0.3447
  142OSM    HO315546   3.015   4.437   6.597 -2.2432 -0.5723 -0.9729
  142OSM    C4S15547   3.101   4.452   6.899  0.0423 -0.5453  0.1909
  142OSM    H4S15548   3.170   4.537   6.906 -0.2683 -0.2809  0.1236
  142OSM    C5S15549   3.026   4.426   7.007 -0.5214  0.4971  0.4078
  142OSM    H5S15550   2.939   4.360   6.993  0.5971 -1.3554  1.6862
  142OSM    C6S15551   3.046   4.487   7.142  0.0366  0.0568 -0.8471
  142OSM    H6S15552   3.115   4.574   7.140  0.8511 -0.5818 -1.5705
  142OSM    H6T15553   3.084   4.411   7.214 -4.8684 -0.8717  1.1771
  142OSM    C7S15554   2.913   4.541   7.198 -0.1367 -0.4465 -0.3572
  142OSM    H7S15555   2.843   4.454   7.201  0.0658 -0.5821  0.9472
  142OSM    H7T15556   2.871   4.617   7.128 -0.2062 -0.6508 -0.5406
  142OSM    C8S15557   2.931   4.608   7.332 -0.0888  0.6679 -0.3415
  142OSM    H8S15558   2.856   4.686   7.355  3.3329  3.7678  1.2386
  142OSM    H8T15559   3.026   4.665   7.325 -1.1050  2.5797  0.6764
  142OSM    C9S15560   2.944   4.507   7.453  0.5677 -0.0926  0.2052
  142OSM    H9S15561   3.030   4.440   7.433  0.9394  0.6585 -0.8512
  142OSM    H9T15562   2.851   4.447   7.453 -1.8239  3.3175  1.4835
  142OSM   C10S15563   2.959   4.566   7.591 -0.0516 -0.3098 -0.0338
  142OSM   H10S15564   2.970   4.477   7.657  1.2663  0.7413  1.2392
  142OSM   H10T15565   2.864   4.606   7.631 -0.6884 -1.2855 -0.5407
  142OSM   C11S15566   3.082   4.668   7.599 -0.0385 -0.3483 -0.3471
  142OSM   H11S15567   3.059   4.754   7.532 -0.7560  0.2674  0.6621
  142OSM   H11T15568   3.172   4.616   7.562 -0.7597 -0.5715 -1.8725
  142OSM   C12S15569   3.104   4.717   7.746  0.1969 -0.3987  0.0168
  142OSM   H12S15570   3.019   4.775   7.787 -0.1532 -1.9483  1.6426
  142OSM   H12T15571   3.192   4.783   7.763 -0.4726  0.0270  2.2937
  142OSM   C13S15572   3.116   4.605   7.851 -0.6597  0.3565 -0.8418
  142OSM   H13S15573   3.202   4.537   7.830 -1.4753  0.0352 -3.7246
  142OSM   H13T15574   3.029   4.535   7.845  0.4533 -0.9971 -1.9652
  142OSM   C14S15575   3.138   4.655   8.001 -0.4930 -0.3031 -0.1534
  142OSM   H14S15576   3.052   4.719   8.028  0.1431  1.1584 -1.4685
  142OSM   H14T15577   3.228   4.720   8.012 -0.3222 -0.8684  2.4397
  142OSM   C15S15578   3.133   4.550   8.109 -0.0225  0.4052  0.0383
  142OSM   H15S15579   3.174   4.456   8.066  1.3907  0.9539  0.1418
  142OSM   H15T15580   3.024   4.539   8.132 -0.1725  2.5795  0.6103
  142OSM   C16S15581   3.224   4.583   8.229 -0.0332  0.6685 -0.6731
  142OSM   H16S15582   3.328   4.580   8.191 -0.2330 -0.6758 -1.2018
  142OSM   H16T15583   3.212   4.508   8.311  0.4643  0.6771 -0.5891
  142OSM   C17S15584   3.191   4.714   8.306 -0.2988  0.6166  0.1974
  142OSM   H17S15585   3.081   4.719   8.318 -0.4344  2.2623 -1.2746
  142OSM   H17T15586   3.216   4.799   8.239  0.3884  2.5964  2.8105
  142OSM   C18S15587   3.264   4.726   8.436 -1.2734  0.0683  0.0731
  142OSM   H18S15588   3.230   4.649   8.508 -0.9131 -0.3955 -0.2439
  142OSM   H18T15589   3.233   4.819   8.488 -0.0033  0.0118  0.9599
  142OSM   H18U15590   3.374   4.738   8.426 -1.1509 -1.3348 -0.5082
  142OSM    C1F15591   3.421   4.224   6.771 -0.4051  0.2135  0.7116
  142OSM     OF15592   3.498   4.296   6.708  0.6122 -0.2614 -0.1369
  142OSM    C2F15593   3.479   4.115   6.856 -0.7896  0.0966 -0.2009
  142OSM    H2F15594   3.500   4.030   6.788  1.9741  0.7413 -0.2489
  142OSM    H2G15595   3.405   4.076   6.929  0.5559 -0.0031  1.1477
  142OSM    C3F15596   3.605   4.155   6.923 -0.7621 -0.5752 -0.9388
  142OSM    H3F15597   3.673   4.196   6.846 -0.8188  1.2465 -0.0669
  142OSM    H3G15598   3.659   4.071   6.972  1.3059  1.1360 -0.0961
  142OSM    C4F15599   3.582   4.270   7.025  0.1022  0.6426  0.9542
  142OSM    H4F15600   3.535   4.351   6.964  0.0977 -0.4512 -0.5644
  142OSM    H4G15601   3.681   4.296   7.067 -0.5267  0.3516  2.6925
  142OSM    C5F15602   3.488   4.232   7.137  0.4568  0.2667 -0.4004
  142OSM    H5F15603   3.382   4.220   7.108  0.4299 -3.8117  0.8277
  142OSM    H5G15604   3.489   4.303   7.222  0.5994 -0.1241 -0.0721
  142OSM    C6F15605   3.520   4.098   7.206 -0.5241  0.1228 -0.2076
  142OSM    H6F15606   3.624   4.085   7.244 -0.9225  0.0345  0.8822
  142OSM    H6G15607   3.507   4.019   7.129 -3.3608  0.7069 -0.4164
  142OSM    C7F15608   3.424   4.066   7.313  0.0021 -0.4711  0.0118
  142OSM    H7F15609   3.320   4.054   7.277  0.2152 -0.3992 -0.6331
  142OSM    H7G15610   3.412   4.143   7.392 -2.5486 -2.4157  1.6926
  142OSM    C8F15611   3.469   3.933   7.381 -0.3079  0.1010  0.2874
  142OSM    H8F15612   3.579   3.935   7.394 -0.0936 -0.1910 -1.2702
  142OSM    H8G15613   3.448   3.851   7.309  0.1700  0.5985 -0.4325
  142OSM    C9F15614   3.388   3.908   7.505  0.4527 -0.6608  0.7335
  142OSM    H9F15615   3.312   3.829   7.492  2.1983 -2.4263  0.7021
  142OSM   C10F15616   3.414   3.948   7.630  0.1712  0.0154  0.5540
  142OSM   H10F15617   3.349   3.912   7.710  1.0561 -2.1281  0.3746
  142OSM   C11F15618   3.535   4.026   7.682  0.3062 -0.5049 -0.5803
  142OSM   H11F15619   3.493   4.119   7.726 -1.7388 -0.4841 -2.4487
  142OSM   H11G15620   3.599   4.067   7.601 -0.8490 -0.9821 -1.7635
  142OSM   C12F15621   3.626   3.977   7.798 -0.5239  0.4671  0.0537
  142OSM   H12F15622   3.695   4.054   7.837 -2.9525  2.4022  0.7386
  142OSM   H12G15623   3.678   3.892   7.748 -1.5094  0.4970 -1.0702
  142OSM   C13F15624   3.549   3.935   7.925  0.5413 -0.3174  0.6595
  142OSM   H13F15625   3.487   3.845   7.906  1.4467 -0.7421 -0.3197
  142OSM   H13G15626   3.469   4.009   7.950  1.2456  0.8500 -0.4342
  142OSM   C14F15627   3.638   3.907   8.048 -0.7731 -0.4764  0.3467
  142OSM   H14F15628   3.666   3.998   8.104 -0.5298 -0.0771 -0.4034
  142OSM   H14G15629   3.726   3.846   8.018 -1.5295 -0.7293 -1.5270
  142OSM   C15F15630   3.558   3.831   8.169  0.2384 -0.5761 -0.3008
  142OSM   H15F15631   3.631   3.802   8.248  0.5179  1.1413  0.0904
  142OSM   H15G15632   3.515   3.735   8.132  1.0222 -1.5268  1.1560
  142OSM   C16F15633   3.452   3.922   8.224 -0.0525 -0.4636  0.0270
  142OSM   H16F15634   3.385   3.957   8.143  0.4865 -1.7138 -0.9787
  142OSM   H16G15635   3.496   4.019   8.258 -1.0887  0.2194 -0.5246
  142OSM   C17F15636   3.372   3.865   8.353 -0.3047  0.0369 -0.5421
  142OSM   H17F15637   3.297   3.793   8.313 -1.7378  0.1459  1.7806
  142OSM   H17G15638   3.316   3.956   8.384 -0.9192  0.9618 -3.9334
  142OSM   C18F15639   3.462   3.800   8.457 -0.3007  0.0262 -0.2517
  142OSM   H18F15640   3.401   3.768   8.544  0.2296  0.4213  0.2812
  142OSM   H18G15641   3.524   3.886   8.494  0.5603 -1.2284  1.3924
  142OSM   H18H15642   3.529   3.725   8.410  0.2910  0.3313  0.0856
  143OSM      N15643   3.835   6.360   6.246  0.1182 -0.6840  0.1370
  143OSM    C1515644   3.916   6.320   6.122 -0.1918 -0.3406  0.2011
  143OSM   H15A15645   3.857   6.260   6.054 -0.9406 -0.5459  1.0004
  143OSM   H15B15646   4.006   6.268   6.151  0.8715  0.8335 -0.8701
  143OSM   H15C15647   3.951   6.410   6.072  0.7247 -1.3425 -1.0275
  143OSM    C1415648   3.919   6.453   6.328 -0.0582 -0.0177 -0.1117
  143OSM   H14A15649   4.005   6.399   6.366 -0.4071 -0.6049 -0.1403
  143OSM   H14B15650   3.862   6.483   6.415  0.9603  0.4700  0.4103
  143OSM   H14C15651   3.954   6.543   6.280  1.2179 -1.1136 -1.3285
  143OSM    C1315652   3.725   6.439   6.177 -0.5063 -0.2941  0.7242
  143OSM   H13A15653   3.655   6.488   6.243 -0.1394  0.9603  0.2220
  143OSM   H13B15654   3.672   6.390   6.097  1.6810 -1.1096 -0.3037
  143OSM   H13C15655   3.771   6.518   6.119 -0.3384  0.0035  1.2611
  143OSM    C1215656   3.798   6.237   6.311 -0.6841 -0.4845  0.4670
  143OSM   H12A15657   3.884   6.174   6.325  0.9701  1.1330 -1.7576
  143OSM   H12B15658   3.730   6.191   6.241  1.3085  1.5285 -3.0922
  143OSM    C1115659   3.713   6.257   6.442 -0.9101  0.2090 -0.4546
  143OSM   H11A15660   3.790   6.283   6.518 -2.0192  1.8183  0.1705
  143OSM   H11B15661   3.666   6.159   6.468 -1.2910  0.5271  0.0753
  143OSM      P15662   3.474   6.336   6.405 -0.2150 -0.2858  0.4019
  143OSM    O1315663   3.399   6.462   6.423  0.1450  0.6902 -0.1324
  143OSM    O1415664   3.457   6.264   6.278 -0.0746  0.4097  0.3881
  143OSM    O1115665   3.436   6.241   6.518 -0.0515 -0.1117 -0.4962
  143OSM    O1215666   3.625   6.365   6.437 -0.5718  0.3265 -0.2885
  143OSM    C1S15667   3.485   6.253   6.657 -0.0293  0.1798 -0.0930
  143OSM    H1S15668   3.587   6.295   6.663  0.5008 -0.8893 -1.2647
  143OSM    H1T15669   3.492   6.152   6.704  1.0851  0.9953  1.5952
  143OSM     NF15670   3.431   6.357   6.872 -0.0169  0.3913 -0.9890
  143OSM    HNF15671   3.412   6.291   6.944  1.4954  1.5519  0.5757
  143OSM    C2S15672   3.379   6.331   6.746 -1.0169 -0.2461  0.6810
  143OSM    H2S15673   3.367   6.427   6.691  2.5746 -0.8928 -1.5595
  143OSM    C3S15674   3.240   6.253   6.739  0.0105 -0.1511 -1.1864
  143OSM    H3S15675   3.258   6.146   6.765 -2.2194 -0.6266 -1.4256
  143OSM     O315676   3.178   6.254   6.606  0.3730 -0.0388  0.0723
  143OSM    HO315677   3.257   6.282   6.559  2.1747 -1.9450  1.7660
  143OSM    C4S15678   3.153   6.292   6.853  0.2801  0.9680  0.2613
  143OSM    H4S15679   3.174   6.240   6.948 -0.8725  1.5619  0.8670
  143OSM    C5S15680   3.069   6.394   6.862 -0.3929  0.6107 -0.0325
  143OSM    H5S15681   3.055   6.458   6.774 -1.1139 -1.1024 -1.2103
  143OSM    C6S15682   3.001   6.427   6.992 -0.1975 -0.2188  0.1577
  143OSM    H6S15683   2.965   6.341   7.052 -0.5121 -0.6241 -0.5968
  143OSM    H6T15684   2.912   6.491   6.975  0.1587  0.2164 -0.0848
  143OSM    C7S15685   3.093   6.509   7.088 -0.4715 -0.3224  0.1877
  143OSM    H7S15686   3.109   6.608   7.041 -1.3366 -0.6564 -0.8584
  143OSM    H7T15687   3.189   6.454   7.093 -0.7624 -0.7145  3.6124
  143OSM    C8S15688   3.039   6.529   7.236 -0.0040  0.1297 -0.1342
  143OSM    H8S15689   3.119   6.570   7.301  0.4275 -0.6372 -0.1751
  143OSM    H8T15690   3.014   6.428   7.274 -2.2899  1.9369  3.8713
  143OSM    C9S15691   2.916   6.621   7.252 -0.7166 -0.0192  0.6257
  143OSM    H9S15692   2.854   6.614   7.160  0.4970  0.3175 -0.2293
  143OSM    H9T15693   2.954   6.725   7.261 -0.8741  0.0968 -0.0170
  143OSM   C10S15694   2.848   6.589   7.389 -0.1808 -0.0945 -0.3120
  143OSM   H10S15695   2.825   6.481   7.378  4.3045 -1.3048 -0.0183
  143OSM   H10T15696   2.763   6.658   7.403  0.3227  0.8397 -1.6531
  143OSM   C11S15697   2.934   6.609   7.513 -0.3915  0.8082  0.0067
  143OSM   H11S15698   2.965   6.716   7.514 -3.1914  1.7075  0.0555
  143OSM   H11T15699   3.028   6.549   7.509  0.2309  1.4060  3.1630
  143OSM   C12S15700   2.861   6.564   7.641 -0.4659 -0.8228  0.1441
  143OSM   H12S15701   2.857   6.453   7.634  0.4068 -0.7547 -2.6069
  143OSM   H12T15702   2.757   6.599   7.624  0.1585  0.6282 -0.9125
  143OSM   C13S15703   2.934   6.602   7.771  0.3496 -0.5667 -0.3712
  143OSM   H13S15704   2.948   6.713   7.771 -0.7781 -0.3470 -2.9468
  143OSM   H13T15705   3.037   6.566   7.791 -0.4673 -2.0459  1.4184
  143OSM   C14S15706   2.852   6.565   7.894  0.5222  0.2308 -0.0684
  143OSM   H14S15707   2.879   6.458   7.910 -0.2776  0.0635  0.1843
  143OSM   H14T15708   2.744   6.576   7.870  1.0521  2.2472 -1.7961
  143OSM   C15S15709   2.866   6.654   8.022 -0.4922 -0.1103 -0.5217
  143OSM   H15S15710   2.828   6.755   7.999 -1.3666 -0.0849  0.9203
  143OSM   H15T15711   2.973   6.680   8.037  0.1433 -2.3459 -0.7071
  143OSM   C16S15712   2.795   6.603   8.150 -0.2228 -0.6693  0.0767
  143OSM   H16S15713   2.684   6.615   8.144 -0.1488  1.3810  1.6365
  143OSM   H16T15714   2.825   6.675   8.229 -0.7746 -1.0206  0.6162
  143OSM   C17S15715   2.832   6.458   8.186  0.3228  0.2763 -0.3200
  143OSM   H17S15716   2.939   6.456   8.214  0.2199  1.9978  0.2775
  143OSM   H17T15717   2.809   6.384   8.105  1.2303 -1.5263  0.9958
  143OSM   C18S15718   2.748   6.407   8.302  0.5995 -0.5150 -0.5332
  143OSM   H18S15719   2.742   6.296   8.309  2.1728 -0.8238 -2.7705
  143OSM   H18T15720   2.646   6.450   8.291  1.9197  2.9593 -0.4873
  143OSM   H18U15721   2.780   6.440   8.403 -0.4738 -2.6005  0.5586
  143OSM    C1F15722   3.537   6.439   6.883 -0.0323 -0.1679  1.1261
  143OSM     OF15723   3.571   6.515   6.792 -0.3237 -0.3445 -0.0100
  143OSM    C2F15724   3.603   6.437   7.025 -0.8695 -0.1925  0.0093
  143OSM    H2F15725   3.646   6.336   7.037  0.6221  0.5858  1.4843
  143OSM    H2G15726   3.534   6.477   7.102 -0.0970  0.2829  0.4658
  143OSM    C3F15727   3.721   6.532   7.025  0.0523 -0.6737 -0.1282
  143OSM    H3F15728   3.691   6.637   7.003  1.4250  0.0901  1.3822
  143OSM    H3G15729   3.797   6.504   6.949  0.0950  1.2337 -0.8231
  143OSM    C4F15730   3.792   6.536   7.164 -0.7832 -0.3391 -0.6264
  143OSM    H4F15731   3.876   6.609   7.160 -0.1663 -1.0008 -0.1202
  143OSM    H4G15732   3.839   6.435   7.171  1.7692  0.7341 -0.9633
  143OSM    C5F15733   3.692   6.567   7.278  0.0625 -0.6205  0.6099
  143OSM    H5F15734   3.623   6.480   7.278  1.1943 -1.6428 -1.7915
  143OSM    H5G15735   3.623   6.652   7.262  1.0133 -0.1003 -0.9661
  143OSM    C6F15736   3.769   6.591   7.411  0.0516  0.5625 -0.2049
  143OSM    H6F15737   3.831   6.679   7.384 -0.3909  0.5615 -1.2744
  143OSM    H6G15738   3.846   6.514   7.433 -2.2644 -1.9532 -0.2701
  143OSM    C7F15739   3.683   6.629   7.533 -0.1588  0.0522  0.0952
  143OSM    H7F15740   3.606   6.701   7.497  0.6928  0.9015 -0.0662
  143OSM    H7G15741   3.750   6.692   7.595 -2.7766  1.1331  2.0075
  143OSM    C8F15742   3.621   6.506   7.617 -0.4036  0.0380  0.0163
  143OSM    H8F15743   3.529   6.486   7.559 -0.2712  0.3868 -0.3180
  143OSM    H8G15744   3.584   6.554   7.710 -3.3606 -1.5748 -0.2235
  143OSM    C9F15745   3.713   6.391   7.659 -0.1202  0.1922  0.4989
  143OSM    H9F15746   3.739   6.320   7.579 -2.8449 -0.4281  0.0437
  143OSM   C10F15747   3.754   6.368   7.782  0.0674 -0.1730  0.0800
  143OSM   H10F15748   3.805   6.273   7.806 -1.7733 -1.5567 -1.1627
  143OSM   C11F15749   3.733   6.461   7.903 -0.0063  0.0591 -0.2971
  143OSM   H11F15750   3.710   6.565   7.868 -1.7983 -0.8203 -1.9507
  143OSM   H11G15751   3.820   6.480   7.968 -0.4529  0.8350  0.0962
  143OSM   C12F15752   3.611   6.430   7.998  0.2268 -0.2469  0.0295
  143OSM   H12F15753   3.635   6.340   8.058  0.6895 -0.9921 -1.2592
  143OSM   H12G15754   3.520   6.399   7.941  0.7511 -2.2841  0.2337
  143OSM   C13F15755   3.581   6.548   8.088 -0.0342  0.3773  0.1270
  143OSM   H13F15756   3.562   6.621   8.007  0.3924 -1.6929 -1.9568
  143OSM   H13G15757   3.665   6.569   8.157  0.7240 -0.0191 -0.6707
  143OSM   C14F15758   3.460   6.513   8.181  0.1433 -0.0196 -1.0111
  143OSM   H14F15759   3.379   6.457   8.131 -1.4598  1.4044 -0.1266
  143OSM   H14G15760   3.411   6.610   8.203  0.8596  0.2320 -0.4871
  143OSM   C15F15761   3.495   6.445   8.322 -0.2311 -0.2297 -0.6935
  143OSM   H15F15762   3.529   6.525   8.391 -2.5347 -1.1163  1.6369
  143OSM   H15G15763   3.572   6.370   8.294  0.4090  0.6145 -1.2402
  143OSM   C16F15764   3.390   6.361   8.394 -0.0845  0.3783 -0.3121
  143OSM   H16F15765   3.349   6.279   8.331  0.8727  0.1033 -0.5913
  143OSM   H16G15766   3.302   6.417   8.432  0.1569 -0.1285  1.0640
  143OSM   C17F15767   3.456   6.295   8.515 -0.3168  0.1675  0.4221
  143OSM   H17F15768   3.491   6.368   8.591 -0.6583  0.7248  0.0443
  143OSM   H17G15769   3.543   6.236   8.478 -0.7541 -1.3946  1.7604
  143OSM   C18F15770   3.364   6.193   8.589 -0.4113 -0.6384 -0.9322
  143OSM   H18F15771   3.429   6.115   8.633  1.3046  0.0616 -2.1217
  143OSM   H18G15772   3.292   6.151   8.516 -1.0217  0.3472 -0.9153
  143OSM   H18H15773   3.318   6.249   8.674 -0.7579 -0.8471 -0.9786
  144OSM      N15774   2.028   5.763   6.341  0.1697  0.4443  0.3134
  144OSM    C1515775   2.042   5.639   6.258  0.0409 -0.4433 -0.5044
  144OSM   H15A15776   2.140   5.632   6.212  0.1827  2.0181 -0.7355
  144OSM   H15B15777   1.964   5.633   6.184 -1.6252  2.9441  0.7578
  144OSM   H15C15778   2.017   5.550   6.313 -2.2425  0.1853 -0.4509
  144OSM    C1415779   2.056   5.883   6.259 -0.1409 -0.3973  0.0273
  144OSM   H14A15780   1.980   5.924   6.193  0.1402  3.0930  1.6641
  144OSM   H14B15781   2.150   5.873   6.208  1.3994  0.4260  2.5563
  144OSM   H14C15782   2.058   5.964   6.329  0.6029 -0.5411  0.1771
  144OSM    C1315783   1.895   5.775   6.409  0.1468 -0.0244 -0.4715
  144OSM   H13A15784   1.881   5.874   6.451 -0.4295 -0.4576  0.3887
  144OSM   H13B15785   1.871   5.693   6.475  0.4171 -0.9595 -1.4917
  144OSM   H13C15786   1.818   5.763   6.334  0.5113 -1.3528 -0.6613
  144OSM    C1215787   2.128   5.760   6.458 -0.1632  0.3115  0.1177
  144OSM   H12A15788   2.095   5.681   6.524 -0.0586 -1.1364 -1.5193
  144OSM   H12B15789   2.113   5.850   6.516 -2.2976  0.4208 -0.5175
  144OSM    C1115790   2.278   5.742   6.427  0.1243 -0.3758  0.0313
  144OSM   H11A15791   2.282   5.654   6.359 -0.7442  0.6298 -1.3770
  144OSM   H11B15792   2.326   5.728   6.526 -1.5848 -2.0723  0.6723
  144OSM      P15793   2.380   5.983   6.429 -0.3768  0.0565 -0.1169
  144OSM    O1315794   2.528   5.989   6.441 -0.3891 -0.4914 -0.8027
  144OSM    O1415795   2.310   6.091   6.367  0.0743 -0.4873  0.1883
  144OSM    O1115796   2.322   5.969   6.567 -0.2746 -0.1908  0.7705
  144OSM    O1215797   2.341   5.847   6.361  0.0752 -0.1216 -1.0481
  144OSM    C1S15798   2.324   6.081   6.663 -0.3054  0.8689 -0.1143
  144OSM    H1S15799   2.263   6.166   6.626 -0.2991  0.9777  0.1193
  144OSM    H1T15800   2.424   6.123   6.689  0.3314 -0.2984 -0.6124
  144OSM     NF15801   2.218   6.170   6.873 -0.0254 -0.0439 -0.3461
  144OSM    HNF15802   2.297   6.200   6.926  0.0096  1.6894 -1.3225
  144OSM    C2S15803   2.255   6.049   6.802  0.1389  0.6855  0.4513
  144OSM    H2S15804   2.165   5.987   6.785 -0.3684  0.6821  2.7754
  144OSM    C3S15805   2.354   5.952   6.875  0.3743  0.4384  0.3291
  144OSM    H3S15806   2.433   6.027   6.898  2.2819 -1.2015 -0.5259
  144OSM     O315807   2.417   5.858   6.782  0.4550  0.4643  0.2280
  144OSM    HO315808   2.385   5.883   6.695  2.6493  1.3045 -0.4215
  144OSM    C4S15809   2.282   5.898   6.995 -0.5564  0.3162 -0.4857
  144OSM    H4S15810   2.277   5.970   7.078  0.2174  1.0688 -1.0765
  144OSM    C5S15811   2.209   5.784   7.004 -0.2405  0.0224  0.5458
  144OSM    H5S15812   2.192   5.717   6.918 -1.8482  0.6437  0.3443
  144OSM    C6S15813   2.131   5.733   7.122 -0.9799 -0.1994 -0.2385
  144OSM    H6S15814   2.160   5.626   7.134  2.1505  0.5878  0.0239
  144OSM    H6T15815   2.022   5.731   7.103 -1.0948 -1.4181  0.4266
  144OSM    C7S15816   2.146   5.801   7.258 -0.6543  0.4647  0.2586
  144OSM    H7S15817   2.114   5.908   7.260 -0.3552  0.5618  0.0373
  144OSM    H7T15818   2.256   5.801   7.271 -0.1969  2.2293 -2.6046
  144OSM    C8S15819   2.083   5.718   7.369  0.4527 -0.1084 -1.0831
  144OSM    H8S15820   2.138   5.622   7.381  0.4805  0.1155  0.8334
  144OSM    H8T15821   1.973   5.705   7.354 -0.0429 -0.7247  2.2726
  144OSM    C9S15822   2.089   5.789   7.508 -0.8592  0.0913 -0.3243
  144OSM    H9S15823   2.053   5.894   7.502  0.6338  0.6004 -0.7679
  144OSM    H9T15824   2.193   5.796   7.548 -0.8028  0.6843 -0.5606
  144OSM   C10S15825   2.008   5.721   7.615  0.2105 -0.2636 -0.2759
  144OSM   H10S15826   2.061   5.625   7.635  1.0270  0.6828  2.6444
  144OSM   H10T15827   1.899   5.706   7.598 -0.2905 -0.7507  2.7294
  144OSM   C11S15828   2.020   5.801   7.745 -0.3781 -0.1119 -0.1806
  144OSM   H11S15829   1.952   5.889   7.746  1.7560  1.6777 -1.4544
  144OSM   H11T15830   2.125   5.835   7.760 -0.6305  0.3274  0.6599
  144OSM   C12S15831   1.974   5.700   7.848  0.3241  0.0618 -0.0463
  144OSM   H12S15832   2.034   5.606   7.854 -0.8893 -0.6100  2.7748
  144OSM   H12T15833   1.880   5.659   7.805 -0.0648 -0.2840  1.1151
  144OSM   C13S15834   1.948   5.770   7.980 -0.3626  0.2315 -0.1665
  144OSM   H13S15835   1.886   5.860   7.960  0.1978  0.5892 -0.3118
  144OSM   H13T15836   2.041   5.822   8.011 -0.9317  0.1261  1.8323
  144OSM   C14S15837   1.885   5.688   8.100 -0.2448  0.2234 -0.0311
  144OSM   H14S15838   1.969   5.630   8.144 -0.9643 -0.7675  0.0525
  144OSM   H14T15839   1.810   5.625   8.048 -0.4161  0.8596 -0.5724
  144OSM   C15S15840   1.817   5.773   8.204  0.3167  0.0832 -0.7259
  144OSM   H15S15841   1.777   5.700   8.278 -0.7764  0.3820 -1.0065
  144OSM   H15T15842   1.723   5.823   8.173 -0.6088 -0.7324  0.6355
  144OSM   C16S15843   1.912   5.865   8.282  0.1333  0.4372  0.2710
  144OSM   H16S15844   1.936   5.949   8.214 -1.4963  1.0994  0.4694
  144OSM   H16T15845   2.005   5.809   8.308  1.6616  2.4119 -0.6231
  144OSM   C17S15846   1.852   5.927   8.408  0.0535 -0.2294  0.4590
  144OSM   H17S15847   1.769   5.986   8.363 -0.3569 -0.8715  0.3573
  144OSM   H17T15848   1.928   5.994   8.453  1.3161  0.2194 -2.1761
  144OSM   C18S15849   1.807   5.816   8.505 -0.6432  0.1627  0.7561
  144OSM   H18S15850   1.714   5.774   8.462 -0.4515  0.1034  0.4028
  144OSM   H18T15851   1.791   5.847   8.611 -0.5449 -0.7208  1.0378
  144OSM   H18U15852   1.887   5.741   8.520  0.0330  0.7939  0.3545
  144OSM    C1F15853   2.134   6.261   6.823  0.9904  0.5209 -0.0461
  144OSM     OF15854   2.048   6.223   6.745  0.9244  0.3503 -0.2493
  144OSM    C2F15855   2.148   6.402   6.862  0.5319 -0.7929  0.3479
  144OSM    H2F15856   2.165   6.463   6.770 -1.1794  0.2424  0.6669
  144OSM    H2G15857   2.248   6.417   6.907  0.4979 -0.1050  0.2016
  144OSM    C3F15858   2.044   6.455   6.955 -0.2462  0.1033 -0.7006
  144OSM    H3F15859   1.946   6.454   6.902 -0.6059 -0.6995 -0.0363
  144OSM    H3G15860   2.073   6.561   6.973  0.1009 -0.0959 -0.0448
  144OSM    C4F15861   2.027   6.370   7.082 -0.7701  0.0535  0.3914
  144OSM    H4F15862   2.131   6.349   7.114 -0.3813  2.8921  1.3600
  144OSM    H4G15863   1.971   6.276   7.065 -1.3031  0.5789 -0.8904
  144OSM    C5F15864   1.965   6.439   7.205 -0.2446  0.4170 -0.0307
  144OSM    H5F15865   1.856   6.458   7.194 -0.6601 -0.9131  1.4850
  144OSM    H5G15866   2.007   6.535   7.242  2.0339 -1.7899  3.7127
  144OSM    C6F15867   1.985   6.338   7.327 -0.5131  0.2579 -0.5486
  144OSM    H6F15868   2.093   6.317   7.344 -0.7175 -0.5596 -0.2521
  144OSM    H6G15869   1.932   6.244   7.300 -0.0563  0.4134 -2.0930
  144OSM    C7F15870   1.923   6.377   7.463 -0.1646  0.0543 -0.1572
  144OSM    H7F15871   1.815   6.379   7.436 -0.3800 -0.9864  0.5601
  144OSM    H7G15872   1.949   6.482   7.488  1.0194 -0.5792  1.4345
  144OSM    C8F15873   1.960   6.296   7.581  0.0212  0.2554 -0.5380
  144OSM    H8F15874   2.068   6.271   7.581  0.1145  0.6417  0.2847
  144OSM    H8G15875   1.907   6.199   7.571  1.2433 -0.5085  0.1475
  144OSM    C9F15876   1.926   6.369   7.710  0.1770 -0.2869  0.1368
  144OSM    H9F15877   1.960   6.472   7.725  0.9316 -0.4960 -0.0899
  144OSM   C10F15878   1.873   6.305   7.816  0.6802  0.1584  0.2804
  144OSM   H10F15879   1.869   6.360   7.911  1.0411  0.0754  0.3458
  144OSM   C11F15880   1.830   6.156   7.824 -0.6378  0.0567  0.2532
  144OSM   H11F15881   1.887   6.097   7.899 -2.2265  0.8238  2.1335
  144OSM   H11G15882   1.837   6.099   7.728  0.5904 -1.4202  1.1759
  144OSM   C12F15883   1.689   6.136   7.878  0.0395 -0.4158 -0.2777
  144OSM   H12F15884   1.664   6.028   7.881  1.1323 -0.7865 -2.5388
  144OSM   H12G15885   1.630   6.184   7.797  0.5771  1.2682  0.2836
  144OSM   C13F15886   1.659   6.197   8.012  0.9484  0.9216  0.1633
  144OSM   H13F15887   1.611   6.295   7.993  2.4856  1.9051  1.0269
  144OSM   H13G15888   1.750   6.209   8.075  0.8939 -0.4785  0.5356
  144OSM   C14F15889   1.569   6.103   8.095 -0.0285  0.1545  0.3215
  144OSM   H14F15890   1.617   6.003   8.102 -0.5429 -0.0414  1.3366
  144OSM   H14G15891   1.473   6.098   8.040 -0.1726  0.9838  0.4813
  144OSM   C15F15892   1.556   6.141   8.244 -0.0318 -0.5403 -0.0245
  144OSM   H15F15893   1.506   6.240   8.248 -0.0376 -0.5056 -0.7707
  144OSM   H15G15894   1.655   6.170   8.284 -0.8877 -0.2681  1.9783
  144OSM   C16F15895   1.494   6.041   8.336 -0.3944  0.1306  0.6842
  144OSM   H16F15896   1.548   5.945   8.322 -0.8260 -0.2163  1.3249
  144OSM   H16G15897   1.386   6.031   8.311 -0.1629  1.4214 -0.9820
  144OSM   C17F15898   1.497   6.081   8.486  0.0798 -0.0905  0.1930
  144OSM   H17F15899   1.445   6.178   8.497  1.6519  0.7294  0.6499
  144OSM   H17G15900   1.602   6.104   8.512  1.0605 -2.7036 -1.0364
  144OSM   C18F15901   1.443   5.976   8.578 -0.4110 -0.0791 -0.0383
  144OSM   H18F15902   1.486   5.877   8.551  1.1059  0.8489 -1.1975
  144OSM   H18G15903   1.332   5.969   8.572 -0.2702 -1.4931 -3.7796
  144OSM   H18H15904   1.474   5.985   8.684  0.7748  0.9270 -0.4471
  145SAPE     N15905   1.705   1.370  10.713  0.1330 -0.0365  0.3670
  145SAPE   HN115906   1.607   1.335  10.716  0.8398 -2.2252 -0.2893
  145SAPE   HN215907   1.742   1.339  10.805 -1.9881 -1.7379  0.7237
  145SAPE   HN315908   1.708   1.474  10.701 -1.1650 -0.0006  0.2550
  145SAPE   C1215909   1.782   1.307  10.600 -0.4328 -0.1570 -0.4804
  145SAPE  H12A15910   1.754   1.353  10.503  2.7862 -1.8981 -2.4020
  145SAPE  H12B15911   1.763   1.198  10.590 -0.0090 -0.1707 -1.2575
  145SAPE   C1115912   1.929   1.329  10.637 -0.1367  0.4144  0.3508
  145SAPE  H11A15913   1.986   1.292  10.549 -0.5861 -0.8075  0.5488
  145SAPE  H11B15914   1.958   1.268  10.725 -0.4540 -2.1883 -1.2213
  145SAPE     P15915   2.091   1.537  10.619  0.0918  0.2551 -0.0767
  145SAPE   O1315916   2.126   1.649  10.713 -0.1284  0.3516 -0.1962
  145SAPE   O1415917   2.182   1.428  10.592 -0.3927  0.0755  0.6044
  145SAPE   O1215918   1.951   1.471  10.657  0.0630 -0.1776  0.6280
  145SAPE   O1115919   2.057   1.606  10.481  0.3948 -0.2299 -0.1777
  145SAPE    C115920   1.961   1.711  10.475 -0.8252 -0.2123 -0.4660
  145SAPE    HA15921   1.938   1.759  10.572 -0.3549  1.3252 -1.0811
  145SAPE    HB15922   2.001   1.796  10.415 -0.3049 -1.6937 -2.3324
  145SAPE    C215923   1.839   1.660  10.402 -0.0893 -0.0137 -0.4571
  145SAPE    HS15924   1.817   1.576  10.470 -0.7951 -0.9928 -1.8454
  145SAPE   O2115925   1.887   1.621  10.271  0.1481  0.2544  0.3124
  145SAPE   C2115926   1.825   1.523  10.208 -0.3905 -0.4447  0.0660
  145SAPE   O2215927   1.725   1.461  10.244 -0.2470  0.8081 -0.5107
  145SAPE   C2215928   1.897   1.502  10.087 -0.2716  0.4220  1.1947
  145SAPE   H2R15929   1.979   1.574  10.069  0.6141 -0.3934  1.8409
  145SAPE   H2S15930   1.951   1.406  10.100 -1.6751 -0.8734 -1.5992
  145SAPE    C315931   1.730   1.756  10.393 -0.2367 -0.1750  0.3566
  145SAPE    HX15932   1.721   1.795  10.497  1.1744  1.3653 -0.0502
  145SAPE    HY15933   1.631   1.713  10.367  0.1874 -0.8702 -0.1240
  145SAPE   O3115934   1.780   1.864  10.307 -0.7472  0.1838  0.1725
  145SAPE   C3115935   1.720   1.861  10.187 -0.3340 -0.1802 -0.5814
  145SAPE   O3215936   1.643   1.773  10.144 -0.7921 -0.1268 -0.4767
  145SAPE   C3215937   1.753   1.989  10.115  0.4663  0.2319  0.4287
  145SAPE   H2X15938   1.763   2.073  10.187  1.3993 -1.3327  2.2455
  145SAPE   H2Y15939   1.668   2.017  10.049  1.3454  0.3923 -0.6650
  145SAPE   C2315940   1.818   1.496   9.962  0.3534  0.4276  0.0025
  145SAPE   H3R15941   1.791   1.596   9.923  0.4933  0.6263  0.4156
  145SAPE   H3S15942   1.722   1.446   9.987  0.3798 -0.3295 -1.2998
  145SAPE   C2415943   1.878   1.409   9.854  0.4804  0.3373  0.4055
  145SAPE   H4R15944   1.979   1.448   9.830  0.3173  0.7784  0.4314
  145SAPE   H4S15945   1.816   1.412   9.762  0.4505 -0.0936  0.4086
  145SAPE   C2515946   1.891   1.262   9.889 -0.9759 -0.3911 -0.1042
  145SAPE   H5R15947   1.926   1.240   9.991 -0.8119  3.7192  0.9240
  145SAPE   C2615948   1.868   1.165   9.804  0.3465  0.0135  0.7416
  145SAPE   H6R15949   1.892   1.060   9.830  3.4439  0.7907  1.4173
  145SAPE   C2715950   1.819   1.170   9.664  0.4586 -0.5143 -0.0527
  145SAPE   H7R15951   1.900   1.136   9.596 -0.4423 -1.9855 -0.4389
  145SAPE   H7S15952   1.792   1.277   9.647 -0.9436 -1.1564 -2.1852
  145SAPE   C2815953   1.701   1.084   9.646 -0.7434  0.8045  0.2137
  145SAPE   H8R15954   1.664   1.018   9.726  3.1320 -1.7619  0.1759
  145SAPE   C2915955   1.646   1.066   9.524  0.8455 -0.4515  0.5257
  145SAPE   H9R15956   1.552   1.012   9.506  0.9921 -0.0262 -1.8539
  145SAPE  C21015957   1.673   1.142   9.397 -0.2455  0.1828  0.3512
  145SAPE  H10R15958   1.775   1.119   9.360  0.2897  1.2398  1.1260
  145SAPE  H10S15959   1.673   1.251   9.415 -1.2457  1.1237 -4.1256
  145SAPE  C21115960   1.581   1.098   9.284 -0.4344 -0.2922  0.3844
  145SAPE  H11R15961   1.504   1.024   9.314 -1.0475 -1.1053 -2.8286
  145SAPE  C21215962   1.586   1.149   9.161  0.2768 -0.2491  0.0297
  145SAPE  H12R15963   1.525   1.100   9.084 -1.6433  0.9324  0.7164
  145SAPE  C21315964   1.679   1.255   9.111 -0.3523  1.0971 -0.3881
  145SAPE  H13R15965   1.742   1.236   9.022  0.5172 -0.4217  0.5129
  145SAPE  H13S15966   1.764   1.276   9.180  1.6017 -0.0875 -2.3240
  145SAPE  C21415967   1.603   1.386   9.103  0.0560 -0.2669  0.0121
  145SAPE  H14R15968   1.536   1.402   9.189 -3.1544 -1.2806 -2.1290
  145SAPE  C21515969   1.580   1.455   8.991  0.2536  0.2513 -0.0911
  145SAPE  H15R15970   1.529   1.553   8.992  1.0376  0.7112 -1.5745
  145SAPE  C21615971   1.630   1.402   8.855 -0.0241 -0.2537  0.3282
  145SAPE  H16R15972   1.641   1.293   8.837  0.8410  0.1825 -2.2731
  145SAPE  H16S15973   1.736   1.436   8.846  0.5250 -1.5170  1.6529
  145SAPE  C21715974   1.548   1.470   8.741  0.1689  0.0108 -0.0662
  145SAPE  H17R15975   1.448   1.424   8.753 -0.9747  2.7614  1.9134
  145SAPE  H17S15976   1.597   1.451   8.643  0.6032  0.8164 -0.0121
  145SAPE  C21815977   1.539   1.622   8.743  0.8203  0.5998 -0.1651
  145SAPE  H18R15978   1.635   1.675   8.757  0.8848  0.5737 -0.4897
  145SAPE  H18S15979   1.468   1.666   8.816  1.1172  0.9450 -0.0828
  145SAPE  C21915980   1.500   1.682   8.601  0.9215 -0.0201  0.0321
  145SAPE  H19R15981   1.405   1.631   8.573  0.4936 -0.9877  2.9158
  145SAPE  H19S15982   1.578   1.666   8.524 -0.9096  0.7050 -2.1084
  145SAPE  C22015983   1.482   1.833   8.597 -0.3995 -0.3998 -0.0180
  145SAPE  H20R15984   1.406   1.861   8.673  0.6805 -1.7555  1.6538
  145SAPE  H20S15985   1.432   1.865   8.503 -3.0453 -1.2004  1.0191
  145SAPE  H20T15986   1.584   1.875   8.611 -0.3464 -0.0847 -1.2655
  145SAPE   C3315987   1.889   1.982  10.049  0.1945 -0.3214 -0.0296
  145SAPE   H3X15988   1.959   1.957  10.132 -0.4632 -1.0279  0.3252
  145SAPE   H3Y15989   1.917   2.081  10.009  0.0150 -0.4941 -0.5810
  145SAPE   C3415990   1.916   1.882   9.931 -0.7364  0.4464  0.8280
  145SAPE   H4X15991   1.908   1.776   9.962 -1.2336  0.3954  0.5350
  145SAPE   H4Y15992   2.020   1.916   9.914 -1.3760  1.6933 -0.9308
  145SAPE   C3515993   1.813   1.891   9.814 -0.2980 -0.3011  0.6468
  145SAPE   H5X15994   1.824   1.996   9.778  0.6616  0.5958  3.2963
  145SAPE   H5Y15995   1.712   1.871   9.855 -1.9527  0.2775 -2.7842
  145SAPE   C3615996   1.842   1.803   9.691  0.0709 -0.6171 -0.2408
  145SAPE   H6X15997   1.836   1.697   9.723 -0.6747 -0.2859  0.7794
  145SAPE   H6Y15998   1.946   1.816   9.654 -0.5210 -0.5275 -1.9629
  145SAPE   C3715999   1.763   1.837   9.565 -0.0883 -1.0155  0.0362
  145SAPE   H7X16000   1.783   1.938   9.523  0.0987 -1.0711 -0.0087
  145SAPE   H7Y16001   1.653   1.840   9.585 -0.5406  0.3740 -2.2342
  145SAPE   C3816002   1.783   1.743   9.453 -0.0234  1.3362 -0.1552
  145SAPE   H8X16003   1.754   1.640   9.481  1.6422  0.2315 -2.2421
  145SAPE   H8Y16004   1.894   1.740   9.448  0.1689  1.9671  2.1381
  145SAPE   C3916005   1.711   1.761   9.325  0.7690  0.0428 -0.0543
  145SAPE   H9X16006   1.600   1.762   9.332  0.7521  2.0630  0.1551
  145SAPE   H9Y16007   1.740   1.690   9.245 -1.8871  1.4647 -2.4719
  145SAPE  C31016008   1.746   1.899   9.270 -0.0291  0.5811 -0.3498
  145SAPE  H10X16009   1.855   1.917   9.259  0.1074  2.7374  3.0920
  145SAPE  H10Y16010   1.695   1.976   9.332 -1.5067  0.9798 -1.9643
  145SAPE  C31116011   1.671   1.909   9.132  0.3428  0.5034  0.4996
  145SAPE  H11X16012   1.561   1.899   9.145  0.1172  0.5001 -1.2232
  145SAPE  H11Y16013   1.709   1.822   9.074 -0.0301 -0.2207  1.3211
  145SAPE  C31216014   1.699   2.034   9.057 -0.5558  0.4268  0.2519
  145SAPE  H12X16015   1.809   2.047   9.065  0.1398 -3.1863 -1.5048
  145SAPE  H12Y16016   1.654   2.122   9.108 -0.6233  0.5918 -0.0897
  145SAPE  C31316017   1.654   2.022   8.907 -0.6215 -0.2105  0.9948
  145SAPE  H13X16018   1.543   2.011   8.907 -0.6020 -1.1858 -1.3919
  145SAPE  H13Y16019   1.701   1.931   8.863  0.4850  1.5608 -1.7879
  145SAPE  C31416020   1.682   2.161   8.831  0.7876  0.2643 -0.4043
  145SAPE  H14X16021   1.781   2.189   8.873  2.0995 -2.7344 -1.2154
  145SAPE  H14Y16022   1.603   2.236   8.851  1.0125  0.4718 -0.2916
  145SAPE  C31516023   1.700   2.144   8.680  0.6316  0.2954 -0.1802
  145SAPE  H15X16024   1.601   2.125   8.633  0.5281 -0.0765  0.1844
  145SAPE  H15Y16025   1.760   2.051   8.667  2.3482  0.9045  2.5419
  145SAPE  C31616026   1.768   2.265   8.607 -0.5557  0.3835 -0.0881
  145SAPE  H16X16027   1.787   2.225   8.505  2.0989 -1.6186  1.0654
  145SAPE  H16Y16028   1.861   2.312   8.644 -2.0528  3.2792  0.3218
  145SAPE  C31716029   1.672   2.384   8.605  0.1595  0.8828 -0.0759
  145SAPE  H17X16030   1.630   2.419   8.702 -0.0814  2.9185 -0.8782
  145SAPE  H17Y16031   1.582   2.344   8.553 -0.3097  0.0326  1.3111
  145SAPE  C31816032   1.729   2.504   8.524  0.5206 -0.1043 -0.8531
  145SAPE  H18X16033   1.773   2.459   8.432 -0.7969 -0.7875 -1.1624
  145SAPE  H18Y16034   1.802   2.558   8.588 -0.9486  1.3584 -0.3344
  145SAPE  H18Z16035   1.652   2.578   8.495 -1.8693 -0.8975  2.8216
  146SAPE     N16036   6.697   0.641  10.827  0.1687  0.1734 -0.1248
  146SAPE   HN116037   6.740   0.688  10.909 -0.3158 -2.3954  1.7090
  146SAPE   HN216038   6.676   0.548  10.868 -1.5403  0.1397 -0.9792
  146SAPE   HN316039   6.763   0.625  10.749  0.8240 -1.0347  0.6552
  146SAPE   C1216040   6.575   0.716  10.787 -0.8045 -0.0580  0.4986
  146SAPE  H12A16041   6.507   0.727  10.873 -1.2287  2.3584 -0.0814
  146SAPE  H12B16042   6.524   0.655  10.709  1.5527 -0.7961 -0.5778
  146SAPE   C1116043   6.603   0.858  10.729  0.3269  0.6906 -0.0139
  146SAPE  H11A16044   6.509   0.914  10.713 -0.2515 -0.4497 -0.7488
  146SAPE  H11B16045   6.651   0.848  10.629  1.8271 -0.9645  0.8071
  146SAPE     P16046   6.707   1.075  10.835  0.4116  0.1355 -0.1255
  146SAPE   O1316047   6.746   1.088  10.977 -0.3974  0.0039 -0.1663
  146SAPE   O1416048   6.787   1.129  10.728 -0.3096  0.0844  0.7081
  146SAPE   O1216049   6.695   0.918  10.811  0.3866 -0.2339 -0.4317
  146SAPE   O1116050   6.554   1.125  10.826  0.4757  0.5721  0.5875
  146SAPE    C116051   6.508   1.256  10.837  0.2693  0.5397  0.1582
  146SAPE    HA16052   6.521   1.297  10.939 -1.8291 -1.4679  1.3203
  146SAPE    HB16053   6.555   1.322  10.761 -1.4431  0.3029 -1.1694
  146SAPE    C216054   6.354   1.274  10.809  0.1849  0.4569 -0.4493
  146SAPE    HS16055   6.306   1.217  10.891 -1.5855  0.4049 -1.4634
  146SAPE   O2116056   6.322   1.234  10.681  0.0316 -0.2851 -0.1634
  146SAPE   C2116057   6.281   1.109  10.672 -0.3208  0.0705  1.0067
  146SAPE   O2216058   6.246   1.041  10.766 -0.3530 -0.0557  0.0191
  146SAPE   C2216059   6.280   1.066  10.522  0.5259 -0.5207 -0.1745
  146SAPE   H2R16060   6.274   0.955  10.522  1.2423 -0.5867 -1.4978
  146SAPE   H2S16061   6.188   1.110  10.479  1.6327  1.2057 -0.9194
  146SAPE    C316062   6.329   1.430  10.821 -0.0310 -0.1310  1.2365
  146SAPE    HX16063   6.375   1.468  10.915  2.7228  1.1556 -0.5340
  146SAPE    HY16064   6.220   1.448  10.810 -0.3021 -1.8090  0.8592
  146SAPE   O3116065   6.392   1.495  10.709  0.0261 -0.1519 -0.1442
  146SAPE   C3116066   6.367   1.629  10.690  0.4236  0.3390  0.5096
  146SAPE   O3216067   6.296   1.696  10.760 -0.2299 -0.1145  0.0537
  146SAPE   C3216068   6.423   1.668  10.549  0.8440 -0.7401  0.3533
  146SAPE   H2X16069   6.337   1.650  10.481 -1.3657  0.9264  2.5186
  146SAPE   H2Y16070   6.512   1.609  10.518  0.7257 -0.4535 -0.5619
  146SAPE   C2316071   6.401   1.119  10.436  0.5382  0.1216 -0.0299
  146SAPE   H3R16072   6.491   1.128  10.500  0.1545  1.2960  0.3700
  146SAPE   H3S16073   6.371   1.218  10.394 -2.9802  0.4630  2.8245
  146SAPE   C2416074   6.431   1.037  10.305  0.3271 -0.0586  0.5643
  146SAPE   H4R16075   6.445   0.931  10.333 -1.9488 -1.5498 -3.2266
  146SAPE   H4S16076   6.523   1.092  10.277  0.4860 -0.3540  0.5128
  146SAPE   C2516077   6.325   1.054  10.193  0.0980  0.0993  0.7930
  146SAPE   H5R16078   6.222   1.043  10.229  0.2329 -0.8637  0.9199
  146SAPE   C2616079   6.342   1.098  10.064  0.0470 -0.2846  0.5936
  146SAPE   H6R16080   6.246   1.093  10.011  0.6290 -2.8347 -0.3865
  146SAPE   C2716081   6.457   1.144   9.982  0.1099  0.2543 -0.3869
  146SAPE   H7R16082   6.549   1.128  10.042 -1.4287  0.1659  2.0675
  146SAPE   H7S16083   6.439   1.252   9.969  0.1462  0.7459  2.8264
  146SAPE   C2816084   6.472   1.058   9.856  0.0968 -0.5143  1.0121
  146SAPE   H8R16085   6.540   0.972   9.855  1.2361  0.2826 -2.1966
  146SAPE   C2916086   6.416   1.097   9.742  0.4682  0.2122 -0.1015
  146SAPE   H9R16087   6.441   1.035   9.654 -2.0349 -0.8419 -0.1549
  146SAPE  C21016088   6.322   1.216   9.709  0.1607  0.1692  0.3001
  146SAPE  H10R16089   6.392   1.282   9.655 -0.6093  2.3272  1.7940
  146SAPE  H10S16090   6.301   1.270   9.804  2.3670 -1.0965  1.5847
  146SAPE  C21116091   6.193   1.186   9.633  0.2708 -0.7164  0.6800
  146SAPE  H11R16092   6.098   1.184   9.688 -1.4555 -0.3978 -2.0514
  146SAPE  C21216093   6.182   1.183   9.500  0.0916  0.4774  0.2810
  146SAPE  H12R16094   6.088   1.142   9.459  0.5787 -1.6014  1.1058
  146SAPE  C21316095   6.298   1.192   9.409  0.9374 -0.0569 -0.2282
  146SAPE  H13R16096   6.351   1.095   9.419 -1.4350 -1.2693  1.4836
  146SAPE  H13S16097   6.365   1.277   9.436 -0.6699  2.6026 -3.7308
  146SAPE  C21416098   6.239   1.219   9.269 -0.6611  0.5803 -0.3536
  146SAPE  H14R16099   6.161   1.297   9.263 -0.9339  0.3470  0.1167
  146SAPE  C21516100   6.260   1.151   9.155 -0.5577 -0.2503 -0.2633
  146SAPE  H15R16101   6.202   1.192   9.072 -0.4953  1.3927  0.4757
  146SAPE  C21616102   6.360   1.040   9.141 -0.4069 -0.6043 -0.0980
  146SAPE  H16R16103   6.305   0.943   9.135  1.5880 -1.7436 -1.0683
  146SAPE  H16S16104   6.426   1.028   9.229 -2.8442  0.0531  1.9205
  146SAPE  C21716105   6.455   1.060   9.023  0.3650  0.5895 -0.0950
  146SAPE  H17R16106   6.537   0.984   9.025 -1.7182 -1.8774 -1.8053
  146SAPE  H17S16107   6.505   1.159   9.031  2.1358 -0.1770 -0.8809
  146SAPE  C21816108   6.376   1.037   8.891  0.3364 -0.1886 -0.9451
  146SAPE  H18R16109   6.309   1.123   8.873  0.5945  0.3876  0.6685
  146SAPE  H18S16110   6.310   0.948   8.903 -1.6901  0.8727 -3.3200
  146SAPE  C21916111   6.458   1.020   8.765  0.3403  0.6910 -0.7415
  146SAPE  H19R16112   6.380   1.001   8.689 -0.9038  2.4761  0.0331
  146SAPE  H19S16113   6.514   0.923   8.769 -0.8065 -0.1543 -3.2641
  146SAPE  C22016114   6.551   1.133   8.727 -0.5557  0.2505 -0.2195
  146SAPE  H20R16115   6.619   1.096   8.648 -1.9176  2.4975 -2.6040
  146SAPE  H20S16116   6.599   1.173   8.819 -2.1545 -0.8667  1.1411
  146SAPE  H20T16117   6.496   1.218   8.679 -0.6604  2.1118  2.9120
  146SAPE   C3316118   6.466   1.817  10.542 -0.0026  0.3059 -0.6418
  146SAPE   H3X16119   6.551   1.829  10.613 -0.1485 -1.3122 -0.1603
  146SAPE   H3Y16120   6.382   1.882  10.573 -0.4429 -0.2229 -0.7192
  146SAPE   C3416121   6.533   1.857  10.406 -0.1849 -0.3455 -0.0085
  146SAPE   H4X16122   6.640   1.824  10.400  0.0568  0.3684  0.3802
  146SAPE   H4Y16123   6.560   1.964  10.409 -2.0717  0.1876 -0.8217
  146SAPE   C3516124   6.470   1.815  10.272 -0.0309 -0.1209  0.5947
  146SAPE   H5X16125   6.378   1.877  10.265 -0.0921 -0.2937 -0.2784
  146SAPE   H5Y16126   6.435   1.710  10.268  0.1122 -0.1376 -0.5433
  146SAPE   C3616127   6.553   1.865  10.155  0.5309  0.1489  0.5533
  146SAPE   H6X16128   6.657   1.829  10.161  1.2069  1.9615  0.3908
  146SAPE   H6Y16129   6.567   1.975  10.162 -0.9652  0.2711  2.8454
  146SAPE   C3716130   6.487   1.830  10.021 -1.2770  0.5085 -0.4397
  146SAPE   H7X16131   6.380   1.859  10.034 -1.5470 -0.7568  0.3514
  146SAPE   H7Y16132   6.475   1.721  10.001 -0.6348 -0.3116  3.0602
  146SAPE   C3816133   6.562   1.898   9.907  0.3618  0.6396  0.7249
  146SAPE   H8X16134   6.658   1.842   9.900  0.8802  1.5582  0.3376
  146SAPE   H8Y16135   6.590   2.003   9.932  3.4251 -0.2767  1.5559
  146SAPE   C3916136   6.477   1.904   9.771  0.3335  0.1931  0.0503
  146SAPE   H9X16137   6.396   1.979   9.779  2.8030  2.9472  1.5079
  146SAPE   H9Y16138   6.425   1.807   9.757  0.5523 -0.2091  1.8425
  146SAPE  C31016139   6.564   1.943   9.650  0.2911  0.4436 -0.2748
  146SAPE  H10X16140   6.635   1.858   9.637 -0.8389 -0.7214  0.8446
  146SAPE  H10Y16141   6.628   2.030   9.674  2.0065 -0.7546 -0.3463
  146SAPE  C31116142   6.494   1.946   9.514 -0.0156 -0.3737 -0.0668
  146SAPE  H11X16143   6.417   2.026   9.508  0.6602  0.2320 -0.9104
  146SAPE  H11Y16144   6.435   1.854   9.490 -1.3432  0.6645 -0.9525
  146SAPE  C31216145   6.590   1.973   9.397  0.2637 -0.1093  0.2877
  146SAPE  H12X16146   6.666   1.893   9.401  1.5049  0.9806 -0.5303
  146SAPE  H12Y16147   6.628   2.073   9.428 -2.9610  1.5350 -0.6486
  146SAPE  C31316148   6.522   1.993   9.263  0.0450  0.7027  0.5207
  146SAPE  H13X16149   6.443   2.069   9.281  0.1990  0.4197  2.7104
  146SAPE  H13Y16150   6.463   1.905   9.228 -0.2636  1.8545 -2.0874
  146SAPE  C31416151   6.627   2.043   9.166 -0.4511  0.2022  0.0738
  146SAPE  H14X16152   6.731   2.007   9.183  0.1247  1.9734  0.4476
  146SAPE  H14Y16153   6.631   2.150   9.194 -0.9791  0.1464  0.3790
  146SAPE  C31516154   6.578   2.032   9.024 -0.4268 -0.5261  0.6894
  146SAPE  H15X16155   6.598   1.929   8.986  0.8672  0.6065 -1.9371
  146SAPE  H15Y16156   6.629   2.086   8.942 -2.0011  0.0295  0.0273
  146SAPE  C31616157   6.425   2.059   8.994  0.3425 -0.5491 -0.3225
  146SAPE  H16X16158   6.364   1.984   9.049  2.8725 -1.8934  0.8400
  146SAPE  H16Y16159   6.412   2.051   8.884  0.9921 -0.1527 -0.4324
  146SAPE  C31716160   6.377   2.200   9.035  0.3069  0.3847 -0.1277
  146SAPE  H17X16161   6.447   2.275   8.993  1.1892 -0.8398 -0.9182
  146SAPE  H17Y16162   6.381   2.210   9.146  0.5457 -1.1610  0.0323
  146SAPE  C31816163   6.227   2.221   9.011  0.3425 -0.5190  0.0541
  146SAPE  H18X16164   6.173   2.137   9.059 -0.5135 -1.0225 -1.6825
  146SAPE  H18Y16165   6.194   2.207   8.906 -0.7857  0.6384  0.2390
  146SAPE  H18Z16166   6.202   2.326   9.035  0.5773 -0.5038  0.2405
  147SAPE     N16167   3.411   4.639  10.833 -0.5243  0.5980 -0.8831
  147SAPE   HN116168   3.310   4.628  10.857 -0.1167 -0.7599  0.3342
  147SAPE   HN216169   3.418   4.720  10.767  1.5271  1.5579  0.4310
  147SAPE   HN316170   3.441   4.546  10.799  0.9059  0.0225  1.6739
  147SAPE   C1216171   3.485   4.677  10.955 -0.6543  0.5646 -0.4698
  147SAPE  H12A16172   3.487   4.595  11.030 -1.0426  0.5241 -0.5042
  147SAPE  H12B16173   3.434   4.771  10.989 -0.9242  0.9493 -1.8932
  147SAPE   C1116174   3.635   4.713  10.931  0.1686 -0.5761 -0.0750
  147SAPE  H11A16175   3.674   4.627  10.872  0.4416 -0.6384  0.1934
  147SAPE  H11B16176   3.687   4.719  11.029 -1.0871  1.0214  0.5536
  147SAPE     P16177   3.671   4.973  10.954 -0.0373  0.0171 -0.0973
  147SAPE   O1316178   3.574   4.980  11.069  0.0253 -0.4818 -0.0001
  147SAPE   O1416179   3.813   4.979  10.983 -0.3964 -0.0357 -0.7990
  147SAPE   O1216180   3.633   4.844  10.867 -0.3106  0.3352  0.3546
  147SAPE   O1116181   3.640   5.092  10.855  0.1649  0.7551 -0.3784
  147SAPE    C116182   3.611   5.064  10.712 -0.2217  0.1715 -0.7145
  147SAPE    HA16183   3.657   5.150  10.659 -0.8514  1.0171  0.0841
  147SAPE    HB16184   3.665   4.980  10.663  0.0344  1.3027 -2.4512
  147SAPE    C216185   3.464   5.043  10.691  0.4725 -0.0066  0.1729
  147SAPE    HS16186   3.429   4.970  10.767  0.2702  0.3254  0.4014
  147SAPE   O2116187   3.441   4.997  10.561 -0.2961 -0.8308  0.3868
  147SAPE   C2116188   3.464   4.865  10.532 -0.0016  0.0866  1.7250
  147SAPE   O2216189   3.492   4.778  10.614 -0.1392 -0.4434  0.8126
  147SAPE   C2216190   3.440   4.854  10.385 -0.5260 -0.2267 -0.1503
  147SAPE   H2R16191   3.449   4.747  10.357 -0.5581 -0.4819  0.7653
  147SAPE   H2S16192   3.342   4.897  10.355 -0.2389 -0.5272 -1.5953
  147SAPE    C316193   3.397   5.186  10.713 -0.4505  1.0948 -0.0712
  147SAPE    HX16194   3.423   5.222  10.815  3.7590  1.6533 -1.1553
  147SAPE    HY16195   3.288   5.165  10.716 -0.1895 -0.6557 -1.2260
  147SAPE   O3116196   3.431   5.287  10.620  0.2735  0.4371  0.2185
  147SAPE   C3116197   3.372   5.287  10.496 -0.2002  0.0485  0.1015
  147SAPE   O3216198   3.262   5.242  10.476 -0.9069  0.2649  0.4187
  147SAPE   C3216199   3.465   5.349  10.394  0.4675 -0.2194  1.2306
  147SAPE   H2X16200   3.570   5.315  10.407  0.4922 -1.4906 -1.5828
  147SAPE   H2Y16201   3.473   5.459  10.404 -1.2919  0.1350 -0.6379
  147SAPE   C2316202   3.548   4.930  10.302  0.3897  0.1125 -0.8612
  147SAPE   H3R16203   3.652   4.902  10.328 -0.1396 -1.6467 -0.5462
  147SAPE   H3S16204   3.534   5.039  10.323  1.2805  0.1737 -0.5834
  147SAPE   C2416205   3.531   4.909  10.150  0.1948 -0.8589 -0.0476
  147SAPE   H4R16206   3.611   4.980  10.119 -0.6002 -0.0262 -0.2339
  147SAPE   H4S16207   3.437   4.958  10.116  0.0213  0.2361  1.8666
  147SAPE   C2516208   3.552   4.771  10.101 -0.3922 -0.0086 -0.0395
  147SAPE   H5R16209   3.570   4.699  10.182  0.1349 -1.2027 -1.1721
  147SAPE   C2616210   3.518   4.728   9.974 -0.2123  0.1288  0.3673
  147SAPE   H6R16211   3.543   4.621   9.963  2.5413  0.4913  2.1611
  147SAPE   C2716212   3.497   4.822   9.854  0.3523 -0.0839 -0.2257
  147SAPE   H7R16213   3.562   4.797   9.768 -0.2430 -2.0359 -0.1401
  147SAPE   H7S16214   3.524   4.929   9.868 -3.2368  0.6534  3.0370
  147SAPE   C2816215   3.348   4.804   9.817 -0.7277 -0.1341 -0.4976
  147SAPE   H8R16216   3.277   4.837   9.894  0.5851 -0.6714  1.0073
  147SAPE   C2916217   3.308   4.749   9.702  0.4605  0.2731 -0.0097
  147SAPE   H9R16218   3.198   4.743   9.695  0.4093  1.1529 -0.0408
  147SAPE  C21016219   3.383   4.693   9.583  0.4356 -0.2120 -0.3562
  147SAPE  H10R16220   3.355   4.588   9.560 -1.6886  0.1618  0.3081
  147SAPE  H10S16221   3.491   4.698   9.607  0.4276 -1.4384 -0.0005
  147SAPE  C21116222   3.352   4.789   9.471 -0.2536  0.4462 -0.3237
  147SAPE  H11R16223   3.303   4.884   9.498 -0.3711  0.5467 -0.8916
  147SAPE  C21216224   3.380   4.762   9.344 -0.0349 -0.3862 -0.1768
  147SAPE  H12R16225   3.371   4.835   9.262  1.7482 -0.1864 -0.2336
  147SAPE  C21316226   3.448   4.638   9.292  0.1784 -0.3296  0.3602
  147SAPE  H13R16227   3.503   4.582   9.370 -0.3536 -0.7362  0.4555
  147SAPE  H13S16228   3.536   4.660   9.229  0.3293 -1.8808 -0.0179
  147SAPE  C21416229   3.354   4.563   9.209 -1.0956  0.3945 -0.2263
  147SAPE  H14R16230   3.303   4.485   9.269  1.0672 -1.1200 -0.2566
  147SAPE  C21516231   3.329   4.573   9.075  0.5861  0.6974 -0.0267
  147SAPE  H15R16232   3.250   4.511   9.030  0.7867  0.6026 -0.2521
  147SAPE  C21616233   3.386   4.667   8.976 -0.5068 -0.2057 -0.0445
  147SAPE  H16R16234   3.459   4.734   9.027  1.7711 -0.6770 -2.5145
  147SAPE  H16S16235   3.307   4.734   8.935  1.2039  1.2095 -1.1897
  147SAPE  C21716236   3.460   4.606   8.860  0.4388  0.2185  0.3091
  147SAPE  H17R16237   3.555   4.557   8.890  0.2396 -0.2770  0.1489
  147SAPE  H17S16238   3.499   4.694   8.805 -0.5830  0.3721 -0.2018
  147SAPE  C21816239   3.379   4.504   8.767 -0.8407 -0.3577  0.1557
  147SAPE  H18R16240   3.309   4.573   8.716  2.7113  2.9870 -0.6792
  147SAPE  H18S16241   3.321   4.430   8.827  0.4420 -1.1613  0.4498
  147SAPE  C21916242   3.457   4.437   8.660  0.3792  0.3777 -0.5869
  147SAPE  H19R16243   3.532   4.371   8.708 -2.9432 -1.3492  2.7945
  147SAPE  H19S16244   3.517   4.512   8.606 -1.1931  0.5708 -2.1574
  147SAPE  C22016245   3.367   4.354   8.567 -0.7409  0.3701 -0.5452
  147SAPE  H20R16246   3.314   4.287   8.638 -0.9939  2.3981  1.2580
  147SAPE  H20S16247   3.431   4.292   8.500  1.5163  3.5565 -1.5497
  147SAPE  H20T16248   3.290   4.412   8.513 -2.4160 -1.6788 -0.5079
  147SAPE   C3316249   3.425   5.320  10.243  0.2563  0.5647 -0.1069
  147SAPE   H3X16250   3.332   5.369  10.209 -1.7654 -1.6775  1.8107
  147SAPE   H3Y16251   3.406   5.211  10.234 -0.1777  0.6579 -0.3402
  147SAPE   C3416252   3.524   5.371  10.136 -0.4179 -0.2270  0.6463
  147SAPE   H4X16253   3.625   5.331  10.158  0.0840  0.2415 -0.6890
  147SAPE   H4Y16254   3.519   5.482  10.134  0.8801 -0.1470 -1.4635
  147SAPE   C3516255   3.482   5.317   9.995  0.3221 -0.3615  0.1821
  147SAPE   H5X16256   3.407   5.388   9.955 -0.9778 -1.1273  1.1749
  147SAPE   H5Y16257   3.444   5.212   9.989 -0.6059  0.0311 -2.3685
  147SAPE   C3616258   3.604   5.323   9.902  0.0791  0.2638 -0.1820
  147SAPE   H6X16259   3.699   5.288   9.948 -0.3994 -1.3508 -0.3734
  147SAPE   H6Y16260   3.609   5.427   9.863  1.6162 -0.0975 -1.0170
  147SAPE   C3716261   3.600   5.214   9.794  0.0148  0.2001  0.1691
  147SAPE   H7X16262   3.532   5.133   9.826 -0.5877  0.9919  0.9500
  147SAPE   H7Y16263   3.704   5.176   9.787 -0.4606 -1.0564 -0.2116
  147SAPE   C3816264   3.567   5.271   9.658 -0.3304  0.5059  0.6580
  147SAPE   H8X16265   3.592   5.379   9.642 -1.1413  0.4655 -1.0858
  147SAPE   H8Y16266   3.456   5.264   9.656 -0.6914  4.0438  1.5940
  147SAPE   C3916267   3.637   5.203   9.534 -0.4445 -0.0265 -0.4934
  147SAPE   H9X16268   3.626   5.092   9.536  2.5056 -0.4153 -0.5222
  147SAPE   H9Y16269   3.746   5.225   9.532 -0.3570 -0.2759  0.6750
  147SAPE  C31016270   3.588   5.263   9.403  0.7914  0.8310  0.3582
  147SAPE  H10X16271   3.574   5.371   9.420  0.1995  0.6148  1.3242
  147SAPE  H10Y16272   3.480   5.244   9.385  1.2215 -2.7076  0.7989
  147SAPE  C31116273   3.674   5.237   9.281  0.2633 -0.1396 -0.5130
  147SAPE  H11X16274   3.676   5.128   9.259  2.9164  0.2008 -2.4939
  147SAPE  H11Y16275   3.776   5.279   9.293 -0.6192  1.9904 -0.0942
  147SAPE  C31216276   3.609   5.303   9.157  0.1106 -0.6893 -0.0248
  147SAPE  H12X16277   3.608   5.413   9.175 -3.0997 -0.3007 -1.8515
  147SAPE  H12Y16278   3.501   5.277   9.154  0.0271 -0.6220  1.5876
  147SAPE  C31316279   3.669   5.271   9.018 -0.5999 -0.1674  0.2789
  147SAPE  H13X16280   3.655   5.162   9.005 -0.9786 -0.2152  1.0472
  147SAPE  H13Y16281   3.780   5.277   9.019 -0.6331  0.3613  1.3144
  147SAPE  C31416282   3.608   5.339   8.897  0.0902  0.3205  0.2481
  147SAPE  H14X16283   3.665   5.433   8.884 -0.6779  0.9126  1.0313
  147SAPE  H14Y16284   3.506   5.375   8.924  0.3977  0.7272  0.8976
  147SAPE  C31516285   3.603   5.263   8.765 -0.0384  0.4238 -0.5212
  147SAPE  H15X16286   3.695   5.201   8.766  0.7623  1.5863  0.2029
  147SAPE  H15Y16287   3.624   5.331   8.679  1.8956  0.0620 -0.3840
  147SAPE  C31616288   3.471   5.176   8.760 -0.6638  0.1256  0.1987
  147SAPE  H16X16289   3.440   5.143   8.861 -0.2722 -0.7572  0.0417
  147SAPE  H16Y16290   3.486   5.085   8.698 -2.1024 -0.8523  1.2271
  147SAPE  C31716291   3.356   5.262   8.700  0.7037  0.0091 -0.2811
  147SAPE  H17X16292   3.407   5.319   8.620  2.9326 -2.2684 -0.5913
  147SAPE  H17Y16293   3.321   5.339   8.772 -2.1759 -0.3195 -1.1702
  147SAPE  C31816294   3.232   5.193   8.635  0.1647 -0.2340 -0.1494
  147SAPE  H18X16295   3.156   5.270   8.612  0.8999  0.6904  0.4543
  147SAPE  H18Y16296   3.188   5.127   8.713  0.2337 -0.6102 -0.4245
  147SAPE  H18Z16297   3.260   5.137   8.543  1.2837 -1.3408  0.8176
  148SAPE     N16298   3.742   0.010  11.075  0.8094 -0.2422  0.0383
  148SAPE   HN116299   3.748   0.111  11.053 -1.4886 -0.3201 -1.3850
  148SAPE   HN216300   3.696  -0.004  11.167  0.7111  1.5492  0.2914
  148SAPE   HN316301   3.835  -0.036  11.073  1.3834  0.8962  0.1768
  148SAPE   C1216302   3.654  -0.068  10.976  0.0270  0.1186 -0.3306
  148SAPE  H12A16303   3.549  -0.039  10.994  0.6379  2.0209  0.4073
  148SAPE  H12B16304   3.672  -0.178  10.983  1.1891  0.1225 -2.4131
  148SAPE   C1116305   3.698  -0.023  10.828 -0.0472  0.0206  0.0116
  148SAPE  H11A16306   3.607  -0.029  10.765 -1.4968  1.2539  1.8658
  148SAPE  H11B16307   3.763  -0.103  10.789  0.4759  0.8033 -0.7605
  148SAPE     P16308   3.719   0.230  10.749 -0.8952  0.2266 -0.1954
  148SAPE   O1316309   3.644   0.313  10.851 -0.1028 -0.2741  0.2947
  148SAPE   O1416310   3.830   0.304  10.678 -0.3437 -0.3114 -0.1040
  148SAPE   O1216311   3.768   0.100  10.823 -0.4434 -0.2292 -0.1387
  148SAPE   O1116312   3.618   0.161  10.646  0.5568  0.3405  0.3058
  148SAPE    C116313   3.471   0.185  10.637 -0.1952 -0.2308 -0.1315
  148SAPE    HA16314   3.423   0.085  10.623  1.5589 -0.8985 -1.7506
  148SAPE    HB16315   3.432   0.242  10.724 -1.0678  0.1808 -0.7793
  148SAPE    C216316   3.439   0.276  10.518 -0.2587  0.1542  0.2065
  148SAPE    HS16317   3.334   0.268  10.484 -0.1022  2.3200 -0.9648
  148SAPE   O2116318   3.532   0.253  10.408  0.3477 -0.1520 -0.1771
  148SAPE   C2116319   3.540   0.141  10.345  0.3754 -0.0361  0.1601
  148SAPE   O2216320   3.474   0.043  10.373  0.3398  0.2019 -0.5265
  148SAPE   C2216321   3.638   0.156  10.229 -0.4811  0.5132  0.6362
  148SAPE   H2R16322   3.575   0.156  10.137 -1.6427  1.8044  1.3925
  148SAPE   H2S16323   3.702   0.247  10.230  0.4239  0.0198 -2.3999
  148SAPE    C316324   3.455   0.427  10.559  0.1569  0.5111 -0.3019
  148SAPE    HX16325   3.561   0.458  10.575 -0.3952  2.4826 -0.3010
  148SAPE    HY16326   3.396   0.444  10.651  0.4762  0.1605 -0.0312
  148SAPE   O3116327   3.402   0.514  10.446 -0.1907  0.0708  0.0541
  148SAPE   C3116328   3.304   0.592  10.474  0.1926 -0.4888 -0.7597
  148SAPE   O3216329   3.263   0.609  10.590  0.5332  0.1885  0.2859
  148SAPE   C3216330   3.252   0.670  10.358 -0.1318 -0.3584  1.4389
  148SAPE   H2X16331   3.326   0.737  10.309 -0.4636  0.8699  2.5626
  148SAPE   H2Y16332   3.181   0.745  10.397  1.2189  1.5492  0.4201
  148SAPE   C2316333   3.745   0.041  10.220  0.3710  0.3314 -0.1308
  148SAPE   H3R16334   3.696  -0.056  10.242 -0.8292 -0.1114 -4.0703
  148SAPE   H3S16335   3.822   0.042  10.300 -0.6158 -0.8958  0.8685
  148SAPE   C2416336   3.807   0.031  10.078  0.1742  0.1218  0.1148
  148SAPE   H4R16337   3.898  -0.028  10.099  0.9048  0.9412 -0.6829
  148SAPE   H4S16338   3.838   0.131  10.041 -2.0850  1.0763  0.6103
  148SAPE   C2516339   3.720  -0.045   9.986  0.1011  0.2992  0.6010
  148SAPE   H5R16340   3.679  -0.136  10.031  1.3688 -0.3773  0.4284
  148SAPE   C2616341   3.693  -0.007   9.852  0.2757  0.5693 -0.0300
  148SAPE   H6R16342   3.629  -0.072   9.790  0.8655  0.7625 -0.8582
  148SAPE   C2716343   3.744   0.114   9.780  0.6290  0.0656  1.0261
  148SAPE   H7R16344   3.747   0.078   9.675  0.8481 -0.3664  1.1758
  148SAPE   H7S16345   3.852   0.134   9.798  0.7150  2.1215 -1.3387
  148SAPE   C2816346   3.657   0.234   9.791 -0.0733 -1.1563 -0.1130
  148SAPE   H8R16347   3.664   0.283   9.889 -2.7645 -0.9984  0.0598
  148SAPE   C2916348   3.567   0.270   9.704  0.6232  0.9736  0.3306
  148SAPE   H9R16349   3.509   0.363   9.712 -2.5788 -0.7034 -1.1684
  148SAPE  C21016350   3.524   0.198   9.571  0.6655  0.2776 -0.1165
  148SAPE  H10R16351   3.424   0.236   9.543  1.0963 -0.4411 -2.9541
  148SAPE  H10S16352   3.515   0.090   9.597 -0.3971  0.0547 -1.3276
  148SAPE  C21116353   3.620   0.213   9.456  0.6289  0.4843  0.6763
  148SAPE  H11R16354   3.722   0.190   9.491  0.3195  1.5347  2.4036
  148SAPE  C21216355   3.599   0.254   9.322 -0.4884  0.1893  0.0482
  148SAPE  H12R16356   3.686   0.257   9.254  0.2956 -0.5606  0.9756
  148SAPE  C21316357   3.469   0.296   9.268  0.2502  0.3575  0.6863
  148SAPE  H13R16358   3.381   0.261   9.325 -0.8739  2.5123  0.3639
  148SAPE  H13S16359   3.466   0.268   9.161  0.0407 -1.0591  1.0493
  148SAPE  C21416360   3.452   0.448   9.269 -0.0402  0.4411  1.1710
  148SAPE  H14R16361   3.408   0.502   9.354 -1.5253  3.2650 -1.2019
  148SAPE  C21516362   3.470   0.527   9.155  0.4281  0.1026 -0.1319
  148SAPE  H15R16363   3.457   0.635   9.175  1.1492  0.3412 -0.8719
  148SAPE  C21616364   3.505   0.491   9.011 -0.0441  0.1982 -0.5683
  148SAPE  H16R16365   3.420   0.528   8.951 -0.1773  0.4730 -0.2159
  148SAPE  H16S16366   3.515   0.381   9.004  0.4020  0.1967 -0.0103
  148SAPE  C21716367   3.639   0.546   8.970  0.2090  0.0225  0.2914
  148SAPE  H17R16368   3.719   0.501   9.033  0.9392 -0.9175 -1.2420
  148SAPE  H17S16369   3.651   0.655   8.989  1.7208 -0.1399  0.3916
  148SAPE  C21816370   3.665   0.514   8.822 -0.2186 -0.4761  0.0158
  148SAPE  H18R16371   3.625   0.414   8.793  0.5015 -0.4464 -1.1371
  148SAPE  H18S16372   3.774   0.514   8.798  0.0882 -0.3866  1.3591
  148SAPE  C21916373   3.606   0.631   8.736  0.2699  0.3528  0.3690
  148SAPE  H19R16374   3.642   0.727   8.778  1.1032  0.0486  0.3642
  148SAPE  H19S16375   3.496   0.621   8.750  0.2246  0.6224  0.2075
  148SAPE  C22016376   3.642   0.616   8.585  0.2890  0.6250 -0.3702
  148SAPE  H20R16377   3.592   0.533   8.532  0.9427 -0.5476  0.8017
  148SAPE  H20S16378   3.752   0.601   8.579  0.4870  1.7761 -0.0152
  148SAPE  H20T16379   3.618   0.713   8.535  0.2081  0.9528  0.2868
  148SAPE   C3316380   3.194   0.575  10.245  0.8390  0.4291  1.2294
  148SAPE   H3X16381   3.106   0.519  10.282 -0.5706  1.1623 -0.8152
  148SAPE   H3Y16382   3.274   0.508  10.207  0.1192  0.0116  0.3979
  148SAPE   C3416383   3.140   0.654  10.123  0.0587 -0.5604  0.8740
  148SAPE   H4X16384   3.217   0.726  10.087  0.3458  0.1867  2.8212
  148SAPE   H4Y16385   3.054   0.712  10.161  1.0295  2.0342 -0.6514
  148SAPE   C3516386   3.083   0.561  10.016  0.1851 -0.8006 -0.2279
  148SAPE   H5X16387   3.031   0.623   9.939 -0.1795 -2.2287 -1.1904
  148SAPE   H5Y16388   3.007   0.502  10.071  0.4281  1.7022  3.0779
  148SAPE   C3616389   3.177   0.477   9.932  0.5290  0.7569  0.1853
  148SAPE   H6X16390   3.117   0.399   9.879  0.4438 -0.5777  2.1214
  148SAPE   H6Y16391   3.250   0.421   9.994 -0.9321 -0.4667  0.8694
  148SAPE   C3716392   3.246   0.555   9.830  0.1369  0.3245 -0.0314
  148SAPE   H7X16393   3.325   0.496   9.780 -0.8940 -0.6948 -0.4901
  148SAPE   H7Y16394   3.288   0.651   9.867 -0.1176  0.5872 -0.4152
  148SAPE   C3816395   3.151   0.602   9.709 -0.2145  0.0244 -0.3976
  148SAPE   H8X16396   3.207   0.674   9.646 -1.8745  0.4310 -1.4899
  148SAPE   H8Y16397   3.060   0.654   9.747  0.3426 -0.2563  1.4572
  148SAPE   C3916398   3.103   0.485   9.617 -0.4754 -0.0776 -0.4491
  148SAPE   H9X16399   3.037   0.416   9.674  0.7468 -0.2456  0.8212
  148SAPE   H9Y16400   3.194   0.423   9.603  0.0703 -0.3427  3.1612
  148SAPE  C31016401   3.049   0.526   9.483 -0.1539 -0.1442  0.1265
  148SAPE  H10X16402   3.121   0.603   9.447  2.1129 -1.5283  1.4761
  148SAPE  H10Y16403   2.950   0.577   9.484  1.5679  3.7044 -1.5372
  148SAPE  C31116404   3.042   0.430   9.364 -0.4086  0.1171 -0.2023
  148SAPE  H11X16405   2.972   0.348   9.395 -2.5009  0.4110 -3.6240
  148SAPE  H11Y16406   3.147   0.395   9.351 -1.0927 -2.2485  0.1020
  148SAPE  C31216407   2.983   0.484   9.227 -0.2770 -0.3532  0.0844
  148SAPE  H12X16408   3.048   0.567   9.191 -1.9430  1.1909  0.5145
  148SAPE  H12Y16409   2.885   0.525   9.259 -0.5319  0.4942 -1.7081
  148SAPE  C31316410   2.968   0.374   9.118  0.9056 -0.5312  0.5648
  148SAPE  H13X16411   2.920   0.415   9.026 -0.6645 -2.6404  0.3692
  148SAPE  H13Y16412   2.900   0.295   9.156  1.5724 -1.1280  0.5336
  148SAPE  C31416413   3.098   0.305   9.079  0.0850  0.0241  0.6704
  148SAPE  H14X16414   3.132   0.244   9.166 -0.3585 -0.1333  0.7382
  148SAPE  H14Y16415   3.185   0.371   9.058 -0.0534 -0.6055 -2.3410
  148SAPE  C31516416   3.086   0.200   8.965 -0.1025  0.2950 -0.1096
  148SAPE  H15X16417   3.011   0.126   8.998  1.9106 -2.0380 -0.5003
  148SAPE  H15Y16418   3.172   0.133   8.943  1.4463  0.8989  3.4034
  148SAPE  C31616419   3.064   0.273   8.826 -0.1464  0.4894  0.1842
  148SAPE  H16X16420   2.976   0.340   8.826 -1.2058 -0.8561  0.0639
  148SAPE  H16Y16421   3.042   0.196   8.748 -0.5548 -0.9312  1.6491
  148SAPE  C31716422   3.179   0.356   8.783  0.3091 -0.2034  0.2486
  148SAPE  H17X16423   3.275   0.302   8.800 -0.4767 -0.9455  2.6237
  148SAPE  H17Y16424   3.193   0.449   8.841 -0.1371  0.7550 -1.1135
  148SAPE  C31816425   3.165   0.409   8.642  0.0257  0.4570  0.3417
  148SAPE  H18X16426   3.061   0.411   8.605  0.0042 -1.8625  0.1276
  148SAPE  H18Y16427   3.218   0.346   8.567  1.1319 -0.0537  1.5055
  148SAPE  H18Z16428   3.203   0.514   8.639 -1.6169  1.0574 -0.6031
  149SAPE     N16429   5.877   2.016  11.115 -0.4281  0.1835  0.2587
  149SAPE   HN116430   5.945   2.066  11.055 -0.3788  1.8258  1.6110
  149SAPE   HN216431   5.823   2.087  11.169  2.7141  2.8192  0.2689
  149SAPE   HN316432   5.929   1.950  11.177  0.7900  0.8005 -0.0631
  149SAPE   C1216433   5.781   1.933  11.037  0.3676 -0.5001  0.2816
  149SAPE  H12A16434   5.841   1.858  10.981 -0.1123 -0.1728 -0.6858
  149SAPE  H12B16435   5.733   2.000  10.962 -1.7052 -0.7118  1.3670
  149SAPE   C1116436   5.673   1.875  11.127  0.5375 -0.8047 -0.0431
  149SAPE  H11A16437   5.584   1.840  11.070 -1.7614 -0.1220  2.8628
  149SAPE  H11B16438   5.617   1.955  11.181  1.1522 -0.6086  0.3126
  149SAPE     P16439   5.718   1.625  11.154 -0.0746 -0.2180  0.1567
  149SAPE   O1316440   5.819   1.537  11.220  0.6038 -1.1091 -0.3266
  149SAPE   O1416441   5.582   1.577  11.156  0.6654  0.3961  0.9364
  149SAPE   O1216442   5.723   1.773  11.210  0.6407  0.2733 -0.4452
  149SAPE   O1116443   5.759   1.640  11.003 -0.1633  0.2625 -0.0733
  149SAPE    C116444   5.850   1.539  10.947  0.2664  0.1872 -0.2053
  149SAPE    HA16445   5.955   1.568  10.970  0.2039  0.0605  0.2468
  149SAPE    HB16446   5.825   1.436  10.980 -1.4598  1.2431  2.0426
  149SAPE    C216447   5.836   1.551  10.793  0.5666  0.7107  0.8006
  149SAPE    HS16448   5.817   1.658  10.766 -0.6729  0.5888  1.1166
  149SAPE   O2116449   5.720   1.471  10.757 -0.2569  0.2916 -0.1980
  149SAPE   C2116450   5.680   1.488  10.635 -0.0675 -0.3219  0.6485
  149SAPE   O2216451   5.708   1.575  10.559  0.1316  0.4758  0.4769
  149SAPE   C2216452   5.582   1.376  10.613  0.3206  1.1074  0.8062
  149SAPE   H2R16453   5.630   1.278  10.635 -1.3868 -0.0711 -0.4326
  149SAPE   H2S16454   5.499   1.387  10.687  0.6858 -1.3855  1.7044
  149SAPE    C316455   5.963   1.502  10.729 -0.9133 -0.3007 -0.5812
  149SAPE    HX16456   5.983   1.402  10.774  0.8850 -0.9327 -2.5891
  149SAPE    HY16457   6.041   1.576  10.757 -1.3966 -0.5351  1.6168
  149SAPE   O3116458   5.961   1.470  10.585  0.2171  0.2531 -0.0410
  149SAPE   C3116459   6.012   1.559  10.503 -0.6795 -0.3396  0.0536
  149SAPE   O3216460   6.050   1.669  10.529 -0.3397 -0.3015  0.0205
  149SAPE   C3216461   6.021   1.497  10.366  0.7230 -0.6051 -0.2730
  149SAPE   H2X16462   5.918   1.464  10.340  1.4596 -2.0653 -1.5028
  149SAPE   H2Y16463   6.087   1.408  10.378  2.3760  0.2677 -2.2602
  149SAPE   C2316464   5.535   1.371  10.468  0.0159 -0.5695  0.2484
  149SAPE   H3R16465   5.628   1.375  10.407  0.8875  1.4377  1.5896
  149SAPE   H3S16466   5.482   1.465  10.441 -1.2796 -1.4818 -0.4946
  149SAPE   C2416467   5.448   1.244  10.432  0.7436  0.2019  0.0584
  149SAPE   H4R16468   5.499   1.153  10.470  1.4802  1.0586  1.1564
  149SAPE   H4S16469   5.434   1.232  10.322 -1.7007 -0.9922  0.4236
  149SAPE   C2516470   5.307   1.251  10.482  0.9511 -0.2039 -0.1190
  149SAPE   H5R16471   5.298   1.201  10.579  3.8124  3.0350  2.0763
  149SAPE   C2616472   5.196   1.308  10.423 -0.1561  0.0996 -0.7157
  149SAPE   H6R16473   5.105   1.315  10.486 -1.6644  0.1548 -2.7903
  149SAPE   C2716474   5.201   1.382  10.286  0.1799  0.5235 -0.7887
  149SAPE   H7R16475   5.297   1.430  10.256  0.2350  2.6711  2.3900
  149SAPE   H7S16476   5.121   1.458  10.284  0.7982  1.1875 -0.5360
  149SAPE   C2816477   5.158   1.278  10.184 -0.0101 -0.5001 -0.7575
  149SAPE   H8R16478   5.102   1.192  10.224  1.4974 -2.1142 -1.9677
  149SAPE   C2916479   5.183   1.299  10.054  0.6440 -0.2574 -0.8481
  149SAPE   H9R16480   5.159   1.216   9.985 -2.2092  1.1199 -1.6731
  149SAPE  C21016481   5.255   1.415   9.985 -0.4053  0.1779 -0.0564
  149SAPE  H10R16482   5.357   1.380   9.957 -0.3313 -1.2985  1.8114
  149SAPE  H10S16483   5.272   1.490  10.065  1.4965 -2.1846  1.9017
  149SAPE  C21116484   5.183   1.478   9.876  0.3361 -0.5058 -0.4991
  149SAPE  H11R16485   5.145   1.575   9.910 -0.5410 -0.6128 -1.1614
  149SAPE  C21216486   5.158   1.434   9.749 -0.0556  0.4080 -0.0548
  149SAPE  H12R16487   5.115   1.505   9.678 -1.1253 -1.9391 -1.8702
  149SAPE  C21316488   5.197   1.306   9.681 -0.1227 -0.8268 -0.1779
  149SAPE  H13R16489   5.105   1.262   9.635 -1.2328 -0.8061  1.8919
  149SAPE  H13S16490   5.225   1.229   9.757  1.0530  0.1071  0.3554
  149SAPE  C21416491   5.301   1.323   9.575 -0.4453 -0.1355 -0.3837
  149SAPE  H14R16492   5.400   1.312   9.621 -1.7758 -2.1414  2.2890
  149SAPE  C21516493   5.295   1.332   9.447  0.2428 -0.0035 -0.2555
  149SAPE  H15R16494   5.385   1.350   9.387  1.6662 -2.4089  0.9431
  149SAPE  C21616495   5.165   1.336   9.372 -0.4092 -0.3236  0.6480
  149SAPE  H16R16496   5.079   1.294   9.428  0.8891  0.0574  3.0433
  149SAPE  H16S16497   5.171   1.268   9.285  3.2331 -0.5319  0.9120
  149SAPE  C21716498   5.122   1.473   9.322 -0.0092 -0.7199 -0.6305
  149SAPE  H17R16499   5.212   1.535   9.299  0.0213 -1.0868 -1.5549
  149SAPE  H17S16500   5.084   1.535   9.406  2.2856  1.3455 -1.0028
  149SAPE  C21816501   5.030   1.463   9.198 -0.0271 -0.3256  0.0010
  149SAPE  H18R16502   4.972   1.558   9.184 -1.1601 -0.8325  1.0002
  149SAPE  H18S16503   4.955   1.383   9.215 -2.2214  1.5092 -0.4456
  149SAPE  C21916504   5.115   1.440   9.067  0.1003 -0.5430  0.3550
  149SAPE  H19R16505   5.159   1.338   9.059 -1.5894 -1.2539 -0.3112
  149SAPE  H19S16506   5.201   1.509   9.062 -0.7485  0.6417  1.6075
  149SAPE  C22016507   5.047   1.449   8.934  0.5870 -0.6597 -0.1962
  149SAPE  H20R16508   5.104   1.424   8.842  0.0938  0.7032 -0.8909
  149SAPE  H20S16509   5.005   1.550   8.919  1.3015 -0.3585 -0.1955
  149SAPE  H20T16510   4.952   1.391   8.936 -1.2993  2.2573  1.2139
  149SAPE   C3316511   6.085   1.588  10.263  0.2728  0.4225 -0.8020
  149SAPE   H3X16512   6.181   1.616  10.311  0.3649 -0.9982 -0.1016
  149SAPE   H3Y16513   6.023   1.678  10.244 -1.2062 -0.6097 -1.0788
  149SAPE   C3416514   6.107   1.508  10.140 -0.6965  0.2399 -0.4019
  149SAPE   H4X16515   6.006   1.485  10.099 -0.8954 -0.5538  0.4859
  149SAPE   H4Y16516   6.153   1.408  10.154 -1.8664 -0.4999 -1.5984
  149SAPE   C3516517   6.190   1.570  10.021 -0.1900 -0.4309  0.3139
  149SAPE   H5X16518   6.301   1.569  10.031 -0.1826  0.7573  0.5549
  149SAPE   H5Y16519   6.156   1.676  10.016 -0.2792 -0.3931  1.4448
  149SAPE   C3616520   6.148   1.522   9.884  0.2613 -0.3611 -0.4068
  149SAPE   H6X16521   6.038   1.504   9.884  0.4001 -1.3944 -1.4083
  149SAPE   H6Y16522   6.193   1.422   9.868  1.3337 -0.0215  0.3857
  149SAPE   C3716523   6.193   1.608   9.769 -0.3475  0.5371  0.7096
  149SAPE   H7X16524   6.304   1.612   9.778 -0.1556  0.1509 -1.1207
  149SAPE   H7Y16525   6.137   1.704   9.766 -0.3131  0.6547  2.5685
  149SAPE   C3816526   6.163   1.558   9.627 -0.2667 -0.0493  0.3819
  149SAPE   H8X16527   6.058   1.525   9.615  0.7588 -4.3214  1.4809
  149SAPE   H8Y16528   6.231   1.473   9.605 -0.7481 -0.1290 -0.8826
  149SAPE   C3916529   6.181   1.674   9.526 -0.1480  0.5326 -0.2118
  149SAPE   H9X16530   6.278   1.718   9.558  1.0730 -1.8824 -0.4099
  149SAPE   H9Y16531   6.094   1.741   9.544 -0.4682  1.0150 -3.0557
  149SAPE  C31016532   6.177   1.635   9.382  0.0022  0.2310  0.4118
  149SAPE  H10X16533   6.086   1.579   9.354 -0.4468  1.4296 -0.6415
  149SAPE  H10Y16534   6.262   1.566   9.364  0.5472  1.2956 -1.3533
  149SAPE  C31116535   6.180   1.754   9.289 -0.0567 -0.3995 -0.3516
  149SAPE  H11X16536   6.273   1.809   9.317 -0.0479 -0.9514  0.7569
  149SAPE  H11Y16537   6.094   1.821   9.309  2.4051  2.4532  1.6275
  149SAPE  C31216538   6.185   1.721   9.137 -0.4942 -0.2048 -0.0261
  149SAPE  H12X16539   6.196   1.819   9.087 -0.2052 -0.1726  0.0985
  149SAPE  H12Y16540   6.079   1.694   9.116 -0.0796 -0.3249 -2.1789
  149SAPE  C31316541   6.305   1.625   9.106 -0.1520  0.5327 -0.8911
  149SAPE  H13X16542   6.273   1.519   9.098  1.3100 -0.0946  0.7557
  149SAPE  H13Y16543   6.397   1.629   9.169  0.4557 -2.6145 -1.3964
  149SAPE  C31416544   6.375   1.652   8.967 -0.1610  0.1018 -0.2593
  149SAPE  H14X16545   6.460   1.583   8.952  1.1902  1.8365 -0.8728
  149SAPE  H14Y16546   6.403   1.759   8.953  3.1802 -0.9322 -2.6599
  149SAPE  C31516547   6.279   1.615   8.849 -0.3313 -0.2977 -0.3407
  149SAPE  H15X16548   6.344   1.634   8.761 -1.9154  1.6768 -1.1654
  149SAPE  H15Y16549   6.201   1.694   8.856  0.4516  0.8454 -3.1664
  149SAPE  C31616550   6.213   1.476   8.845 -0.2033 -0.3773  0.3192
  149SAPE  H16X16551   6.131   1.469   8.920  1.4789  0.1362  2.3013
  149SAPE  H16Y16552   6.290   1.400   8.870  1.4405  1.4542  1.0299
  149SAPE  C31716553   6.143   1.449   8.713 -0.3263  0.4349  0.7590
  149SAPE  H17X16554   6.072   1.528   8.682  0.0582  0.0314 -1.2358
  149SAPE  H17Y16555   6.091   1.351   8.723  0.8726 -0.3081 -0.0499
  149SAPE  C31816556   6.245   1.415   8.598 -0.2147 -0.1550 -0.5520
  149SAPE  H18X16557   6.287   1.507   8.551  0.1354 -0.2166 -0.3683
  149SAPE  H18Y16558   6.197   1.352   8.520 -0.1165 -2.0517  0.8434
  149SAPE  H18Z16559   6.324   1.352   8.645 -0.5187  0.0315  0.2309
  150SAPE     N16560   0.761   1.059  11.014  0.5113  0.0716 -0.2595
  150SAPE   HN116561   0.715   1.031  11.103 -5.4626  1.3603 -2.4379
  150SAPE   HN216562   0.863   1.052  11.034  0.6734 -1.8514 -1.5620
  150SAPE   HN316563   0.736   1.159  10.999  0.9909  1.0071  3.9175
  150SAPE   C1216564   0.729   0.962  10.909  0.0533 -0.1744 -0.7162
  150SAPE  H12A16565   0.789   0.984  10.817  1.2524 -0.8393 -0.1109
  150SAPE  H12B16566   0.620   0.972  10.892 -0.2617 -1.8441  0.1512
  150SAPE   C1116567   0.770   0.823  10.951  0.1298  0.1500  0.1034
  150SAPE  H11A16568   0.754   0.756  10.864  0.6879  0.2581 -0.0896
  150SAPE  H11B16569   0.704   0.793  11.035 -0.4675 -0.7712 -0.6766
  150SAPE     P16570   1.002   0.709  10.948 -0.1777  0.1149 -0.0350
  150SAPE   O1316571   1.142   0.744  10.977 -0.2164  0.2045 -0.0308
  150SAPE   O1416572   0.949   0.601  11.027  0.3059 -0.0682  0.0294
  150SAPE   O1216573   0.908   0.833  10.981  0.0018 -0.2331  0.4982
  150SAPE   O1116574   0.989   0.689  10.798 -0.3494  0.3292 -0.3379
  150SAPE    C116575   1.089   0.700  10.703  0.0400  0.4233  0.0237
  150SAPE    HA16576   1.161   0.779  10.732 -2.6002  2.3265  1.8846
  150SAPE    HB16577   1.143   0.603  10.707  1.0208  0.9929  1.3195
  150SAPE    C216578   1.024   0.739  10.568  0.2085  0.5574  0.7507
  150SAPE    HS16579   0.927   0.687  10.551 -1.2290  2.8777  1.3499
  150SAPE   O2116580   1.115   0.713  10.459  0.3350 -0.6619 -0.0794
  150SAPE   C2116581   1.098   0.593  10.402 -0.0917  0.5251 -0.3664
  150SAPE   O2216582   1.034   0.500  10.451 -0.2480 -0.1890  0.4491
  150SAPE   C2216583   1.185   0.582  10.274 -0.2539  0.5479  0.2004
  150SAPE   H2R16584   1.289   0.594  10.312 -0.7303  1.3519  1.2925
  150SAPE   H2S16585   1.184   0.484  10.222 -0.5214  1.1661 -0.9815
  150SAPE    C316586   0.990   0.890  10.569 -0.0958 -0.3110  0.2604
  150SAPE    HX16587   1.086   0.940  10.596  0.4793 -0.7385 -0.9466
  150SAPE    HY16588   0.929   0.890  10.662  0.9407  0.3006  0.9651
  150SAPE   O3116589   0.925   0.953  10.457  0.2909  0.5532  0.3012
  150SAPE   C3116590   1.004   1.021  10.365  0.4655 -0.1247 -0.1176
  150SAPE   O3216591   1.125   1.042  10.379  0.3788  1.1148  0.0420
  150SAPE   C3216592   0.914   1.095  10.254  0.0314  0.2675 -0.7763
  150SAPE   H2X16593   0.834   1.153  10.304 -0.8449 -0.6868 -1.0482
  150SAPE   H2Y16594   0.870   1.014  10.191  1.1687  0.5853 -2.0192
  150SAPE   C2316595   1.160   0.698  10.174 -0.2711 -0.1773 -0.2411
  150SAPE   H3R16596   1.241   0.683  10.100  0.6688 -0.0634  0.7500
  150SAPE   H3S16597   1.173   0.797  10.221  3.6830  0.1282 -1.6298
  150SAPE   C2416598   1.021   0.677  10.104  0.1378  0.2590 -0.2195
  150SAPE   H4R16599   0.999   0.766  10.041 -1.4437 -0.2865 -0.4811
  150SAPE   H4S16600   0.945   0.664  10.184  1.0985 -1.2093  0.5023
  150SAPE   C2516601   1.018   0.563   9.999 -0.6262 -0.6369 -0.5914
  150SAPE   H5R16602   0.998   0.463  10.040  0.4105 -0.1147  1.2818
  150SAPE   C2616603   1.044   0.557   9.862 -0.9887  0.1017 -0.3614
  150SAPE   H6R16604   1.024   0.462   9.810 -1.3787  0.3661 -0.7034
  150SAPE   C2716605   1.092   0.672   9.773  0.6734  0.8652  0.2028
  150SAPE   H7R16606   1.187   0.643   9.723 -0.9888 -0.2434 -2.5586
  150SAPE   H7S16607   1.118   0.762   9.833 -2.8561  1.3904  1.2001
  150SAPE   C2816608   0.987   0.712   9.678  0.0190  0.1732  0.0036
  150SAPE   H8R16609   0.909   0.779   9.716 -1.1143 -2.3287  2.4335
  150SAPE   C2916610   0.984   0.661   9.547  0.1957  0.9213 -0.5374
  150SAPE   H9R16611   0.888   0.675   9.494 -1.8405 -0.2298  2.5751
  150SAPE  C21016612   1.076   0.568   9.470  0.7945 -0.8475  0.2617
  150SAPE  H10R16613   1.152   0.527   9.539 -1.5311 -2.8444  1.8115
  150SAPE  H10S16614   1.126   0.634   9.395  2.1398 -0.8259  1.1462
  150SAPE  C21116615   1.007   0.450   9.408  0.0542  0.1724  0.2297
  150SAPE  H11R16616   1.051   0.355   9.441 -0.8497 -0.3985 -0.1542
  150SAPE  C21216617   0.942   0.445   9.294 -0.0396  0.2553  0.2140
  150SAPE  H12R16618   0.909   0.346   9.261  1.0482 -0.0820  0.1079
  150SAPE  C21316619   0.901   0.554   9.199  0.0150 -0.2223 -0.5140
  150SAPE  H13R16620   0.889   0.653   9.248 -1.0262  0.8094 -2.7339
  150SAPE  H13S16621   0.793   0.539   9.176  0.1169 -1.2961 -0.3391
  150SAPE  C21416622   0.987   0.567   9.082  0.3090  0.0138 -0.2324
  150SAPE  H14R16623   1.091   0.573   9.117  0.0874 -0.9330  0.6214
  150SAPE  C21516624   0.954   0.570   8.958  0.1296  0.2811  0.6308
  150SAPE  H15R16625   1.036   0.577   8.885 -2.5831  2.6983 -2.4775
  150SAPE  C21616626   0.817   0.565   8.894 -0.4524  0.7137 -0.0091
  150SAPE  H16R16627   0.785   0.658   8.843 -0.1725 -0.1443 -1.8264
  150SAPE  H16S16628   0.746   0.542   8.977 -0.1230  1.5657  0.5163
  150SAPE  C21716629   0.813   0.454   8.782 -0.0278  0.5867  0.1508
  150SAPE  H17R16630   0.902   0.472   8.718  0.6569  3.1274  1.6680
  150SAPE  H17S16631   0.726   0.479   8.719 -0.1684  0.8206  0.4334
  150SAPE  C21816632   0.843   0.309   8.833 -0.2544 -0.0710 -0.1397
  150SAPE  H18R16633   0.915   0.318   8.917  0.5127 -0.7869 -0.6991
  150SAPE  H18S16634   0.897   0.250   8.756 -2.3908 -0.2052 -1.6218
  150SAPE  C21916635   0.705   0.254   8.868 -0.5600  0.0840  0.3909
  150SAPE  H19R16636   0.627   0.300   8.804 -1.4841 -1.3689  0.4329
  150SAPE  H19S16637   0.677   0.308   8.962 -0.4448  3.0324 -1.1631
  150SAPE  C22016638   0.696   0.101   8.883  0.3056 -0.1288 -1.1697
  150SAPE  H20R16639   0.601   0.069   8.931  0.5472 -2.7979 -2.3149
  150SAPE  H20S16640   0.781   0.072   8.949  0.2593 -1.3079 -1.6118
  150SAPE  H20T16641   0.709   0.053   8.784  0.5623  0.3377 -1.3658
  150SAPE   C3316642   1.000   1.172  10.153  0.0493 -0.2083 -0.2066
  150SAPE   H3X16643   1.094   1.119  10.128  0.8728 -0.1170  2.3602
  150SAPE   H3Y16644   1.031   1.267  10.202  0.4410 -1.5389  2.3189
  150SAPE   C3416645   0.925   1.200  10.017  0.6528  0.0520 -0.6770
  150SAPE   H4X16646   0.986   1.271   9.957 -0.8895  2.6136  0.5791
  150SAPE   H4Y16647   0.839   1.262  10.051 -0.0569 -0.2252 -1.8906
  150SAPE   C3516648   0.872   1.082   9.936 -0.0805 -0.0268  0.4232
  150SAPE   H5X16649   0.774   1.052   9.980 -1.5664  1.9003 -1.3976
  150SAPE   H5Y16650   0.946   1.000   9.941 -0.0501 -0.0073  0.2922
  150SAPE   C3616651   0.850   1.130   9.792  0.9221 -0.0520 -0.2373
  150SAPE   H6X16652   0.949   1.124   9.742  1.0098  1.7080 -0.3636
  150SAPE   H6Y16653   0.811   1.234   9.781  0.8198 -0.2660 -2.4309
  150SAPE   C3716654   0.747   1.044   9.714 -0.1486  0.3280 -0.1355
  150SAPE   H7X16655   0.642   1.058   9.748 -0.4459 -1.9857  0.0589
  150SAPE   H7Y16656   0.750   0.937   9.743 -0.7422  0.6751  1.3185
  150SAPE   C3816657   0.765   1.070   9.565 -0.6485 -0.0278 -0.4500
  150SAPE   H8X16658   0.870   1.051   9.535 -1.6398 -1.0868 -3.5496
  150SAPE   H8Y16659   0.739   1.176   9.545  3.9723  1.2530 -0.9973
  150SAPE   C3916660   0.693   0.980   9.466  0.3315  0.4673  0.0438
  150SAPE   H9X16661   0.584   0.977   9.487  0.1733  1.3820 -0.5618
  150SAPE   H9Y16662   0.733   0.878   9.483 -1.2733 -0.2188 -0.1290
  150SAPE  C31016663   0.695   1.029   9.324  0.3696  0.0145  0.5300
  150SAPE  H10X16664   0.796   1.052   9.284  0.5012 -1.2891  0.0550
  150SAPE  H10Y16665   0.643   1.127   9.325 -0.0605 -0.1890 -0.5847
  150SAPE  C31116666   0.631   0.934   9.220 -0.5028  0.4033  0.1834
  150SAPE  H11X16667   0.524   0.913   9.245 -0.7997  2.5183  0.8723
  150SAPE  H11Y16668   0.675   0.833   9.232 -2.3691 -0.8148 -2.2647
  150SAPE  C31216669   0.653   0.987   9.078  0.1638  0.0124  0.9260
  150SAPE  H12X16670   0.761   0.993   9.050 -0.6266  4.8279 -2.2833
  150SAPE  H12Y16671   0.616   1.088   9.050 -0.8348 -1.0807 -2.0433
  150SAPE  C31316672   0.594   0.891   8.976 -0.5951 -0.2198  0.6024
  150SAPE  H13X16673   0.495   0.861   9.016  0.3978 -1.3145  2.3638
  150SAPE  H13Y16674   0.655   0.798   8.977 -0.3370 -0.0510  1.0547
  150SAPE  C31416675   0.582   0.956   8.832 -0.3623  0.2309 -0.8288
  150SAPE  H14X16676   0.683   1.000   8.816  1.2855 -2.6073  0.8071
  150SAPE  H14Y16677   0.506   1.036   8.841 -1.8652 -1.1973 -0.1980
  150SAPE  C31516678   0.535   0.856   8.729  0.3708 -0.4480  0.4917
  150SAPE  H15X16679   0.428   0.831   8.748  0.0301 -0.6857 -1.4679
  150SAPE  H15Y16680   0.599   0.766   8.737  0.2386 -0.4164  2.1088
  150SAPE  C31616681   0.557   0.913   8.585  0.8698 -0.0451 -0.1178
  150SAPE  H16X16682   0.665   0.917   8.561  1.4803 -1.6472  2.0396
  150SAPE  H16Y16683   0.519   1.018   8.588 -1.0027 -0.6858 -0.1262
  150SAPE  C31716684   0.484   0.833   8.473 -0.0785 -0.1138 -0.3239
  150SAPE  H17X16685   0.375   0.821   8.490 -0.2536 -0.1916 -1.3797
  150SAPE  H17Y16686   0.528   0.731   8.472  0.0426 -0.0872  0.9130
  150SAPE  C31816687   0.504   0.905   8.337 -0.3059  0.2193 -0.0122
  150SAPE  H18X16688   0.604   0.884   8.295  0.5481  0.5715  1.7528
  150SAPE  H18Y16689   0.487   1.013   8.358  0.3852  0.1151  1.1417
  150SAPE  H18Z16690   0.426   0.868   8.267 -1.7106  1.7601  0.6590
  151SAPE     N16691   5.128   4.914  10.674  0.0560 -0.0088  0.8792
  151SAPE   HN116692   5.049   4.855  10.639  0.9456 -0.4733 -0.4513
  151SAPE   HN216693   5.214   4.857  10.686  1.6241  1.5169 -2.0631
  151SAPE   HN316694   5.100   4.962  10.762 -2.2966  0.1767  0.1184
  151SAPE   C1216695   5.173   5.003  10.566 -0.6506  0.2891 -0.3742
  151SAPE  H12A16696   5.269   5.053  10.590 -1.0953  1.7917 -1.5736
  151SAPE  H12B16697   5.091   5.074  10.542 -1.3589 -0.0619  0.9220
  151SAPE   C1116698   5.209   4.913  10.447 -0.8140  0.4105  0.6686
  151SAPE  H11A16699   5.229   4.978  10.359  0.4809 -2.2928 -1.1747
  151SAPE  H11B16700   5.127   4.847  10.411  1.2637 -2.4283  0.7919
  151SAPE     P16701   5.461   4.843  10.436 -0.2710  0.3907 -0.3076
  151SAPE   O1316702   5.502   4.978  10.480 -0.4328 -0.3566 -1.4671
  151SAPE   O1416703   5.526   4.722  10.501 -0.0075 -0.4691  0.2066
  151SAPE   O1216704   5.310   4.820  10.470 -0.2152 -0.7418 -0.2497
  151SAPE   O1116705   5.475   4.843  10.284 -0.2480  0.2249 -0.5690
  151SAPE    C116706   5.428   4.745  10.195 -0.4762  0.3462 -0.4751
  151SAPE    HA16707   5.458   4.643  10.229  3.5733  0.9784 -1.6483
  151SAPE    HB16708   5.318   4.748  10.188 -0.6687 -1.6861  0.8664
  151SAPE    C216709   5.500   4.772  10.066  0.1080  0.0505  0.1014
  151SAPE    HS16710   5.496   4.880  10.040  2.2728  0.4885  1.3671
  151SAPE   O2116711   5.449   4.696   9.957 -0.0535  0.3014  0.4591
  151SAPE   C2116712   5.322   4.735   9.923  0.4674  0.0182  0.2673
  151SAPE   O2216713   5.267   4.835   9.971  0.1899  0.1617  0.6926
  151SAPE   C2216714   5.278   4.649   9.805  0.0140  0.3857  0.7370
  151SAPE   H2R16715   5.329   4.712   9.729 -3.9633  1.6121 -1.2094
  151SAPE   H2S16716   5.315   4.545   9.818  3.4274  1.3502 -0.3310
  151SAPE    C316717   5.647   4.735  10.084 -0.1917 -0.5205  0.1443
  151SAPE    HX16718   5.650   4.625  10.097 -1.0157 -0.5137  0.4633
  151SAPE    HY16719   5.697   4.782  10.172 -0.8883 -0.0151  0.2813
  151SAPE   O3116720   5.727   4.762   9.968  0.4625  0.7819 -0.1021
  151SAPE   C3116721   5.762   4.884   9.962 -0.6210 -0.7622  0.3411
  151SAPE   O3216722   5.732   4.970  10.045 -0.1039  0.3338 -0.7486
  151SAPE   C3216723   5.851   4.910   9.845 -0.0551 -0.4508  0.1802
  151SAPE   H2X16724   5.958   4.897   9.870 -0.3956 -0.4094  1.7073
  151SAPE   H2Y16725   5.853   5.017   9.815  0.0794 -0.7316 -0.8584
  151SAPE   C2316726   5.127   4.651   9.776  0.0923  0.7388  0.4352
  151SAPE   H3R16727   5.066   4.698   9.856 -0.3363 -0.5934  0.9296
  151SAPE   H3S16728   5.102   4.543   9.784  0.3954  0.4741 -1.6105
  151SAPE   C2416729   5.093   4.703   9.634 -0.0938 -0.0873 -0.1307
  151SAPE   H4R16730   4.983   4.700   9.619  0.0783 -0.2646 -1.4904
  151SAPE   H4S16731   5.130   4.625   9.564 -0.8683 -0.6691  0.1007
  151SAPE   C2516732   5.151   4.838   9.613  0.5196 -0.0553 -0.0165
  151SAPE   H5R16733   5.130   4.914   9.689 -0.3690 -0.3441  0.0362
  151SAPE   C2616734   5.232   4.868   9.514  0.1612 -1.1008  0.0078
  151SAPE   H6R16735   5.277   4.968   9.520 -1.7213 -0.1787 -0.5462
  151SAPE   C2716736   5.277   4.775   9.416  0.1255 -0.4183  0.6402
  151SAPE   H7R16737   5.297   4.671   9.449 -1.7269 -0.6778  1.0203
  151SAPE   H7S16738   5.359   4.836   9.372 -1.0138  2.1573  1.8931
  151SAPE   C2816739   5.179   4.762   9.303  0.5182  0.2641  0.8597
  151SAPE   H8R16740   5.118   4.671   9.301 -2.1009  1.8419 -3.4057
  151SAPE   C2916741   5.145   4.850   9.210  0.9161  0.1369 -0.1230
  151SAPE   H9R16742   5.070   4.822   9.135 -0.0764 -1.9100  1.5164
  151SAPE  C21016743   5.204   4.990   9.193  0.1600  0.0450  0.7474
  151SAPE  H10R16744   5.302   4.979   9.142  1.5091  2.2306  2.6427
  151SAPE  H10S16745   5.239   5.034   9.289 -1.5061 -0.3470  1.5597
  151SAPE  C21116746   5.112   5.091   9.126  0.3767  0.7753 -0.1012
  151SAPE  H11R16747   5.024   5.053   9.071  0.8443 -0.3197 -0.1088
  151SAPE  C21216748   5.152   5.218   9.119  1.2055  0.5210  0.4589
  151SAPE  H12R16749   5.079   5.281   9.065  3.6484  2.3077 -0.9564
  151SAPE  C21316750   5.274   5.285   9.175  0.5241  0.4071  0.0735
  151SAPE  H13R16751   5.338   5.217   9.234  1.9463  1.7677  0.1749
  151SAPE  H13S16752   5.241   5.375   9.232 -1.3432 -1.7215  2.5798
  151SAPE  C21416753   5.365   5.305   9.057 -0.2790 -0.2989 -0.1861
  151SAPE  H14R16754   5.457   5.246   9.069 -0.5866 -0.3469  2.6395
  151SAPE  C21516755   5.357   5.392   8.955  0.9855  0.4832 -0.2620
  151SAPE  H15R16756   5.437   5.390   8.880  1.3275 -0.4022  0.1096
  151SAPE  C21616757   5.245   5.492   8.927  0.1462  0.2776  0.1816
  151SAPE  H16R16758   5.285   5.591   8.896 -0.2664 -0.3949 -2.9044
  151SAPE  H16S16759   5.189   5.505   9.022 -0.1224 -0.6797  0.1635
  151SAPE  C21716760   5.152   5.446   8.820  0.1279 -0.0900  0.4425
  151SAPE  H17R16761   5.056   5.499   8.835  0.6862  0.4820  2.1797
  151SAPE  H17S16762   5.128   5.338   8.831  2.3765 -0.7792 -0.7370
  151SAPE  C21816763   5.202   5.461   8.671  0.2220  0.0767  0.8672
  151SAPE  H18R16764   5.261   5.369   8.649  2.2527  1.4169  0.4365
  151SAPE  H18S16765   5.271   5.547   8.674 -0.1026  0.3302  1.1425
  151SAPE  C21916766   5.086   5.477   8.565 -0.0603 -0.2609 -0.0002
  151SAPE  H19R16767   5.134   5.487   8.465 -1.3149  1.5060 -0.4739
  151SAPE  H19S16768   5.044   5.575   8.595 -2.0554 -0.6453 -1.3214
  151SAPE  C22016769   4.978   5.371   8.578  0.2849 -0.0418  0.1463
  151SAPE  H20R16770   4.909   5.370   8.491 -0.3977 -1.2404  0.6808
  151SAPE  H20S16771   4.915   5.386   8.669 -1.4152 -0.3736 -0.9404
  151SAPE  H20T16772   5.019   5.268   8.586 -0.4716 -0.3397  0.3427
  151SAPE   C3316773   5.818   4.825   9.720  0.2566  0.0072  0.1201
  151SAPE   H3X16774   5.794   4.721   9.750 -0.5294  0.5747  1.5968
  151SAPE   H3Y16775   5.915   4.807   9.669 -0.2877  2.7778 -2.1324
  151SAPE   C3416776   5.707   4.885   9.631 -0.0551  0.6127  0.3323
  151SAPE   H4X16777   5.738   4.983   9.589 -0.8842  0.2134 -1.3140
  151SAPE   H4Y16778   5.613   4.909   9.685 -0.5216 -1.0164  0.3123
  151SAPE   C3516779   5.678   4.788   9.514  0.1632  0.4932 -0.0223
  151SAPE   H5X16780   5.602   4.827   9.443  0.0422 -1.6993 -1.1785
  151SAPE   H5Y16781   5.640   4.690   9.551  0.3359  0.7903  0.9893
  151SAPE   C3616782   5.804   4.753   9.435  0.5590 -0.4926 -0.5942
  151SAPE   H6X16783   5.872   4.696   9.502  0.0289 -0.3971  0.0385
  151SAPE   H6Y16784   5.857   4.850   9.424 -1.0985  0.8253  1.8956
  151SAPE   C3716785   5.782   4.684   9.301 -0.1417 -0.2720 -0.3012
  151SAPE   H7X16786   5.676   4.649   9.296 -0.7559  1.4476 -0.0413
  151SAPE   H7Y16787   5.849   4.595   9.299  2.8602  1.8545 -0.8132
  151SAPE   C3816788   5.832   4.764   9.174  0.1887 -0.2174 -0.1238
  151SAPE   H8X16789   5.941   4.783   9.187 -0.1218  1.7985 -0.2040
  151SAPE   H8Y16790   5.785   4.864   9.177  0.2950 -0.1761  0.2982
  151SAPE   C3916791   5.780   4.696   9.046  0.2523  0.1967 -0.1403
  151SAPE   H9X16792   5.669   4.696   9.043  0.2428 -0.3536  0.0719
  151SAPE   H9Y16793   5.827   4.596   9.039  1.0052  0.6077 -1.1672
  151SAPE  C31016794   5.825   4.778   8.927 -0.7317  1.0450  0.0124
  151SAPE  H10X16795   5.823   4.700   8.849  1.7381  0.6108  0.2896
  151SAPE  H10Y16796   5.929   4.815   8.946 -0.2265  0.0522 -0.7324
  151SAPE  C31116797   5.725   4.884   8.878 -0.1051  0.1149 -0.2222
  151SAPE  H11X16798   5.715   4.966   8.952  0.0662 -0.0097 -0.0583
  151SAPE  H11Y16799   5.624   4.841   8.862 -0.4434  0.2562  1.3709
  151SAPE  C31216800   5.759   4.948   8.741 -0.5395 -0.9947  0.2984
  151SAPE  H12X16801   5.732   4.879   8.658 -2.7714 -0.1673  0.2471
  151SAPE  H12Y16802   5.866   4.975   8.753 -1.1746  0.8082  3.1350
  151SAPE  C31316803   5.675   5.072   8.714  0.4401 -0.3702  0.3975
  151SAPE  H13X16804   5.670   5.142   8.800 -3.0664 -1.3821  1.1657
  151SAPE  H13Y16805   5.570   5.041   8.694 -0.7138  2.2766  1.7891
  151SAPE  C31416806   5.728   5.163   8.596  0.2420  0.8396 -0.5957
  151SAPE  H14X16807   5.762   5.105   8.508 -0.1090  0.6000 -0.5714
  151SAPE  H14Y16808   5.824   5.213   8.624  1.1398 -1.1792  0.0923
  151SAPE  C31516809   5.634   5.268   8.556 -0.8251 -1.0547  0.0956
  151SAPE  H15X16810   5.607   5.326   8.647  2.4310 -1.6531  1.5915
  151SAPE  H15Y16811   5.539   5.218   8.527  1.0985 -4.4482 -0.8923
  151SAPE  C31616812   5.677   5.358   8.437  0.4414  0.6486 -0.6650
  151SAPE  H16X16813   5.604   5.438   8.412 -0.2847  0.2342  0.0849
  151SAPE  H16Y16814   5.671   5.307   8.338 -1.8390  1.6572 -1.1274
  151SAPE  C31716815   5.811   5.434   8.461 -0.2141  0.3700  0.3765
  151SAPE  H17X16816   5.846   5.407   8.562 -1.7365 -1.0498  0.5729
  151SAPE  H17Y16817   5.791   5.543   8.457 -0.5234  0.2981 -2.5536
  151SAPE  C31816818   5.906   5.412   8.348 -0.2064 -0.1695  0.1897
  151SAPE  H18X16819   5.878   5.438   8.244  2.0885 -1.4540 -0.8123
  151SAPE  H18Y16820   5.921   5.302   8.342  1.1275  0.0919 -3.4435
  151SAPE  H18Z16821   6.007   5.449   8.375  0.6581 -1.7230 -0.7301
  152SAPE     N16822   0.601   4.435  10.644  0.0419 -0.1958  0.1031
  152SAPE   HN116823   0.633   4.467  10.550 -0.6329  2.4984  0.7033
  152SAPE   HN216824   0.626   4.508  10.714  2.9922 -0.8629 -0.0982
  152SAPE   HN316825   0.673   4.366  10.673 -0.3965 -0.5847  0.2774
  152SAPE   C1216826   0.462   4.381  10.674  0.2144 -0.5545  0.7841
  152SAPE  H12A16827   0.396   4.467  10.650 -1.4222 -1.9620  0.0429
  152SAPE  H12B16828   0.458   4.357  10.782  0.4303  1.6240  1.3256
  152SAPE   C1116829   0.426   4.255  10.585 -1.0623  0.6854 -0.0647
  152SAPE  H11A16830   0.458   4.276  10.481 -1.0582 -1.1516 -0.4652
  152SAPE  H11B16831   0.317   4.239  10.572 -1.5644  4.5594 -2.0193
  152SAPE     P16832   0.441   4.029  10.705 -0.5301 -0.0725 -0.2376
  152SAPE   O1316833   0.513   4.013  10.832  0.1947 -0.7935  0.1030
  152SAPE   O1416834   0.296   4.057  10.721 -0.2340  0.4096 -0.0214
  152SAPE   O1216835   0.505   4.139  10.621 -0.3366 -0.2039 -0.5476
  152SAPE   O1116836   0.463   3.901  10.609 -0.0858  0.1076 -0.4302
  152SAPE    C116837   0.596   3.862  10.561 -0.7523 -0.0263  0.2575
  152SAPE    HA16838   0.616   3.924  10.471 -0.1037 -1.6581 -0.7641
  152SAPE    HB16839   0.672   3.886  10.639 -0.2586 -2.0261  0.4636
  152SAPE    C216840   0.621   3.711  10.514 -0.5189 -0.6111  0.5794
  152SAPE    HS16841   0.727   3.703  10.484 -0.2755 -0.4041  1.3547
  152SAPE   O2116842   0.542   3.686  10.395  0.1169  0.0855 -0.3597
  152SAPE   C2116843   0.582   3.741  10.279  0.1325 -0.1775 -0.9884
  152SAPE   O2216844   0.688   3.803  10.269  0.3526 -0.0363  0.3549
  152SAPE   C2216845   0.499   3.685  10.170 -0.0462 -0.4069  0.9200
  152SAPE   H2R16846   0.549   3.595  10.130 -1.8691 -1.6819  1.3876
  152SAPE   H2S16847   0.399   3.653  10.206 -0.0750 -1.0106  0.3145
  152SAPE    C316848   0.587   3.604  10.619 -0.4173 -0.1214 -0.2005
  152SAPE    HX16849   0.490   3.643  10.656  0.1813  3.5099 -1.9885
  152SAPE    HY16850   0.671   3.609  10.691  1.3760  1.5252 -2.2692
  152SAPE   O3116851   0.569   3.467  10.571 -0.1194 -0.3804 -0.1467
  152SAPE   C3116852   0.677   3.417  10.514 -0.3286 -1.0025  0.4501
  152SAPE   O3216853   0.788   3.462  10.538  0.7082 -0.4824  0.0103
  152SAPE   C3216854   0.639   3.274  10.457  0.1927  0.4379 -0.0293
  152SAPE   H2X16855   0.529   3.264  10.447 -0.1111  2.2679  0.9400
  152SAPE   H2Y16856   0.689   3.216  10.537  2.2517  2.4162  0.2587
  152SAPE   C2316857   0.491   3.790  10.054  0.3139 -0.0148  0.1948
  152SAPE   H3R16858   0.439   3.880  10.093  2.6825  0.8906  1.5166
  152SAPE   H3S16859   0.439   3.731   9.976  2.1595 -3.3031  1.2834
  152SAPE   C2416860   0.620   3.849   9.993  0.3308 -0.2386  0.6164
  152SAPE   H4R16861   0.677   3.758   9.965  0.5565 -0.1257  0.7079
  152SAPE   H4S16862   0.686   3.910  10.058  0.6060  1.4789 -1.1620
  152SAPE   C2516863   0.599   3.934   9.869 -0.3871  0.7864 -0.5296
  152SAPE   H5R16864   0.562   4.035   9.891 -0.4676  0.7511 -0.5008
  152SAPE   C2616865   0.640   3.907   9.744  0.0728 -0.1216 -0.2803
  152SAPE   H6R16866   0.620   3.984   9.668  1.6268  0.2700 -0.3308
  152SAPE   C2716867   0.702   3.781   9.690  0.1441 -0.2454  0.1683
  152SAPE   H7R16868   0.615   3.722   9.655  0.6138 -0.1970 -1.1404
  152SAPE   H7S16869   0.750   3.721   9.769 -0.7005  0.4802  1.2600
  152SAPE   C2816870   0.801   3.813   9.581 -0.4160 -0.7360  0.3074
  152SAPE   H8R16871   0.905   3.832   9.613 -0.6946 -1.5178  1.7217
  152SAPE   C2916872   0.775   3.818   9.448  0.3025  0.2779 -0.0871
  152SAPE   H9R16873   0.863   3.829   9.383  0.5097 -1.2898 -0.1111
  152SAPE  C21016874   0.644   3.797   9.379  0.2546  0.5203  0.0395
  152SAPE  H10R16875   0.604   3.697   9.408  0.5484  0.1645 -0.7364
  152SAPE  H10S16876   0.662   3.787   9.270 -0.9361 -1.8651 -0.0029
  152SAPE  C21116877   0.538   3.903   9.395 -0.5642 -0.3616  0.4670
  152SAPE  H11R16878   0.491   3.900   9.494 -0.4604  0.0002  0.5301
  152SAPE  C21216879   0.494   3.980   9.294  0.1589 -0.0478 -0.2448
  152SAPE  H12R16880   0.406   4.045   9.306  2.2793  3.3410 -1.4983
  152SAPE  C21316881   0.537   3.995   9.153 -0.3578  0.1323  0.8544
  152SAPE  H13R16882   0.472   3.946   9.077  0.4308 -0.4856  0.5525
  152SAPE  H13S16883   0.634   3.942   9.139 -2.1194 -3.4178  0.9628
  152SAPE  C21416884   0.557   4.135   9.103 -0.2672  0.4854  0.0707
  152SAPE  H14R16885   0.540   4.218   9.174 -1.7076 -0.3039  0.7029
  152SAPE  C21516886   0.613   4.170   8.983  0.6665  0.1268 -0.1080
  152SAPE  H15R16887   0.617   4.276   8.954  2.2443  0.4680  1.2168
  152SAPE  C21616888   0.654   4.068   8.878 -0.5723 -0.0597  0.4581
  152SAPE  H16R16889   0.605   3.972   8.902 -1.1927  0.3675  0.9560
  152SAPE  H16S16890   0.763   4.053   8.858 -1.2733 -0.4795 -3.9687
  152SAPE  C21716891   0.613   4.104   8.736 -0.1915  0.0455 -0.6785
  152SAPE  H17R16892   0.665   4.041   8.660  0.8226  2.4300 -2.0699
  152SAPE  H17S16893   0.651   4.207   8.719  1.5980 -0.4917 -0.1390
  152SAPE  C21816894   0.460   4.097   8.720 -0.0844 -0.4213  0.8682
  152SAPE  H18R16895   0.418   4.141   8.813 -0.1811 -0.4394  0.8320
  152SAPE  H18S16896   0.421   3.994   8.718 -2.2770  0.3680  0.6364
  152SAPE  C21916897   0.422   4.181   8.591 -0.3493 -0.5793  0.1206
  152SAPE  H19R16898   0.517   4.207   8.539 -0.2679  0.2643  0.6716
  152SAPE  H19S16899   0.401   4.280   8.638  0.9445 -0.6201  0.8496
  152SAPE  C22016900   0.311   4.127   8.498  0.0317 -0.6124 -0.2214
  152SAPE  H20R16901   0.343   4.037   8.441  1.6061  0.6296 -1.3990
  152SAPE  H20S16902   0.282   4.198   8.417  0.4737  0.0379  0.1840
  152SAPE  H20T16903   0.221   4.106   8.560  0.4754 -1.5884  0.1075
  152SAPE   C3316904   0.715   3.241  10.323 -0.3773  0.2508  0.4235
  152SAPE   H3X16905   0.715   3.130  10.313 -0.9738  0.3146 -0.4310
  152SAPE   H3Y16906   0.823   3.266  10.315 -0.6053  0.7427 -1.6445
  152SAPE   C3416907   0.632   3.291  10.202 -0.1949  0.9202  0.1753
  152SAPE   H4X16908   0.616   3.400  10.210  2.2919  1.5773 -2.1015
  152SAPE   H4Y16909   0.532   3.243  10.201  0.1113  0.2647  0.3143
  152SAPE   C3516910   0.701   3.268  10.064  0.5622  0.6526  0.3009
  152SAPE   H5X16911   0.703   3.158  10.047 -0.4341  0.8982 -1.7048
  152SAPE   H5Y16912   0.805   3.303  10.081  0.0089  1.4048  2.3615
  152SAPE   C3616913   0.636   3.345   9.951  0.1305  0.5452  0.3532
  152SAPE   H6X16914   0.666   3.451   9.966 -0.0355  1.2059 -3.1740
  152SAPE   H6Y16915   0.528   3.335   9.975  0.6514  1.3412  3.4455
  152SAPE   C3716916   0.666   3.293   9.806 -0.5261 -0.5194 -0.6241
  152SAPE   H7X16917   0.642   3.185   9.800 -0.1960 -0.5159 -3.2652
  152SAPE   H7Y16918   0.770   3.309   9.771 -0.4515 -0.1543 -0.2439
  152SAPE   C3816919   0.578   3.356   9.697  0.2458 -0.1662 -0.1797
  152SAPE   H8X16920   0.601   3.464   9.684  0.4232 -0.0610  0.9152
  152SAPE   H8Y16921   0.470   3.353   9.722  0.2841  3.2623  0.8655
  152SAPE   C3916922   0.614   3.293   9.558  0.4393 -0.8042  0.3287
  152SAPE   H9X16923   0.519   3.280   9.501  1.1767  0.5530 -1.3003
  152SAPE   H9Y16924   0.660   3.193   9.571  1.7723 -0.3344 -0.5667
  152SAPE  C31016925   0.715   3.370   9.473  0.5231  0.3449 -0.0539
  152SAPE  H10X16926   0.792   3.419   9.535  1.1613  0.6455 -1.0532
  152SAPE  H10Y16927   0.659   3.441   9.408  1.3523  0.8291 -0.2473
  152SAPE  C31116928   0.791   3.280   9.377 -0.3324  0.2247 -0.0620
  152SAPE  H11X16929   0.813   3.183   9.428 -2.7623 -0.2099  0.2673
  152SAPE  H11Y16930   0.886   3.329   9.346  0.1032  1.0909  2.4443
  152SAPE  C31216931   0.716   3.248   9.250 -0.1393 -0.1695 -0.2472
  152SAPE  H12X16932   0.677   3.332   9.189 -1.7312 -1.3901 -1.0028
  152SAPE  H12Y16933   0.624   3.193   9.281  0.2574 -0.4609  0.4359
  152SAPE  C31316934   0.800   3.160   9.147  0.4746 -0.6960  0.0303
  152SAPE  H13X16935   0.731   3.139   9.062  0.3431 -2.6085  0.5469
  152SAPE  H13Y16936   0.828   3.061   9.189  0.8499 -0.5003  0.2411
  152SAPE  C31416937   0.925   3.233   9.093 -0.2463  0.3402  0.4236
  152SAPE  H14X16938   0.995   3.271   9.171 -0.8589  0.2952  1.0147
  152SAPE  H14Y16939   0.891   3.327   9.046 -0.0432 -0.7313 -1.9881
  152SAPE  C31516940   1.011   3.144   9.005 -0.8228 -0.0480  0.2609
  152SAPE  H15X16941   0.948   3.114   8.918  1.1634 -1.9285 -0.6430
  152SAPE  H15Y16942   1.054   3.057   9.059  2.9410 -0.5238 -3.0467
  152SAPE  C31616943   1.131   3.228   8.949  0.3609 -0.1033 -0.1667
  152SAPE  H16X16944   1.200   3.241   9.034 -0.7729 -1.4380  1.0027
  152SAPE  H16Y16945   1.098   3.329   8.916  1.3120  0.6402  1.0933
  152SAPE  C31716946   1.202   3.157   8.828 -0.0821  0.1047  0.9083
  152SAPE  H17X16947   1.121   3.137   8.754  1.1183 -0.7317 -0.2387
  152SAPE  H17Y16948   1.238   3.053   8.845 -0.7361 -0.1613  0.7092
  152SAPE  C31816949   1.306   3.244   8.765 -0.3440 -0.4401 -0.5792
  152SAPE  H18X16950   1.367   3.188   8.691  3.9420  3.2475 -0.2985
  152SAPE  H18Y16951   1.375   3.280   8.845  1.5261 -0.5871 -2.0362
  152SAPE  H18Z16952   1.254   3.333   8.723  2.4080  1.4459 -0.2926
  153SAPE     N16953   6.416   3.722  10.699  1.2048  0.0499 -0.5962
  153SAPE   HN116954   6.376   3.752  10.608 -0.4272 -0.1440  0.0324
  153SAPE   HN216955   6.514   3.758  10.692  0.3480  2.7800  0.0851
  153SAPE   HN316956   6.421   3.618  10.699  0.4209 -0.0905 -3.8422
  153SAPE   C1216957   6.359   3.786  10.821  0.8455 -0.8053 -0.0412
  153SAPE  H12A16958   6.327   3.707  10.893  0.0045 -1.6548 -1.3104
  153SAPE  H12B16959   6.266   3.836  10.788  1.0126  0.0719  0.7615
  153SAPE   C1116960   6.458   3.890  10.876  0.4155  0.0040  0.3069
  153SAPE  H11A16961   6.550   3.842  10.915  0.6719 -0.4229 -0.7908
  153SAPE  H11B16962   6.410   3.937  10.965 -0.4124 -1.5711  0.7338
  153SAPE     P16963   6.559   4.109  10.806  0.5663 -0.3202  0.2285
  153SAPE   O1316964   6.457   4.209  10.837  0.1481  0.6057 -0.0347
  153SAPE   O1416965   6.661   4.085  10.908 -0.2185  0.3139 -0.4223
  153SAPE   O1216966   6.479   3.981  10.772 -0.4341 -0.0814  0.7771
  153SAPE   O1116967   6.625   4.154  10.677 -0.3053 -0.2477  0.3864
  153SAPE    C116968   6.677   4.080  10.565 -0.2796 -0.5966 -0.0485
  153SAPE    HA16969   6.712   3.979  10.597  2.1555 -0.3484 -1.6838
  153SAPE    HB16970   6.599   4.063  10.488 -0.3714 -0.5787  0.0390
  153SAPE    C216971   6.805   4.152  10.505 -0.4619  1.0922 -0.1015
  153SAPE    HS16972   6.871   4.185  10.589  2.0020 -1.0110 -1.0731
  153SAPE   O2116973   6.761   4.257  10.412  0.7968 -0.0469  0.2561
  153SAPE   C2116974   6.747   4.372  10.458  0.2200 -1.0871 -0.4448
  153SAPE   O2216975   6.769   4.421  10.570  0.4695 -0.4120  0.2419
  153SAPE   C2216976   6.704   4.465  10.342 -0.4175  0.3632 -0.7736
  153SAPE   H2R16977   6.798   4.465  10.282  2.0001  2.1318  2.6491
  153SAPE   H2S16978   6.611   4.427  10.294 -1.1377  1.4451 -0.2836
  153SAPE    C316979   6.890   4.057  10.421  0.3273  0.0831  0.2286
  153SAPE    HX16980   6.930   3.970  10.477  1.3149  0.5441  0.2526
  153SAPE    HY16981   6.986   4.111  10.406  1.1619 -0.7535  2.2294
  153SAPE   O3116982   6.829   4.002  10.301  0.3391 -0.0281 -0.0978
  153SAPE   C3116983   6.890   3.915  10.226  0.2297 -0.9021  0.4519
  153SAPE   O3216984   7.002   3.874  10.254 -0.6812 -0.4108  0.2815
  153SAPE   C3216985   6.809   3.895  10.095 -0.6988 -0.0503 -0.5175
  153SAPE   H2X16986   6.765   3.996  10.076 -3.4134 -0.6115  2.0630
  153SAPE   H2Y16987   6.717   3.837  10.118 -0.5786 -0.1005 -0.1545
  153SAPE   C2316988   6.695   4.617  10.394 -0.1711 -0.0744 -0.4977
  153SAPE   H3R16989   6.793   4.639  10.441 -0.3729 -1.5017  0.6832
  153SAPE   H3S16990   6.619   4.645  10.470 -0.0712 -0.3201 -0.3061
  153SAPE   C2416991   6.677   4.705  10.277  0.1875 -0.3524 -0.1273
  153SAPE   H4R16992   6.769   4.682  10.219 -0.9899  1.3728 -2.8669
  153SAPE   H4S16993   6.668   4.809  10.315 -0.3718 -0.0939 -0.9470
  153SAPE   C2516994   6.548   4.687  10.197 -0.4312 -0.0602 -0.2192
  153SAPE   H5R16995   6.453   4.695  10.251 -0.3490  0.4083 -0.1361
  153SAPE   C2616996   6.536   4.686  10.063  0.1639  0.1659  0.2658
  153SAPE   H6R16997   6.437   4.678  10.017  0.3066 -2.2704  0.2186
  153SAPE   C2716998   6.661   4.701   9.976 -0.0776  0.1948  0.3114
  153SAPE   H7R16999   6.750   4.730  10.036  0.3279 -1.9246  0.8366
  153SAPE   H7S17000   6.648   4.789   9.910 -0.9614 -0.9592 -1.1336
  153SAPE   C2817001   6.691   4.575   9.895  0.4284  0.3513  0.1299
  153SAPE   H8R17002   6.700   4.491   9.965 -3.7819  1.1198  1.8970
  153SAPE   C2917003   6.691   4.550   9.756 -0.8357  0.5031  0.3492
  153SAPE   H9R17004   6.728   4.452   9.723  1.2118  1.8476 -1.6107
  153SAPE  C21017005   6.671   4.652   9.644 -0.4686  0.0991 -0.5671
  153SAPE  H10R17006   6.667   4.757   9.679 -0.9633  0.3634 -1.3997
  153SAPE  H10S17007   6.565   4.641   9.612 -0.4775 -0.2016 -0.4357
  153SAPE  C21117008   6.769   4.634   9.534  0.0729  0.3933  0.0588
  153SAPE  H11R17009   6.872   4.605   9.557  0.6561  1.7792 -0.6966
  153SAPE  C21217010   6.750   4.638   9.400 -0.0989  0.6690 -0.4843
  153SAPE  H12R17011   6.832   4.633   9.328  0.7366  1.4974  0.3772
  153SAPE  C21317012   6.619   4.663   9.328 -0.2078  0.4396 -0.7219
  153SAPE  H13R17013   6.529   4.627   9.383 -1.1945  2.3506 -0.9798
  153SAPE  H13S17014   6.620   4.596   9.239  0.2968 -1.0850  0.3869
  153SAPE  C21417015   6.601   4.812   9.289  0.1780 -0.5129  0.2349
  153SAPE  H14R17016   6.574   4.881   9.370 -1.6892 -0.1800 -0.6231
  153SAPE  C21517017   6.634   4.873   9.172  0.4289 -0.2421  0.5429
  153SAPE  H15R17018   6.620   4.982   9.173  0.2356 -0.2297 -0.8566
  153SAPE  C21617019   6.693   4.808   9.045  0.3779 -0.3938 -0.4126
  153SAPE  H16R17020   6.702   4.698   9.055 -0.4680 -0.4026  0.3852
  153SAPE  H16S17021   6.795   4.849   9.033  0.1452  0.1789 -0.4794
  153SAPE  C21717022   6.628   4.838   8.906  1.1411  0.0629 -0.0859
  153SAPE  H17R17023   6.522   4.873   8.914  1.6097  1.6341 -0.3021
  153SAPE  H17S17024   6.626   4.753   8.835 -0.3823 -0.4301  0.4934
  153SAPE  C21817025   6.704   4.952   8.830  0.0649  0.9964  0.5649
  153SAPE  H18R17026   6.651   4.958   8.733  0.5006  2.2565  0.3715
  153SAPE  H18S17027   6.806   4.907   8.822  0.0824  0.4328  3.1395
  153SAPE  C21917028   6.714   5.087   8.900 -0.5628 -0.0098  0.4322
  153SAPE  H19R17029   6.760   5.082   9.001  1.4005  1.5571 -0.3308
  153SAPE  H19S17030   6.617   5.140   8.913  0.0280  1.2484 -0.1611
  153SAPE  C22017031   6.803   5.188   8.820 -0.0215  0.6807  0.6463
  153SAPE  H20R17032   6.847   5.268   8.884  1.5226  1.2819 -1.0929
  153SAPE  H20S17033   6.756   5.220   8.725 -3.1094 -1.0317  1.4595
  153SAPE  H20T17034   6.893   5.128   8.794 -2.0205 -1.8177 -0.9413
  153SAPE   C3317035   6.882   3.828   9.978  0.0532  0.7688  0.1071
  153SAPE   H3X17036   6.903   3.721  10.000  0.3991  0.7501 -0.3025
  153SAPE   H3Y17037   6.984   3.872   9.970  1.3380 -1.6197  2.1324
  153SAPE   C3417038   6.816   3.849   9.838  0.0357  0.1985 -0.1242
  153SAPE   H4X17039   6.782   3.954   9.827 -2.6932 -0.3404  2.0560
  153SAPE   H4Y17040   6.731   3.779   9.831 -0.7731  1.2891 -1.9984
  153SAPE   C3517041   6.909   3.794   9.728 -0.6362  0.0521  0.3121
  153SAPE   H5X17042   6.926   3.685   9.743 -2.7222 -0.6863 -1.9854
  153SAPE   H5Y17043   7.006   3.847   9.745 -1.9395  1.9665  2.1441
  153SAPE   C3617044   6.865   3.811   9.578 -0.2451  0.2392 -0.6830
  153SAPE   H6X17045   6.858   3.922   9.566  0.8999  0.6029  1.4507
  153SAPE   H6Y17046   6.760   3.775   9.570 -0.3859  0.7686 -1.3053
  153SAPE   C3717047   6.957   3.746   9.475 -0.5606  0.1715 -0.1697
  153SAPE   H7X17048   6.969   3.639   9.502 -0.7111 -0.8061 -3.5273
  153SAPE   H7Y17049   7.049   3.805   9.495 -1.9297  1.8271  1.5887
  153SAPE   C3817050   6.909   3.771   9.325 -0.1809  0.2160 -0.4328
  153SAPE   H8X17051   6.902   3.881   9.313 -0.8378  0.2364  0.1011
  153SAPE   H8Y17052   6.806   3.734   9.311  0.5923 -0.9170 -4.0902
  153SAPE   C3917053   7.001   3.699   9.228 -0.0109  0.5506  0.3348
  153SAPE   H9X17054   7.026   3.595   9.257 -0.7136  0.3719  0.3386
  153SAPE   H9Y17055   7.096   3.755   9.233  0.0226  0.6828 -1.3269
  153SAPE  C31017056   6.971   3.702   9.081  0.2600 -0.2617 -0.5815
  153SAPE  H10X17057   6.959   3.808   9.051  1.8447  0.2988  0.6107
  153SAPE  H10Y17058   6.882   3.643   9.051  0.7958 -0.9126 -0.9198
  153SAPE  C31117059   7.094   3.669   8.993  0.2479 -0.0186 -0.3762
  153SAPE  H11X17060   7.172   3.744   9.016 -1.5682  1.7534  0.3187
  153SAPE  H11Y17061   7.063   3.688   8.888 -1.6859  3.1728  0.6450
  153SAPE  C31217062   7.147   3.526   9.006 -0.1765 -0.0639 -0.4453
  153SAPE  H12X17063   7.061   3.456   9.008  0.5694 -0.9990  1.2618
  153SAPE  H12Y17064   7.186   3.501   9.107 -0.1391  0.7723 -0.2437
  153SAPE  C31317065   7.244   3.502   8.896 -0.9871  0.4927 -0.2360
  153SAPE  H13X17066   7.345   3.547   8.910  0.0658 -1.6852 -0.3768
  153SAPE  H13Y17067   7.199   3.538   8.802 -0.9967 -2.1970 -1.3562
  153SAPE  C31417068   7.263   3.347   8.866  0.3104  0.1354 -0.3098
  153SAPE  H14X17069   7.171   3.307   8.819 -0.2172 -1.6422  2.0980
  153SAPE  H14Y17070   7.273   3.274   8.949 -0.4307  0.2309 -0.1284
  153SAPE  C31517071   7.382   3.310   8.782  0.1954 -0.5695 -0.0315
  153SAPE  H15X17072   7.468   3.355   8.836  0.6334 -2.0660  0.5926
  153SAPE  H15Y17073   7.362   3.351   8.681  1.6739  2.9445  0.9557
  153SAPE  C31617074   7.405   3.156   8.771  0.1962 -0.2599  0.2239
  153SAPE  H16X17075   7.317   3.101   8.730  0.6328 -0.1717 -0.8512
  153SAPE  H16Y17076   7.427   3.118   8.873  1.9385 -0.9116 -0.3708
  153SAPE  C31717077   7.533   3.132   8.687  0.3469  0.1973  0.5263
  153SAPE  H17X17078   7.584   3.035   8.705  0.7610  0.3756  0.3255
  153SAPE  H17Y17079   7.620   3.194   8.714 -0.6709  1.0814  1.8982
  153SAPE  C31817080   7.500   3.143   8.531  0.2331  0.4294  0.1306
  153SAPE  H18X17081   7.592   3.133   8.471  0.1425 -1.3787  0.2453
  153SAPE  H18Y17082   7.472   3.250   8.515 -1.1890 -0.1567 -1.7375
  153SAPE  H18Z17083   7.424   3.069   8.500 -1.3476  0.4655  3.4697
  154SAPE     N17084   0.280   5.147  11.202  0.1969 -0.2410 -0.5128
  154SAPE   HN117085   0.333   5.076  11.149  0.9183  0.0353 -0.1752
  154SAPE   HN217086   0.358   5.213  11.220  0.4706 -0.9238  0.8928
  154SAPE   HN317087   0.243   5.096  11.285 -0.6146  0.4885 -0.4073
  154SAPE   C1217088   0.157   5.200  11.122  0.4864 -0.1858 -0.4904
  154SAPE  H12A17089   0.123   5.295  11.168  3.3981  0.5479  0.3584
  154SAPE  H12B17090   0.076   5.125  11.131  0.1470  0.3557  1.5666
  154SAPE   C1117091   0.201   5.215  10.973 -0.5148  0.0963 -0.8553
  154SAPE  H11A17092   0.117   5.216  10.901 -0.7369  0.7412 -0.6011
  154SAPE  H11B17093   0.276   5.137  10.947 -0.6713 -0.2196 -0.3740
  154SAPE     P17094   0.270   5.453  10.870  0.0385 -0.4043 -0.5082
  154SAPE   O1317095   0.126   5.467  10.827 -0.1576  0.3711 -0.3969
  154SAPE   O1417096   0.334   5.576  10.911  0.0859 -0.5237 -0.0674
  154SAPE   O1217097   0.279   5.336  10.973  0.1048 -0.1248 -0.5473
  154SAPE   O1117098   0.354   5.395  10.746 -0.3457 -0.2189 -0.2782
  154SAPE    C117099   0.284   5.324  10.654 -0.9079  0.1516 -0.0378
  154SAPE    HA17100   0.262   5.222  10.692  1.4997 -0.7410 -0.8424
  154SAPE    HB17101   0.189   5.363  10.612 -1.4797 -1.1597 -0.0014
  154SAPE    C217102   0.375   5.300  10.531 -0.2993  0.0954 -0.0820
  154SAPE    HS17103   0.328   5.230  10.459  0.0396  0.5068 -0.7175
  154SAPE   O2117104   0.504   5.255  10.577 -0.1574 -0.6398  0.4173
  154SAPE   C2117105   0.501   5.130  10.610 -0.0304 -0.5297  0.3013
  154SAPE   O2217106   0.421   5.048  10.568  0.0259 -0.0068 -0.3282
  154SAPE   C2217107   0.608   5.088  10.709  0.0339  0.0856  0.0576
  154SAPE   H2R17108   0.701   5.146  10.696  0.5134 -0.9564 -1.3937
  154SAPE   H2S17109   0.552   5.104  10.804 -0.8339 -2.6086  0.0736
  154SAPE    C317110   0.400   5.430  10.448  0.3984  0.2343  0.3117
  154SAPE    HX17111   0.474   5.405  10.369 -0.1052  2.0520 -0.7896
  154SAPE    HY17112   0.440   5.511  10.512 -0.3706  1.3518 -0.5901
  154SAPE   O3117113   0.272   5.467  10.386 -0.7588  0.0672  0.0643
  154SAPE   C3117114   0.273   5.595  10.326  0.4850  0.4999 -0.4425
  154SAPE   O3217115   0.369   5.668  10.319 -0.3294 -0.1153  0.5732
  154SAPE   C3217116   0.133   5.624  10.279  0.6019 -0.1553  0.2342
  154SAPE   H2X17117   0.089   5.702  10.344  0.9708  0.1420  0.1330
  154SAPE   H2Y17118   0.065   5.537  10.280  0.1763  0.1507 -0.7017
  154SAPE   C2317119   0.624   4.937  10.718  0.0455 -0.3769 -0.0825
  154SAPE   H3R17120   0.524   4.889  10.714 -1.0674  1.5177  2.4534
  154SAPE   H3S17121   0.674   4.919  10.816 -0.3968  0.9510  0.4044
  154SAPE   C2417122   0.710   4.859  10.620 -0.2541  0.2543  0.3319
  154SAPE   H4R17123   0.642   4.834  10.536 -0.9470 -0.0524  0.9677
  154SAPE   H4S17124   0.735   4.766  10.676  0.9409 -0.2687 -1.0184
  154SAPE   C2517125   0.835   4.935  10.583 -0.1202 -0.0478  0.1512
  154SAPE   H5R17126   0.900   4.952  10.671  0.5608  1.3594 -0.5816
  154SAPE   C2617127   0.863   5.004  10.470  0.3712 -0.2519  0.4701
  154SAPE   H6R17128   0.967   5.033  10.451  0.0403  0.7878  0.1744
  154SAPE   C2717129   0.774   5.019  10.351  0.0176  0.3784  0.1775
  154SAPE   H7R17130   0.803   5.103  10.284 -2.0252  1.1800  0.1983
  154SAPE   H7S17131   0.677   5.061  10.386 -0.3706  2.1226 -2.6871
  154SAPE   C2817132   0.766   4.894  10.263 -0.1643 -0.2002  0.4025
  154SAPE   H8R17133   0.691   4.821  10.297  0.3630  0.5559  3.4078
  154SAPE   C2917134   0.835   4.863  10.147  0.0502  0.6791  0.6440
  154SAPE   H9R17135   0.805   4.775  10.089  0.6216  1.5895 -1.1001
  154SAPE  C21017136   0.946   4.941  10.078  0.1881 -0.6879  0.0852
  154SAPE  H10R17137   0.971   5.030  10.140  2.7375 -0.2811 -1.3708
  154SAPE  H10S17138   0.915   4.982   9.979 -0.3391  0.3544  0.6675
  154SAPE  C21117139   1.085   4.871  10.064 -0.1111  0.7316  0.3290
  154SAPE  H11R17140   1.087   4.788  10.137 -0.9800 -0.3699 -0.8693
  154SAPE  C21217141   1.180   4.900   9.976 -0.2793  1.0132  0.7568
  154SAPE  H12R17142   1.273   4.842   9.965 -0.8064 -0.1050  1.9392
  154SAPE  C21317143   1.183   5.018   9.875  0.1425  0.4379 -0.4274
  154SAPE  H13R17144   1.252   5.100   9.906  0.6821  0.1166 -0.7708
  154SAPE  H13S17145   1.079   5.058   9.868  0.1596  0.8235  1.0541
  154SAPE  C21417146   1.207   4.976   9.739 -0.6739  0.2022 -0.1981
  154SAPE  H14R17147   1.168   4.873   9.731 -1.5463  0.4463  0.7081
  154SAPE  C21517148   1.265   5.038   9.636 -0.3869 -0.4260  0.0762
  154SAPE  H15R17149   1.263   4.982   9.541  3.9566  2.9699 -2.4010
  154SAPE  C21617150   1.325   5.178   9.632 -0.9072 -0.5435 -0.0953
  154SAPE  H16R17151   1.294   5.244   9.716  0.7349 -0.0279  0.1495
  154SAPE  H16S17152   1.301   5.229   9.536  0.0743 -2.2392 -1.3076
  154SAPE  C21717153   1.482   5.165   9.642 -0.2701  0.9332  0.5547
  154SAPE  H17R17154   1.529   5.107   9.560  1.4666  0.6642  1.6740
  154SAPE  H17S17155   1.505   5.113   9.738  0.1905 -0.8124 -0.4603
  154SAPE  C21817156   1.550   5.298   9.646 -0.0804  0.1199 -0.0362
  154SAPE  H18R17157   1.660   5.286   9.651 -0.1085  0.1590  0.8490
  154SAPE  H18S17158   1.523   5.345   9.743  4.1386  3.0098 -0.0131
  154SAPE  C21917159   1.512   5.398   9.539 -0.5998  0.1496 -0.5640
  154SAPE  H19R17160   1.573   5.487   9.565  0.7688 -0.6296 -0.9916
  154SAPE  H19S17161   1.406   5.425   9.561 -0.0408  0.3552  2.2038
  154SAPE  C22017162   1.542   5.356   9.396 -0.4030  0.4889  0.1045
  154SAPE  H20R17163   1.483   5.267   9.364 -1.4022  0.7924  1.0078
  154SAPE  H20S17164   1.651   5.342   9.382 -0.1636  2.0311  0.2342
  154SAPE  H20T17165   1.516   5.442   9.331 -3.4678 -0.1866  0.2711
  154SAPE   C3317166   0.139   5.682  10.141 -0.1334  0.3093  0.1429
  154SAPE   H3X17167   0.233   5.731  10.110  0.8109 -2.2994 -1.4065
  154SAPE   H3Y17168   0.053   5.752  10.133 -0.7739 -0.3804  0.8274
  154SAPE   C3417169   0.107   5.585  10.025 -0.1928 -0.2958  0.5709
  154SAPE   H4X17170  -0.003   5.569  10.031 -0.1292 -0.7757  0.5499
  154SAPE   H4Y17171   0.163   5.489  10.029  1.7261  0.4182 -3.3905
  154SAPE   C3517172   0.151   5.631   9.883 -0.4307 -0.2505 -0.3061
  154SAPE   H5X17173   0.261   5.642   9.898 -0.8975  4.0347  1.2800
  154SAPE   H5Y17174   0.107   5.732   9.871 -0.5255 -0.0395  1.5401
  154SAPE   C3617175   0.120   5.543   9.766  0.2143  0.1554  0.4433
  154SAPE   H6X17176   0.009   5.532   9.767  0.2174 -0.3108 -1.1692
  154SAPE   H6Y17177   0.161   5.443   9.790 -2.0413 -1.4946 -1.9593
  154SAPE   C3717178   0.163   5.594   9.631  0.0961 -0.2345  0.3471
  154SAPE   H7X17179   0.273   5.613   9.629  0.0711  0.0942  1.3927
  154SAPE   H7Y17180   0.112   5.689   9.606 -1.5614 -0.7044  1.7555
  154SAPE   C3817181   0.149   5.486   9.524  0.1703  0.8246  0.2230
  154SAPE   H8X17182   0.045   5.447   9.533 -0.7370  3.2289  0.9832
  154SAPE   H8Y17183   0.214   5.397   9.541  0.2508  1.0456  1.1286
  154SAPE   C3917184   0.176   5.526   9.379 -0.2052 -0.4012 -0.5573
  154SAPE   H9X17185   0.285   5.544   9.366 -0.0353 -1.0667 -0.0766
  154SAPE   H9Y17186   0.131   5.627   9.371 -1.8908 -0.9195  1.5031
  154SAPE  C31017187   0.110   5.438   9.282  0.1210  0.1583  0.3229
  154SAPE  H10X17188   0.003   5.436   9.310  0.0359 -1.9462 -0.0046
  154SAPE  H10Y17189   0.160   5.340   9.292  1.1516  0.3766 -2.0216
  154SAPE  C31117190   0.142   5.489   9.142 -0.8065 -0.5019  0.0486
  154SAPE  H11X17191   0.079   5.445   9.062 -1.8219  1.5101 -0.3194
  154SAPE  H11Y17192   0.249   5.466   9.121 -1.0657 -0.7604 -1.0987
  154SAPE  C31217193   0.125   5.648   9.121 -0.9343  0.4035 -0.6514
  154SAPE  H12X17194   0.195   5.706   9.184 -1.0426  1.7894 -1.7626
  154SAPE  H12Y17195   0.022   5.682   9.144 -1.5458 -0.8322 -1.3911
  154SAPE  C31317196   0.152   5.696   8.978 -0.0115  0.3976  0.1625
  154SAPE  H13X17197   0.057   5.671   8.926  0.8766  0.5133 -1.5877
  154SAPE  H13Y17198   0.232   5.631   8.936 -0.6568  0.6923 -1.6075
  154SAPE  C31417199   0.186   5.845   8.975  0.2165 -0.4480  0.2231
  154SAPE  H14X17200   0.276   5.876   9.032  0.0504  1.4544 -0.4985
  154SAPE  H14Y17201   0.098   5.898   9.017 -1.2279 -0.4403 -2.5554
  154SAPE  C31517202   0.208   5.906   8.834 -0.3259 -0.3750 -0.3492
  154SAPE  H15X17203   0.116   5.922   8.775 -0.1305  0.2817 -0.4841
  154SAPE  H15Y17204   0.284   5.846   8.779  1.6139  0.5639  1.1979
  154SAPE  C31617205   0.259   6.054   8.857  0.6911  0.0519 -0.3452
  154SAPE  H16X17206   0.330   6.064   8.942  1.4737 -1.2113 -0.8254
  154SAPE  H16Y17207   0.167   6.115   8.870 -0.9379 -1.6502 -3.0265
  154SAPE  C31717208   0.327   6.102   8.724  0.3394  0.2690 -0.6475
  154SAPE  H17X17209   0.257   6.084   8.640 -0.8873  0.8462  0.2204
  154SAPE  H17Y17210   0.414   6.032   8.719 -0.3257 -0.5876 -0.4956
  154SAPE  C31817211   0.361   6.255   8.731  0.7328  0.0926 -0.0259
  154SAPE  H18X17212   0.403   6.301   8.639  1.8784 -2.4664 -0.8393
  154SAPE  H18Y17213   0.435   6.272   8.811 -0.0252 -1.4587  1.0473
  154SAPE  H18Z17214   0.271   6.315   8.760  1.1920  0.6773  0.2144
  155SAPE     N17215   1.739   0.634  11.174 -0.3619  0.4676 -0.2378
  155SAPE   HN117216   1.748   0.700  11.254  0.9727  2.5334 -1.9947
  155SAPE   HN217217   1.838   0.618  11.146 -0.7230  0.1052 -1.3729
  155SAPE   HN317218   1.701   0.687  11.093 -0.8064 -1.1442 -1.1251
  155SAPE   C1217219   1.663   0.507  11.194 -0.1422  0.0537 -0.2907
  155SAPE  H12A17220   1.555   0.528  11.188 -0.0361  0.8734  0.6428
  155SAPE  H12B17221   1.687   0.465  11.294 -0.6530  0.6325  0.0725
  155SAPE   C1117222   1.684   0.403  11.078  0.1225 -0.0061 -0.2707
  155SAPE  H11A17223   1.630   0.440  10.988 -1.9550  1.5300  1.4974
  155SAPE  H11B17224   1.613   0.319  11.093 -1.1408  0.9100 -0.8648
  155SAPE     P17225   1.854   0.239  10.978  0.2445  0.1467  0.5821
  155SAPE   O1317226   1.999   0.247  10.943 -0.0109 -0.7252 -0.4397
  155SAPE   O1417227   1.810   0.117  11.056 -0.0929  0.6261 -1.2314
  155SAPE   O1217228   1.818   0.372  11.056 -0.8856  0.5585 -0.1415
  155SAPE   O1117229   1.761   0.248  10.848  0.3212 -0.2953 -0.5022
  155SAPE    C117230   1.772   0.141  10.754  0.1927 -0.1346 -0.1060
  155SAPE    HA17231   1.834   0.055  10.787  0.5479  1.5829  4.3784
  155SAPE    HB17232   1.670   0.098  10.746  0.5263 -1.4134  1.9274
  155SAPE    C217233   1.794   0.193  10.616 -0.8639  0.0061 -0.4762
  155SAPE    HS17234   1.789   0.111  10.541 -4.4424 -0.9509  0.6369
  155SAPE   O2117235   1.924   0.254  10.608 -0.0656 -0.6747 -0.0483
  155SAPE   C2117236   2.029   0.175  10.621  0.4574  0.2623  0.5612
  155SAPE   O2217237   2.032   0.053  10.620  0.0936 -0.1833  0.3666
  155SAPE   C2217238   2.150   0.269  10.610 -0.1175 -0.1483 -0.0956
  155SAPE   H2R17239   2.131   0.348  10.534 -0.2019 -0.5179 -0.4594
  155SAPE   H2S17240   2.159   0.315  10.711 -2.1361  1.3064 -0.5247
  155SAPE    C317241   1.694   0.299  10.571  0.2671 -0.2817  0.0636
  155SAPE    HX17242   1.708   0.385  10.640 -1.9327  0.3586 -0.2167
  155SAPE    HY17243   1.587   0.268  10.570 -0.0122  0.6459 -1.1258
  155SAPE   O3117244   1.730   0.341  10.439  0.0285  0.3372  0.0248
  155SAPE   C3117245   1.644   0.427  10.387 -0.1178  0.0799 -0.5687
  155SAPE   O3217246   1.535   0.458  10.435  0.6174 -0.0226  0.8072
  155SAPE   C3217247   1.703   0.469  10.249  0.4297  0.4922 -0.0501
  155SAPE   H2X17248   1.740   0.375  10.204 -2.4634 -0.1068 -1.4062
  155SAPE   H2Y17249   1.785   0.539  10.276  0.7696 -0.6938  2.2950
  155SAPE   C2317250   2.289   0.202  10.588  0.7884  0.6494  0.2665
  155SAPE   H3R17251   2.282   0.132  10.502 -0.7469  1.3602 -0.2341
  155SAPE   H3S17252   2.305   0.137  10.677 -0.3525 -0.9193 -0.6218
  155SAPE   C2417253   2.411   0.293  10.573  0.3814 -0.6956 -0.4401
  155SAPE   H4R17254   2.505   0.248  10.610 -1.7522 -2.3928  3.6216
  155SAPE   H4S17255   2.398   0.370  10.653 -0.6176 -1.5328  0.2344
  155SAPE   C2517256   2.408   0.356  10.434 -0.1267 -0.2713 -0.6984
  155SAPE   H5R17257   2.328   0.431  10.425 -0.4942 -0.5515  0.0947
  155SAPE   C2617258   2.505   0.346  10.342  0.4785 -0.0078 -0.2026
  155SAPE   H6R17259   2.505   0.413  10.254 -1.1495  0.4100  0.0734
  155SAPE   C2717260   2.616   0.257  10.343 -0.5981  0.7470  0.2939
  155SAPE   H7R17261   2.584   0.165  10.290 -0.7401  0.7567  0.3614
  155SAPE   H7S17262   2.642   0.218  10.444  2.2787  1.3810 -0.1086
  155SAPE   C2817263   2.744   0.309  10.286 -0.4693 -1.0994 -0.6586
  155SAPE   H8R17264   2.816   0.344  10.362 -0.7084 -0.1026 -0.8715
  155SAPE   C2917265   2.771   0.339  10.156 -0.0445 -0.3407 -1.0499
  155SAPE   H9R17266   2.871   0.380  10.135 -1.1182  0.5985 -5.1685
  155SAPE  C21017267   2.691   0.311  10.034 -0.0546  0.2284  0.5684
  155SAPE  H10R17268   2.689   0.403   9.972 -0.1836 -0.2458 -0.1469
  155SAPE  H10S17269   2.591   0.276  10.066  0.7145 -0.7652  1.9924
  155SAPE  C21117270   2.756   0.195   9.955  0.6031 -0.4207 -0.0920
  155SAPE  H11R17271   2.830   0.136  10.011  0.9654 -0.5919 -0.7365
  155SAPE  C21217272   2.730   0.165   9.825 -0.2084 -0.2365  0.1470
  155SAPE  H12R17273   2.793   0.087   9.780  3.1377  2.2749  0.1375
  155SAPE  C21317274   2.623   0.231   9.739  0.1690  0.4244  0.0560
  155SAPE  H13R17275   2.684   0.290   9.668  0.0039  0.0152 -0.4315
  155SAPE  H13S17276   2.566   0.296   9.810  0.4604  0.3472  0.3644
  155SAPE  C21417277   2.537   0.139   9.654 -0.0873 -0.0102  0.7973
  155SAPE  H14R17278   2.433   0.130   9.688 -1.1653  2.5784 -1.4610
  155SAPE  C21517279   2.558   0.110   9.525 -0.1128  0.2057 -0.2708
  155SAPE  H15R17280   2.483   0.047   9.476 -0.5966 -1.2879  2.1835
  155SAPE  C21617281   2.675   0.150   9.437  0.4405  0.2056 -0.2777
  155SAPE  H16R17282   2.711   0.069   9.370  0.7594 -0.2124  0.3983
  155SAPE  H16S17283   2.756   0.186   9.505  2.4810 -1.3195 -1.7689
  155SAPE  C21717284   2.649   0.274   9.345 -0.6334  0.2671 -0.1587
  155SAPE  H17R17285   2.745   0.314   9.305  0.1467 -0.1985  1.1550
  155SAPE  H17S17286   2.602   0.356   9.402 -0.2757 -0.7179  1.6307
  155SAPE  C21817287   2.564   0.239   9.223 -0.1816  0.5151 -0.9462
  155SAPE  H18R17288   2.467   0.202   9.261  1.0449 -0.3517  1.5473
  155SAPE  H18S17289   2.608   0.150   9.172 -1.2636 -0.8346  0.3979
  155SAPE  C21917290   2.537   0.355   9.126 -0.4694 -0.5696  0.1131
  155SAPE  H19R17291   2.638   0.398   9.108 -1.3417  0.9567 -1.3425
  155SAPE  H19S17292   2.474   0.431   9.176  2.0817  3.2110 -1.9120
  155SAPE  C22017293   2.475   0.317   8.993 -0.3182  0.0358  0.1839
  155SAPE  H20R17294   2.535   0.234   8.951  0.1624 -0.6992  2.1945
  155SAPE  H20S17295   2.473   0.400   8.920  1.6277  0.3470  0.4319
  155SAPE  H20T17296   2.378   0.264   9.003 -0.1595 -0.1691  0.6552
  155SAPE   C3317297   1.595   0.526  10.157  0.5424 -0.4085  0.1444
  155SAPE   H3X17298   1.551   0.612  10.212 -2.2831 -1.1471 -0.7761
  155SAPE   H3Y17299   1.516   0.450  10.138  1.1538 -1.4429  1.6239
  155SAPE   C3417300   1.647   0.572  10.024  0.3208 -0.5632  0.1547
  155SAPE   H4X17301   1.690   0.479   9.981 -2.3115 -2.8672  2.0741
  155SAPE   H4Y17302   1.724   0.650  10.038 -0.8285  0.6185  0.0661
  155SAPE   C3517303   1.529   0.608   9.926  0.2046  0.5441 -0.1573
  155SAPE   H5X17304   1.476   0.701   9.957  0.9152  0.6264  0.8580
  155SAPE   H5Y17305   1.462   0.520   9.920  0.7306  0.2133 -1.4309
  155SAPE   C3617306   1.578   0.642   9.780 -0.6135  0.5729  0.0654
  155SAPE   H6X17307   1.635   0.552   9.745 -1.1336 -1.1658  3.3143
  155SAPE   H6Y17308   1.648   0.728   9.787  0.6442 -0.4567  0.6525
  155SAPE   C3717309   1.462   0.649   9.678  0.0500 -0.4279  0.5828
  155SAPE   H7X17310   1.393   0.729   9.715 -1.1898 -1.2900  0.1888
  155SAPE   H7Y17311   1.416   0.548   9.683 -2.5448  0.6126 -0.3829
  155SAPE   C3817312   1.514   0.665   9.537 -0.3395 -0.4226  0.3325
  155SAPE   H8X17313   1.590   0.585   9.520  0.1846  0.1675 -0.1525
  155SAPE   H8Y17314   1.563   0.764   9.520  1.5659 -1.8758 -4.3914
  155SAPE   C3917315   1.404   0.652   9.430 -0.4421  0.2373  0.6831
  155SAPE   H9X17316   1.308   0.700   9.459 -1.3580  1.2771 -3.4683
  155SAPE   H9Y17317   1.363   0.549   9.421  0.1614  0.0994 -0.7314
  155SAPE  C31017318   1.462   0.680   9.294 -0.2595 -0.5931  0.2148
  155SAPE  H10X17319   1.548   0.615   9.269  0.7106  0.3756  0.9774
  155SAPE  H10Y17320   1.492   0.786   9.280 -1.7806 -0.3581 -1.7010
  155SAPE  C31117321   1.363   0.659   9.179 -0.0009 -0.3551 -0.2177
  155SAPE  H11X17322   1.274   0.725   9.189  0.5046  0.2456  0.5185
  155SAPE  H11Y17323   1.330   0.554   9.191  0.2779 -0.2967  1.2909
  155SAPE  C31217324   1.426   0.695   9.043  0.1729 -0.2034  0.6269
  155SAPE  H12X17325   1.531   0.663   9.027  0.8175  1.0713  2.1176
  155SAPE  H12Y17326   1.422   0.806   9.045  1.8970 -0.0796 -0.4757
  155SAPE  C31317327   1.336   0.635   8.936 -0.5706  0.0493  0.6095
  155SAPE  H13X17328   1.237   0.686   8.943 -0.5133  0.7029 -1.9562
  155SAPE  H13Y17329   1.329   0.526   8.954 -2.9533  0.1683  0.7237
  155SAPE  C31417330   1.363   0.656   8.781 -0.2389 -0.4441  0.1860
  155SAPE  H14X17331   1.469   0.626   8.773  0.8250  2.2831  2.3590
  155SAPE  H14Y17332   1.347   0.764   8.763  0.2082 -0.2847  0.7274
  155SAPE  C31517333   1.279   0.555   8.706 -0.0868 -0.6617  1.0588
  155SAPE  H15X17334   1.201   0.615   8.655  1.1882  1.0769  1.0738
  155SAPE  H15Y17335   1.227   0.491   8.781  1.0417 -2.4983  0.3436
  155SAPE  C31617336   1.366   0.458   8.626 -0.0250  0.7517  0.0865
  155SAPE  H16X17337   1.332   0.354   8.645  1.6915  0.1159 -0.2134
  155SAPE  H16Y17338   1.469   0.455   8.668 -0.1239 -0.0292  0.2741
  155SAPE  C31717339   1.373   0.498   8.479 -0.1121  0.8140  0.1338
  155SAPE  H17X17340   1.401   0.605   8.480  1.6351  0.3793  1.2877
  155SAPE  H17Y17341   1.272   0.480   8.435 -0.1884  0.9643  0.2463
  155SAPE  C31817342   1.489   0.423   8.403  0.5941 -0.0263 -0.6341
  155SAPE  H18X17343   1.499   0.314   8.419  2.5405  0.3776  1.6422
  155SAPE  H18Y17344   1.592   0.467   8.408  0.2177  0.9522 -1.1309
  155SAPE  H18Z17345   1.474   0.448   8.296  0.4173  0.5586 -0.4815
  156SAPE     N17346   5.680   3.939  10.881 -0.4728  0.3561  0.3888
  156SAPE   HN117347   5.641   3.845  10.902  1.4959 -0.1900  1.9277
  156SAPE   HN217348   5.784   3.942  10.887 -0.3854  1.1626 -0.8869
  156SAPE   HN317349   5.648   4.010  10.950  0.5149  2.1631 -0.9064
  156SAPE   C1217350   5.647   3.990  10.742 -0.3033  0.1599 -0.3066
  156SAPE  H12A17351   5.646   4.101  10.756 -0.1242  0.4597 -2.3654
  156SAPE  H12B17352   5.544   3.966  10.709  0.2634  1.6049 -3.4704
  156SAPE   C1117353   5.746   3.953  10.630 -0.1703 -0.0709 -0.4792
  156SAPE  H11A17354   5.717   3.998  10.533  0.5497  1.9191  0.1736
  156SAPE  H11B17355   5.751   3.842  10.617 -1.0721 -0.3324  1.1015
  156SAPE     P17356   5.996   3.942  10.724  0.0995  0.2779  0.0254
  156SAPE   O1317357   5.952   3.924  10.862 -0.0107 -0.2604  0.0252
  156SAPE   O1417358   6.051   3.827  10.644  0.3507 -0.2651 -0.1115
  156SAPE   O1217359   5.873   4.007  10.647 -0.0661 -0.0230 -0.6695
  156SAPE   O1117360   6.106   4.058  10.726  0.2738  0.2771  0.3965
  156SAPE    C117361   6.083   4.193  10.675  0.2226  0.2036 -0.0554
  156SAPE    HA17362   5.975   4.217  10.675  0.1897  0.0606  0.4617
  156SAPE    HB17363   6.142   4.265  10.735  0.5842  0.0808 -0.2590
  156SAPE    C217364   6.133   4.221  10.532 -0.0210  0.0506  0.3612
  156SAPE    HS17365   6.117   4.329  10.513 -0.7907 -0.1054  0.1048
  156SAPE   O2117366   6.074   4.138  10.434 -0.2522  0.0490 -0.0088
  156SAPE   C2117367   5.958   4.183  10.394  0.7345 -0.1606  0.5921
  156SAPE   O2217368   5.906   4.286  10.429  0.2427 -0.4643 -0.3141
  156SAPE   C2217369   5.904   4.097  10.283  0.3399  0.1796 -0.3453
  156SAPE   H2R17370   5.884   3.995  10.320 -1.3176  0.2047 -1.0556
  156SAPE   H2S17371   5.808   4.144  10.253  2.3470  4.4600 -0.8895
  156SAPE    C317372   6.294   4.212  10.527 -0.1478  0.0131 -0.5577
  156SAPE    HX17373   6.326   4.113  10.565 -0.8482 -0.1434 -0.3420
  156SAPE    HY17374   6.326   4.287  10.603  2.9627 -0.8942 -0.8552
  156SAPE   O3117375   6.351   4.246  10.403 -0.3180  0.5658 -0.9333
  156SAPE   C3117376   6.368   4.143  10.319  0.9710  0.3882  0.2068
  156SAPE   O3217377   6.361   4.026  10.350  0.3532 -0.1639 -0.3908
  156SAPE   C3217378   6.433   4.194  10.189  0.4686  0.4168 -0.7742
  156SAPE   H2X17379   6.542   4.185  10.208  0.3589 -2.6113 -1.2185
  156SAPE   H2Y17380   6.409   4.303  10.185  0.9801  0.5001 -2.8376
  156SAPE   C2317381   5.999   4.069  10.165 -0.3481 -0.6226 -0.3409
  156SAPE   H3R17382   6.085   4.019  10.214 -0.2798 -0.7839 -0.6188
  156SAPE   H3S17383   6.029   4.163  10.112 -0.1241  0.2675  1.2860
  156SAPE   C2417384   5.939   3.971  10.067  0.9301  0.3959  0.5600
  156SAPE   H4R17385   5.888   3.886  10.116 -0.4236 -0.6197 -2.3686
  156SAPE   H4S17386   6.018   3.923  10.005  1.0278  0.4418  0.6498
  156SAPE   C2517387   5.827   4.035   9.983 -1.2679  0.4171 -0.0911
  156SAPE   H5R17388   5.727   4.044  10.027 -0.0540  1.5912  2.6924
  156SAPE   C2617389   5.845   4.079   9.855 -0.2715 -0.5069 -0.7754
  156SAPE   H6R17390   5.755   4.125   9.810 -0.0205 -1.7470 -2.6428
  156SAPE   C2717391   5.974   4.074   9.782  0.7988  0.2778  0.3840
  156SAPE   H7R17392   6.063   4.070   9.849  1.5037 -0.5182 -0.5633
  156SAPE   H7S17393   5.995   4.165   9.722  3.9430 -0.8411 -0.4213
  156SAPE   C2817394   5.976   3.948   9.691 -0.3190  0.1478  0.0516
  156SAPE   H8R17395   5.926   3.859   9.733 -1.3962  1.6241  2.0518
  156SAPE   C2917396   6.030   3.942   9.571 -0.4538  0.0313  0.0836
  156SAPE   H9R17397   6.023   3.840   9.531 -0.0258 -0.6860  1.7356
  156SAPE  C21017398   6.097   4.043   9.477  0.1699  0.0004  0.0976
  156SAPE  H10R17399   6.167   3.994   9.406 -2.1340  0.2042 -2.5003
  156SAPE  H10S17400   6.153   4.108   9.548  2.2044 -0.0701 -1.3528
  156SAPE  C21117401   6.002   4.141   9.410  0.4431 -0.7500  0.2529
  156SAPE  H11R17402   5.953   4.209   9.482 -0.6350  1.9784 -2.7818
  156SAPE  C21217403   5.976   4.159   9.278  0.0368  0.2014 -0.5988
  156SAPE  H12R17404   5.917   4.248   9.250  1.1575  0.8186 -1.0582
  156SAPE  C21317405   6.044   4.081   9.175  0.7153  0.2647 -0.2576
  156SAPE  H13R17406   5.970   4.033   9.107 -0.6084  1.4093  0.3143
  156SAPE  H13S17407   6.081   3.982   9.209 -0.4800 -0.7708 -1.7966
  156SAPE  C21417408   6.146   4.156   9.091  0.1773  0.3558  0.1040
  156SAPE  H14R17409   6.171   4.261   9.113  0.1047  1.3000 -3.5503
  156SAPE  C21517410   6.222   4.099   8.993 -0.1924  0.3087 -0.0815
  156SAPE  H15R17411   6.304   4.162   8.958  1.0175 -0.4850  1.2544
  156SAPE  C21617412   6.220   3.963   8.931  0.2297 -0.3709  0.7833
  156SAPE  H16R17413   6.121   3.913   8.931 -0.7448  1.3674 -1.8642
  156SAPE  H16S17414   6.293   3.903   8.990 -0.6581 -1.7439  0.5366
  156SAPE  C21717415   6.253   3.963   8.780 -0.6376  0.5435 -0.6276
  156SAPE  H17R17416   6.353   4.012   8.769 -1.4063  1.7662 -2.9196
  156SAPE  H17S17417   6.178   4.023   8.723 -2.6203  0.8128  2.0914
  156SAPE  C21817418   6.248   3.820   8.721 -0.2922 -0.3489 -0.5941
  156SAPE  H18R17419   6.143   3.788   8.732 -0.3468  0.4829  1.8934
  156SAPE  H18S17420   6.319   3.756   8.778 -1.5072  0.8313  2.4404
  156SAPE  C21917421   6.278   3.808   8.567 -0.6704 -0.6590  0.2367
  156SAPE  H19R17422   6.377   3.856   8.551 -0.7253  0.0414  1.8937
  156SAPE  H19S17423   6.210   3.868   8.502  1.0646  1.1287 -0.0167
  156SAPE  C22017424   6.308   3.665   8.522 -0.5639 -0.0600  0.5254
  156SAPE  H20R17425   6.363   3.676   8.426 -0.4836 -1.3535  0.4069
  156SAPE  H20S17426   6.213   3.613   8.499  0.6478 -2.2547  0.1728
  156SAPE  H20T17427   6.369   3.604   8.593  3.7450 -0.0193 -2.7468
  156SAPE   C3317428   6.406   4.124  10.061 -0.3452  1.2605 -0.3579
  156SAPE   H3X17429   6.301   4.147  10.034  0.4423  3.0024 -2.2349
  156SAPE   H3Y17430   6.419   4.014  10.070  0.0987  1.4659  1.8905
  156SAPE   C3417431   6.498   4.162   9.944  0.2942 -0.4234  0.0435
  156SAPE   H4X17432   6.602   4.148   9.980  1.6372 -0.6774 -3.4850
  156SAPE   H4Y17433   6.491   4.271   9.925  1.4818 -0.4737 -0.7638
  156SAPE   C3517434   6.470   4.096   9.810  0.1377 -0.3543 -0.9787
  156SAPE   H5X17435   6.371   4.047   9.816  0.9935 -2.0449  0.4259
  156SAPE   H5Y17436   6.528   4.001   9.800  0.2430 -0.8282  2.6076
  156SAPE   C3617437   6.487   4.187   9.691 -0.0109 -0.0636  0.5843
  156SAPE   H6X17438   6.596   4.205   9.682  0.2728 -2.1665 -1.0028
  156SAPE   H6Y17439   6.429   4.280   9.709  1.6193  0.6971  2.2889
  156SAPE   C3717440   6.447   4.095   9.566  0.3484  0.3613 -0.0620
  156SAPE   H7X17441   6.351   4.048   9.593  1.0393 -0.9392  0.2072
  156SAPE   H7Y17442   6.533   4.026   9.552  0.6766  0.7605 -0.0547
  156SAPE   C3817443   6.429   4.189   9.444  0.6331  0.3146  0.2625
  156SAPE   H8X17444   6.350   4.265   9.466 -0.7134 -0.7603 -0.6429
  156SAPE   H8Y17445   6.387   4.134   9.357  1.4249  1.6099 -0.9829
  156SAPE   C3917446   6.551   4.265   9.393  1.0243  0.3054  0.3089
  156SAPE   H9X17447   6.601   4.323   9.473  1.3733 -0.2535  0.4993
  156SAPE   H9Y17448   6.516   4.350   9.331 -0.2475 -0.5512 -0.2021
  156SAPE  C31017449   6.652   4.198   9.311  0.1868  0.2143  0.1993
  156SAPE  H10X17450   6.609   4.137   9.228 -0.9860  0.0981  0.8763
  156SAPE  H10Y17451   6.696   4.121   9.379  3.9689  1.6465 -0.3753
  156SAPE  C31117452   6.756   4.294   9.256 -0.1357  0.0120  0.0653
  156SAPE  H11X17453   6.796   4.366   9.330 -0.1241 -0.1578  0.2269
  156SAPE  H11Y17454   6.698   4.364   9.192 -0.4340  0.7083  1.0791
  156SAPE  C31217455   6.872   4.226   9.195  0.2259 -0.0622  0.1322
  156SAPE  H12X17456   6.940   4.179   9.269  2.2594  1.1136 -0.9012
  156SAPE  H12Y17457   6.928   4.304   9.140  0.1360  0.7970  1.2352
  156SAPE  C31317458   6.842   4.137   9.065  0.5693 -0.2562  0.3101
  156SAPE  H13X17459   6.782   4.050   9.099 -0.6932  0.7544  0.7683
  156SAPE  H13Y17460   6.940   4.117   9.016  0.8570  0.6260  0.5128
  156SAPE  C31417461   6.750   4.207   8.956 -0.1688  0.9823 -0.3848
  156SAPE  H14X17462   6.766   4.317   8.963  0.4050  0.9733 -1.3165
  156SAPE  H14Y17463   6.644   4.198   8.986 -0.3608  0.2062 -1.2597
  156SAPE  C31517464   6.753   4.139   8.822 -0.8731 -0.3991 -0.3711
  156SAPE  H15X17465   6.704   4.042   8.845  0.2131 -0.9116 -0.1844
  156SAPE  H15Y17466   6.862   4.123   8.804 -0.1058 -1.1253  3.8315
  156SAPE  C31617467   6.682   4.226   8.716  0.7607 -0.6640 -0.6287
  156SAPE  H16X17468   6.680   4.173   8.619 -0.9629 -0.0003 -1.0062
  156SAPE  H16Y17469   6.742   4.316   8.689 -0.1931 -0.0704 -0.8417
  156SAPE  C31717470   6.536   4.266   8.755 -0.4394 -0.0760 -0.0993
  156SAPE  H17X17471   6.535   4.337   8.840  0.4995 -1.1962  0.8824
  156SAPE  H17Y17472   6.486   4.178   8.801  1.4005 -0.9173  0.3956
  156SAPE  C31817473   6.449   4.306   8.636 -0.0878  0.2335  0.0527
  156SAPE  H18X17474   6.353   4.329   8.686 -0.8526  0.8246 -1.6388
  156SAPE  H18Y17475   6.444   4.226   8.559  0.1280 -3.1178  3.2366
  156SAPE  H18Z17476   6.489   4.395   8.582 -0.4511  0.0424 -0.5385
  157SAPE     N17477   5.727   4.549  10.495  0.0074 -0.5035  0.0315
  157SAPE   HN117478   5.644   4.610  10.503  2.1099  2.4714  1.1569
  157SAPE   HN217479   5.799   4.599  10.438 -0.9310 -0.0327 -0.7699
  157SAPE   HN317480   5.694   4.460  10.453  1.3471 -2.0711  2.1171
  157SAPE   C1217481   5.792   4.515  10.632  0.2445 -0.1151 -0.6143
  157SAPE  H12A17482   5.781   4.609  10.690  1.5420 -0.4314  0.1841
  157SAPE  H12B17483   5.898   4.490  10.609  0.0710 -2.2260  0.6527
  157SAPE   C1117484   5.717   4.405  10.712 -0.2637 -0.1176 -0.0572
  157SAPE  H11A17485   5.772   4.389  10.806  1.0297 -0.2587 -0.8128
  157SAPE  H11B17486   5.719   4.307  10.660 -0.1631 -0.7654  1.1435
  157SAPE     P17487   5.456   4.371  10.755  0.0666  0.1320 -0.0385
  157SAPE   O1317488   5.474   4.243  10.834  0.4265  0.6511  0.3431
  157SAPE   O1417489   5.341   4.450  10.804 -0.6917 -1.3687  0.0102
  157SAPE   O1217490   5.585   4.458  10.746  0.1010  0.4025  0.2661
  157SAPE   O1117491   5.424   4.343  10.607  0.2485  0.2999 -0.3760
  157SAPE    C117492   5.316   4.257  10.559 -0.6558 -0.0540 -0.3188
  157SAPE    HA17493   5.362   4.161  10.530 -1.5290 -0.0476 -1.8067
  157SAPE    HB17494   5.236   4.241  10.635  0.6979 -1.0158  0.9727
  157SAPE    C217495   5.257   4.328  10.434 -0.1244  0.5562  1.2273
  157SAPE    HS17496   5.165   4.274  10.404  1.0575 -1.1375  0.4392
  157SAPE   O2117497   5.359   4.337  10.325  0.0228 -0.2829  0.2706
  157SAPE   C2117498   5.310   4.318  10.204 -0.0996 -0.1938 -0.0680
  157SAPE   O2217499   5.198   4.296  10.171  0.0209 -0.5732 -0.2752
  157SAPE   C2217500   5.414   4.355  10.105 -0.4687  0.1487  0.5256
  157SAPE   H2R17501   5.413   4.466  10.098 -0.7886  0.0453 -2.2244
  157SAPE   H2S17502   5.510   4.314  10.143  0.6074 -2.2653 -4.0492
  157SAPE    C317503   5.220   4.481  10.474  0.8935  0.2830 -0.5341
  157SAPE    HX17504   5.315   4.533  10.496 -1.0758  4.1935 -0.3253
  157SAPE    HY17505   5.174   4.480  10.575 -0.3019 -1.9164 -1.0315
  157SAPE   O3117506   5.156   4.549  10.364 -0.2715  0.0099  0.5581
  157SAPE   C3117507   5.028   4.508  10.347 -0.3657 -0.0666  0.4839
  157SAPE   O3217508   4.966   4.426  10.417 -0.4335 -0.1480  0.1945
  157SAPE   C3217509   4.976   4.578  10.221  0.2998 -0.2614  0.0996
  157SAPE   H2X17510   5.064   4.586  10.153 -0.3987 -2.7770 -1.2432
  157SAPE   H2Y17511   4.935   4.679  10.239  0.6434 -0.5342  2.9941
  157SAPE   C2317512   5.376   4.286   9.968  0.8840 -0.3347 -0.0628
  157SAPE   H3R17513   5.292   4.339   9.918  0.8741 -0.7401 -0.4805
  157SAPE   H3S17514   5.342   4.183   9.990  1.5608 -0.5200  0.1422
  157SAPE   C2417515   5.500   4.269   9.879 -0.4535 -0.4719  0.4118
  157SAPE   H4R17516   5.475   4.215   9.785 -1.8452  1.4810 -0.4163
  157SAPE   H4S17517   5.574   4.209   9.935  0.5753  0.4907  0.1243
  157SAPE   C2517518   5.576   4.397   9.839 -0.3522 -0.3673  0.5687
  157SAPE   H5R17519   5.595   4.457   9.929  0.3298 -1.0262  0.8705
  157SAPE   C2617520   5.584   4.451   9.717  1.0194  0.0315  0.4975
  157SAPE   H6R17521   5.642   4.544   9.713 -0.6335  1.0632 -0.6804
  157SAPE   C2717522   5.535   4.402   9.582  0.3917 -0.6616 -0.7817
  157SAPE   H7R17523   5.467   4.483   9.546  1.3262  1.1454  1.2791
  157SAPE   H7S17524   5.467   4.315   9.597  0.0551 -0.2730 -0.0105
  157SAPE   C2817525   5.639   4.383   9.479 -0.1065  0.4346  0.0935
  157SAPE   H8R17526   5.742   4.360   9.510 -0.1489  1.2937  0.9337
  157SAPE   C2917527   5.616   4.363   9.346  0.1263  0.1754 -0.3817
  157SAPE   H9R17528   5.697   4.335   9.277 -0.8278  1.7615 -2.2573
  157SAPE  C21017529   5.473   4.370   9.284  0.8995  0.0944  0.2218
  157SAPE  H10R17530   5.395   4.396   9.358 -1.1290 -0.2805 -1.6837
  157SAPE  H10S17531   5.453   4.273   9.234 -1.3452  0.6352 -0.0055
  157SAPE  C21117532   5.483   4.476   9.179 -0.9841  0.4572  0.5122
  157SAPE  H11R17533   5.488   4.579   9.219  1.9401  0.6874 -0.1899
  157SAPE  C21217534   5.499   4.462   9.047  0.9763  0.0509  0.2096
  157SAPE  H12R17535   5.507   4.553   8.986 -0.4624 -0.4755 -0.8249
  157SAPE  C21317536   5.504   4.330   8.974  0.3051 -0.3550  0.0817
  157SAPE  H13R17537   5.477   4.349   8.867 -2.6236 -0.8791  0.6424
  157SAPE  H13S17538   5.422   4.262   9.004 -0.6278  0.4873 -0.4530
  157SAPE  C21417539   5.625   4.247   8.992  0.6886  0.1918 -0.7434
  157SAPE  H14R17540   5.639   4.170   9.070  1.0000 -0.4708 -1.4287
  157SAPE  C21517541   5.740   4.265   8.918 -0.3924 -0.0880 -0.0250
  157SAPE  H15R17542   5.825   4.199   8.941  1.9854  0.9762 -4.5913
  157SAPE  C21617543   5.775   4.366   8.815  0.6472  0.2355  0.2970
  157SAPE  H16R17544   5.883   4.390   8.817  0.7031  0.1398 -1.0861
  157SAPE  H16S17545   5.719   4.458   8.843 -1.6147 -1.4003  1.5477
  157SAPE  C21717546   5.737   4.323   8.672 -0.2210 -0.1440  0.7163
  157SAPE  H17R17547   5.766   4.408   8.607 -0.1181 -2.1915 -2.0992
  157SAPE  H17S17548   5.631   4.291   8.665 -0.6891  1.5938 -1.4752
  157SAPE  C21817549   5.827   4.213   8.614  0.0635  0.1173  0.2774
  157SAPE  H18R17550   5.819   4.126   8.682 -0.5339 -0.3933 -0.4236
  157SAPE  H18S17551   5.934   4.242   8.617 -0.3177  1.5670  3.2155
  157SAPE  C21917552   5.794   4.163   8.470  1.1006 -0.7908  0.2603
  157SAPE  H19R17553   5.701   4.103   8.468  0.6208 -0.0714  0.4305
  157SAPE  H19S17554   5.866   4.081   8.450 -0.1813 -2.2712  1.5001
  157SAPE  C22017555   5.793   4.273   8.358  0.3033  0.3827  0.0906
  157SAPE  H20R17556   5.815   4.231   8.257 -0.9663  2.3719 -1.0725
  157SAPE  H20S17557   5.858   4.361   8.377 -0.6555  1.8324 -2.7965
  157SAPE  H20T17558   5.697   4.328   8.353 -1.8824 -3.0940  0.0481
  157SAPE   C3317559   4.876   4.488  10.146 -0.3296  0.3442 -0.3187
  157SAPE   H3X17560   4.782   4.462  10.200 -0.9626 -0.1862 -1.6310
  157SAPE   H3Y17561   4.920   4.388  10.123  1.4785  0.9924  0.1194
  157SAPE   C3417562   4.850   4.545  10.008 -0.9144 -0.0255 -0.4157
  157SAPE   H4X17563   4.935   4.512   9.945  0.7657 -0.5167  1.9552
  157SAPE   H4Y17564   4.829   4.654  10.014 -3.5403 -0.3563 -1.8632
  157SAPE   C3517565   4.724   4.487   9.932 -0.3446  0.5763  0.0182
  157SAPE   H5X17566   4.631   4.508   9.989 -0.3225 -0.3087  0.4002
  157SAPE   H5Y17567   4.736   4.377   9.948 -1.2693  0.4654 -0.0244
  157SAPE   C3617568   4.699   4.534   9.792  0.1610  0.4680  0.2067
  157SAPE   H6X17569   4.713   4.644   9.797 -2.4701  0.8467  1.0772
  157SAPE   H6Y17570   4.591   4.519   9.771  0.3720 -2.0640  0.6199
  157SAPE   C3717571   4.777   4.453   9.679  0.5276 -0.1037 -0.5444
  157SAPE   H7X17572   4.741   4.354   9.716 -2.1654  0.9142 -0.2263
  157SAPE   H7Y17573   4.886   4.457   9.700  0.3433 -0.2161  0.4949
  157SAPE   C3817574   4.738   4.490   9.538  0.3623  0.1754  0.8616
  157SAPE   H8X17575   4.756   4.599   9.525 -1.5423  0.5493  0.9522
  157SAPE   H8Y17576   4.628   4.470   9.535  0.1651  1.1746  0.9336
  157SAPE   C3917577   4.822   4.422   9.429 -0.4256  0.2918  0.1306
  157SAPE   H9X17578   4.814   4.311   9.422  3.1564 -0.0641 -0.3923
  157SAPE   H9Y17579   4.925   4.436   9.468  0.2189 -1.0573 -0.9759
  157SAPE  C31017580   4.822   4.482   9.291 -0.3244  0.1836  0.3185
  157SAPE  H10X17581   4.819   4.593   9.287 -0.4019  0.1333 -1.6363
  157SAPE  H10Y17582   4.737   4.439   9.235 -0.2955 -0.0567  0.4594
  157SAPE  C31117583   4.946   4.428   9.214  0.1492 -0.2932 -0.3654
  157SAPE  H11X17584   4.946   4.318   9.201  0.2531 -0.1596 -1.6592
  157SAPE  H11Y17585   5.039   4.449   9.270  0.0287  0.2606 -0.3684
  157SAPE  C31217586   4.961   4.477   9.062  0.1119 -0.4110 -0.1412
  157SAPE  H12X17587   4.982   4.585   9.076 -0.8243 -0.3255  0.7853
  157SAPE  H12Y17588   4.859   4.466   9.019 -0.4988  2.6023  0.3643
  157SAPE  C31317589   5.062   4.388   8.982 -0.2269 -0.0361 -0.1587
  157SAPE  H13X17590   5.021   4.285   8.978 -1.6223  0.4551  0.6099
  157SAPE  H13Y17591   5.156   4.378   9.040  0.2123  2.0044 -0.4511
  157SAPE  C31417592   5.093   4.448   8.845  0.7001  0.0206 -0.0414
  157SAPE  H14X17593   5.138   4.549   8.857  0.7663  0.1488 -1.2523
  157SAPE  H14Y17594   4.996   4.457   8.793  1.2791  2.9629 -0.7832
  157SAPE  C31517595   5.189   4.364   8.765  0.4444 -0.2079  0.2397
  157SAPE  H15X17596   5.137   4.268   8.746  0.4578 -0.3623  0.9423
  157SAPE  H15Y17597   5.278   4.346   8.829  0.2329 -0.5238  0.4441
  157SAPE  C31617598   5.216   4.439   8.630  0.0326 -0.3914  0.2920
  157SAPE  H16X17599   5.280   4.525   8.660  0.6279  0.1298 -2.1972
  157SAPE  H16Y17600   5.122   4.478   8.585  1.4540  1.6869 -1.0819
  157SAPE  C31717601   5.294   4.344   8.536  0.4492  0.2521 -0.5204
  157SAPE  H17X17602   5.380   4.300   8.591 -2.4028 -5.2598  0.2467
  157SAPE  H17Y17603   5.339   4.403   8.453  1.0426 -1.2067 -1.2768
  157SAPE  C31817604   5.202   4.250   8.472 -0.3596  0.1713  0.2516
  157SAPE  H18X17605   5.255   4.184   8.400  2.0793  1.4152  0.8229
  157SAPE  H18Y17606   5.119   4.300   8.417 -0.2516  0.6093  0.4828
  157SAPE  H18Z17607   5.155   4.187   8.550 -1.7782  2.0357  0.9809
  158SAPE     N17608   6.133   4.702  11.147  0.1751 -0.5032  0.1481
  158SAPE   HN117609   6.163   4.765  11.070 -0.3523 -1.7950 -1.1711
  158SAPE   HN217610   6.031   4.715  11.160  0.5238  1.9301  0.9593
  158SAPE   HN317611   6.185   4.720  11.235  3.5180 -2.3360 -1.2589
  158SAPE   C1217612   6.155   4.559  11.097  0.5947 -0.4119  0.0694
  158SAPE  H12A17613   6.112   4.484  11.166  0.5814 -0.2487  0.2380
  158SAPE  H12B17614   6.264   4.559  11.078  0.3772  2.1906 -1.9417
  158SAPE   C1117615   6.098   4.541  10.954  0.0067 -0.8274 -0.1757
  158SAPE  H11A17616   5.994   4.580  10.945 -1.2667 -4.2025 -1.3694
  158SAPE  H11B17617   6.091   4.433  10.931 -1.3966 -0.8275  0.1456
  158SAPE     P17618   6.155   4.765  10.812 -0.3938 -0.4919  0.2157
  158SAPE   O1317619   6.011   4.778  10.765 -0.0671 -0.0719 -0.4595
  158SAPE   O1417620   6.197   4.856  10.923  0.1799  0.0856 -0.1248
  158SAPE   O1217621   6.183   4.612  10.854 -0.2146  0.0594  0.9198
  158SAPE   O1117622   6.246   4.799  10.680 -0.3971  0.2404  0.1469
  158SAPE    C117623   6.246   4.712  10.568 -0.0796 -0.4443  0.1162
  158SAPE    HA17624   6.340   4.724  10.511  0.4258  1.2262  1.2266
  158SAPE    HB17625   6.247   4.606  10.603 -1.2443 -0.2447  0.8098
  158SAPE    C217626   6.129   4.745  10.470 -0.4109  0.4654 -0.5840
  158SAPE    HS17627   6.040   4.703  10.523 -0.9748  1.0201 -1.0698
  158SAPE   O2117628   6.150   4.673  10.350  0.1931  0.0323 -0.9591
  158SAPE   C2117629   6.045   4.642  10.288  0.5674  0.0553 -0.4968
  158SAPE   O2217630   5.929   4.658  10.313 -0.3788  0.2427 -0.7443
  158SAPE   C2217631   6.088   4.558  10.167  0.1954 -0.0926  0.9031
  158SAPE   H2R17632   6.198   4.549  10.166  0.4902  2.3092 -2.4438
  158SAPE   H2S17633   6.047   4.455  10.178  0.0642 -0.3016 -1.1658
  158SAPE    C317634   6.111   4.898  10.451  0.5329  0.5878 -0.4435
  158SAPE    HX17635   6.063   4.923  10.548 -3.3793 -1.4100 -1.6506
  158SAPE    HY17636   6.029   4.921  10.380  0.2646 -0.1839 -0.3974
  158SAPE   O3117637   6.234   4.969  10.404 -0.1054 -0.3856 -0.1012
  158SAPE   C3117638   6.245   4.971  10.279 -0.9842  0.8004  0.1202
  158SAPE   O3217639   6.169   4.935  10.194 -0.0564  0.4939 -0.0453
  158SAPE   C3217640   6.376   5.045  10.244 -0.4824  0.5078 -0.1718
  158SAPE   H2X17641   6.454   4.968  10.228  1.6891  2.9948 -2.5095
  158SAPE   H2Y17642   6.414   5.101  10.332 -2.8104  0.8654  0.6697
  158SAPE   C2317643   6.032   4.620  10.039 -0.2813 -0.5334  0.2279
  158SAPE   H3R17644   6.079   4.721  10.038 -0.6518 -0.3361  1.4731
  158SAPE   H3S17645   5.923   4.638  10.049 -0.3405 -0.0660 -1.0962
  158SAPE   C2417646   6.045   4.534   9.911 -0.1628  0.2337 -0.4032
  158SAPE   H4R17647   5.991   4.583   9.827 -0.1421 -2.2159 -1.9252
  158SAPE   H4S17648   5.992   4.437   9.926  1.5875 -0.5243  1.2529
  158SAPE   C2517649   6.183   4.491   9.878  0.4447 -0.4514 -0.1745
  158SAPE   H5R17650   6.205   4.385   9.900 -1.5301 -1.0016 -0.6553
  158SAPE   C2617651   6.272   4.580   9.820  0.3176  0.3027 -0.1339
  158SAPE   H6R17652   6.370   4.543   9.787  0.0365  0.8920 -1.7512
  158SAPE   C2717653   6.240   4.719   9.777  0.3124 -0.3644  0.5602
  158SAPE   H7R17654   6.251   4.781   9.869 -0.4427 -0.5853  0.8045
  158SAPE   H7S17655   6.135   4.732   9.744  1.3455  1.0231 -2.5290
  158SAPE   C2817656   6.330   4.781   9.674 -0.2360  0.6055  0.0739
  158SAPE   H8R17657   6.424   4.821   9.712 -0.8189  0.8380  1.2994
  158SAPE   C2917658   6.305   4.782   9.540 -0.2219 -0.4402 -1.1847
  158SAPE   H9R17659   6.385   4.823   9.476  0.6169  0.0445  0.1349
  158SAPE  C21017660   6.190   4.719   9.464 -0.2705 -0.1096  0.5586
  158SAPE  H10R17661   6.207   4.772   9.368  0.5521 -2.0909 -0.4577
  158SAPE  H10S17662   6.094   4.751   9.509 -0.9468 -0.6180 -0.4849
  158SAPE  C21117663   6.193   4.570   9.443 -0.7512  0.3097  0.1970
  158SAPE  H11R17664   6.170   4.506   9.529  1.1659 -2.6702 -1.3208
  158SAPE  C21217665   6.245   4.497   9.338  0.6090 -0.3768 -0.8662
  158SAPE  H12R17666   6.256   4.388   9.347  0.2697 -0.2231  2.6989
  158SAPE  C21317667   6.286   4.560   9.212  0.5173  0.6616  1.1276
  158SAPE  H13R17668   6.355   4.490   9.160 -2.8188 -1.9403 -0.1790
  158SAPE  H13S17669   6.340   4.657   9.219  1.8660 -0.0469  0.8366
  158SAPE  C21417670   6.162   4.576   9.125 -0.3246  0.4686 -0.2493
  158SAPE  H14R17671   6.071   4.606   9.179 -1.0770 -0.5858 -0.8874
  158SAPE  C21517672   6.148   4.550   8.996  0.8144  0.4784  0.7460
  158SAPE  H15R17673   6.050   4.565   8.947  1.3392 -0.4234 -0.6363
  158SAPE  C21617674   6.259   4.508   8.908  0.2180 -0.5768 -0.2630
  158SAPE  H16R17675   6.231   4.438   8.826  2.5790 -3.0464  0.8913
  158SAPE  H16S17676   6.337   4.450   8.962  0.3985 -0.4363 -0.3696
  158SAPE  C21717677   6.325   4.625   8.820  0.3997 -0.0276 -0.5438
  158SAPE  H17R17678   6.402   4.597   8.745  1.5579  0.3871  0.4539
  158SAPE  H17S17679   6.384   4.685   8.893 -0.0522 -0.2557  0.0102
  158SAPE  C21817680   6.219   4.703   8.743 -0.0462 -0.5061  0.8256
  158SAPE  H18R17681   6.264   4.788   8.689  1.2115 -0.6638  1.5982
  158SAPE  H18S17682   6.147   4.751   8.814 -0.6351  1.1230 -0.7928
  158SAPE  C21917683   6.146   4.620   8.640 -0.3659  0.2242  0.1046
  158SAPE  H19R17684   6.053   4.674   8.616  0.6458  2.0003  0.0124
  158SAPE  H19S17685   6.112   4.519   8.674 -0.2584 -0.5529 -1.9646
  158SAPE  C22017686   6.221   4.599   8.508 -0.1919 -0.0966  0.0358
  158SAPE  H20R17687   6.159   4.527   8.450 -0.1504  0.0219 -0.1560
  158SAPE  H20S17688   6.322   4.555   8.523  0.1419  0.2378 -1.1295
  158SAPE  H20T17689   6.230   4.693   8.449 -0.2471 -1.5269 -2.3904
  158SAPE   C3317690   6.377   5.137  10.119 -0.0030 -0.4778  0.1390
  158SAPE   H3X17691   6.301   5.218  10.123 -1.0096 -1.2823 -1.5212
  158SAPE   H3Y17692   6.341   5.084  10.029 -2.2050  0.4582  0.4129
  158SAPE   C3417693   6.514   5.181  10.070  0.0772 -0.8080 -0.7671
  158SAPE   H4X17694   6.586   5.096  10.074 -0.4468 -1.2348  0.3368
  158SAPE   H4Y17695   6.541   5.259  10.145 -1.7668  1.3533 -2.2322
  158SAPE   C3517696   6.509   5.242   9.932  0.1347 -0.5663  0.3928
  158SAPE   H5X17697   6.460   5.342   9.927  0.7378 -0.1748  1.7596
  158SAPE   H5Y17698   6.460   5.176   9.857  3.0480 -0.1571 -2.0821
  158SAPE   C3617699   6.646   5.255   9.865 -0.2059 -0.4745  0.2057
  158SAPE   H6X17700   6.721   5.288   9.939  2.3157  0.7343 -2.6714
  158SAPE   H6Y17701   6.645   5.337   9.790 -2.0140 -0.9044 -0.2869
  158SAPE   C3717702   6.704   5.120   9.807  0.8372 -0.2867 -0.0375
  158SAPE   H7X17703   6.627   5.081   9.736 -0.4113 -2.6132  2.4198
  158SAPE   H7Y17704   6.722   5.052   9.893  3.2964  0.3677  0.0441
  158SAPE   C3817705   6.830   5.150   9.727  0.1544  0.1539 -0.3648
  158SAPE   H8X17706   6.904   5.196   9.796  0.0846 -1.3214  0.7293
  158SAPE   H8Y17707   6.806   5.221   9.645 -1.8486 -0.3405 -0.2553
  158SAPE   C3917708   6.907   5.026   9.675  0.2331  0.3175 -0.4900
  158SAPE   H9X17709   6.835   4.942   9.662  0.9195 -0.3028 -0.3320
  158SAPE   H9Y17710   6.970   4.983   9.755 -1.4830  1.5976  1.6827
  158SAPE  C31017711   6.982   5.049   9.541  1.2354  0.2837 -0.8131
  158SAPE  H10X17712   7.054   5.126   9.578  0.6235  0.6707 -0.4155
  158SAPE  H10Y17713   6.907   5.084   9.467  1.6716  0.2055 -1.3059
  158SAPE  C31117714   7.055   4.921   9.497  0.4904 -0.1965  0.6887
  158SAPE  H11X17715   6.995   4.841   9.449  0.2307  0.1491  0.4331
  158SAPE  H11Y17716   7.084   4.874   9.593 -2.6099 -2.9048  0.4689
  158SAPE  C31217717   7.188   4.946   9.417  1.0090  0.3783  0.5181
  158SAPE  H12X17718   7.238   4.848   9.404  0.7556 -0.2612  3.6456
  158SAPE  H12Y17719   7.252   5.021   9.469  2.1762  0.3540 -0.8225
  158SAPE  C31317720   7.148   4.982   9.274  0.5386 -0.3709 -0.1943
  158SAPE  H13X17721   7.085   5.073   9.279  0.7434 -0.2168 -0.4169
  158SAPE  H13Y17722   7.095   4.893   9.235 -0.2242 -0.4221  0.9005
  158SAPE  C31417723   7.277   5.005   9.187  0.3176 -0.0357 -0.4341
  158SAPE  H14X17724   7.339   4.922   9.226  2.9934  0.7891 -2.6325
  158SAPE  H14Y17725   7.302   5.107   9.222 -3.1299  0.1992  1.7590
  158SAPE  C31517726   7.255   4.983   9.039 -0.0842  0.6870 -0.3328
  158SAPE  H15X17727   7.232   4.881   9.002 -0.3184 -0.5723  2.9033
  158SAPE  H15Y17728   7.349   5.008   8.986  0.1538 -2.2093 -1.4754
  158SAPE  C31617729   7.147   5.087   8.987  0.2732 -0.3062 -0.1580
  158SAPE  H16X17730   7.113   5.151   9.071  1.9823 -0.1358  0.4460
  158SAPE  H16Y17731   7.053   5.039   8.951  0.0743  1.2532 -1.8695
  158SAPE  C31717732   7.186   5.169   8.861 -0.6021 -0.1820  0.1882
  158SAPE  H17X17733   7.284   5.220   8.873  0.6131 -1.4898 -3.1335
  158SAPE  H17Y17734   7.105   5.241   8.839 -1.7630 -1.8837 -1.3283
  158SAPE  C31817735   7.209   5.078   8.733 -0.1019 -0.4214  0.0916
  158SAPE  H18X17736   7.221   5.146   8.645  3.2733  1.4489  1.7629
  158SAPE  H18Y17737   7.123   5.010   8.717 -0.2168 -0.7109  1.7512
  158SAPE  H18Z17738   7.305   5.025   8.749  0.9679  2.2041  3.5156
  159SAPE     N17739   0.035   1.851   6.709 -0.6103 -0.5233 -0.6601
  159SAPE   HN117740   0.044   1.784   6.788 -0.9643 -0.7490 -0.8074
  159SAPE   HN217741  -0.021   1.933   6.741  1.1286  0.5525 -0.2262
  159SAPE   HN317742  -0.021   1.824   6.625 -1.8112  2.2180 -0.8606
  159SAPE   C1217743   0.167   1.902   6.669 -0.5470  0.4506  0.2432
  159SAPE  H12A17744   0.197   1.978   6.744  0.7112 -0.8968  1.1651
  159SAPE  H12B17745   0.165   1.955   6.572  0.7173 -2.5988 -1.5943
  159SAPE   C1117746   0.267   1.792   6.648 -0.6552  0.2023  0.7134
  159SAPE  H11A17747   0.294   1.745   6.745 -0.8943 -1.4141  0.0288
  159SAPE  H11B17748   0.362   1.831   6.607 -2.1565  1.0524 -2.2308
  159SAPE     P17749   0.197   1.538   6.575  0.3035  0.2556 -0.1858
  159SAPE   O1317750   0.133   1.493   6.450 -0.4022 -0.0553 -0.2053
  159SAPE   O1417751   0.323   1.467   6.609 -0.0633 -0.1266  0.9080
  159SAPE   O1217752   0.215   1.696   6.556  0.4627 -0.2124  0.2259
  159SAPE   O1117753   0.093   1.515   6.691  0.1660 -0.0491 -0.5283
  159SAPE    C117754   0.106   1.398   6.769 -0.1668 -0.6902 -0.2951
  159SAPE    HA17755   0.046   1.313   6.730 -0.6337 -0.1818 -0.7037
  159SAPE    HB17756   0.206   1.352   6.781 -0.1662 -0.2958  1.5246
  159SAPE    C217757   0.060   1.429   6.913  0.3562 -0.5497  0.0508
  159SAPE    HS17758  -0.030   1.494   6.916 -0.6177 -1.8705  1.8477
  159SAPE   O2117759   0.165   1.491   6.982 -0.4323  0.1060 -0.5614
  159SAPE   C2117760   0.177   1.620   6.972  1.0284  0.9275  0.1364
  159SAPE   O2217761   0.099   1.704   6.928 -0.3217 -0.5835  0.5742
  159SAPE   C2217762   0.312   1.659   7.034 -0.0463  0.0756 -0.4197
  159SAPE   H2R17763   0.318   1.614   7.135  2.1445  1.6301  0.2077
  159SAPE   H2S17764   0.393   1.604   6.980  0.6469  1.6904 -1.0876
  159SAPE    C317765   0.038   1.292   6.976 -0.4585  0.1370  0.0895
  159SAPE    HX17766   0.140   1.264   7.012  1.4001  4.9038 -0.6845
  159SAPE    HY17767   0.011   1.219   6.897  2.3181  0.1657 -0.9830
  159SAPE   O3117768  -0.062   1.305   7.077  0.1199  0.6716 -0.2221
  159SAPE   C3117769  -0.190   1.306   7.028  0.2741 -0.5354 -0.7571
  159SAPE   O3217770  -0.213   1.282   6.916 -0.9888  0.0748  0.2129
  159SAPE   C3217771  -0.298   1.337   7.138  0.4793  0.1281  0.2043
  159SAPE   H2X17772  -0.388   1.384   7.092  0.1632  1.0211  1.6477
  159SAPE   H2Y17773  -0.263   1.402   7.222  0.9286  0.2911 -0.1070
  159SAPE   C2317774   0.333   1.813   7.048  0.7214  0.5095 -0.4254
  159SAPE   H3R17775   0.317   1.870   6.954  2.1107 -0.3813 -1.2452
  159SAPE   H3S17776   0.440   1.825   7.075  1.7284 -0.8806 -3.3434
  159SAPE   C2417777   0.257   1.883   7.156 -0.2602  0.7129  0.4223
  159SAPE   H4R17778   0.154   1.868   7.116  0.1581  0.3449 -0.5386
  159SAPE   H4S17779   0.281   1.990   7.139 -1.3121  1.0254  0.7691
  159SAPE   C2517780   0.285   1.837   7.296 -0.7437 -0.8068 -0.3266
  159SAPE   H5R17781   0.309   1.731   7.308  1.1962 -0.5041 -1.2107
  159SAPE   C2617782   0.298   1.931   7.397  1.2523  0.4200  0.2769
  159SAPE   H6R17783   0.327   1.899   7.498 -1.7919 -0.1693  1.0869
  159SAPE   C2717784   0.273   2.079   7.380  0.3219  0.0390 -0.4459
  159SAPE   H7R17785   0.218   2.118   7.469 -0.3750 -0.1681 -0.7787
  159SAPE   H7S17786   0.203   2.101   7.297  0.5227  2.2200 -0.1028
  159SAPE   C2817787   0.400   2.164   7.365 -0.4729  0.6148  0.1560
  159SAPE   H8R17788   0.439   2.167   7.262 -0.8197  0.1607  0.0086
  159SAPE   C2917789   0.464   2.225   7.467 -0.0103 -0.3376 -0.0912
  159SAPE   H9R17790   0.555   2.283   7.447  0.3407 -1.0015 -0.4587
  159SAPE  C21017791   0.425   2.225   7.613  0.0336  0.1100 -0.0749
  159SAPE  H10R17792   0.389   2.121   7.626  1.8407 -0.9192 -2.5798
  159SAPE  H10S17793   0.349   2.306   7.617  0.8036  1.2149 -4.1346
  159SAPE  C21117794   0.547   2.255   7.709  0.1133  0.1616 -0.2080
  159SAPE  H11R17795   0.647   2.244   7.665 -0.8358 -1.0371 -2.1846
  159SAPE  C21217796   0.539   2.307   7.829 -0.0621  0.3889 -0.3208
  159SAPE  H12R17797   0.634   2.331   7.879  0.8079 -0.9663 -1.2565
  159SAPE  C21317798   0.416   2.338   7.910 -0.7895  0.0553  0.3026
  159SAPE  H13R17799   0.325   2.345   7.846 -0.8758  0.5170  0.4691
  159SAPE  H13S17800   0.416   2.444   7.944 -0.9099  1.1331 -2.6823
  159SAPE  C21417801   0.398   2.231   8.013  0.0849 -0.7552  0.2754
  159SAPE  H14R17802   0.403   2.132   7.964  2.8996 -1.4748  1.8138
  159SAPE  C21517803   0.376   2.241   8.146 -0.9575  0.6470 -0.2124
  159SAPE  H15R17804   0.364   2.154   8.212  1.4754  1.2190  1.0759
  159SAPE  C21617805   0.388   2.372   8.227  0.8331 -0.5353  0.3443
  159SAPE  H16R17806   0.289   2.421   8.237  0.3873 -1.7877  2.7093
  159SAPE  H16S17807   0.464   2.445   8.191  0.3811  0.2926  1.0301
  159SAPE  C21717808   0.424   2.353   8.379 -0.6414 -0.2150 -0.4879
  159SAPE  H17R17809   0.483   2.264   8.410  1.1970  0.9540 -0.4803
  159SAPE  H17S17810   0.324   2.343   8.426 -0.7327 -0.3183 -0.7074
  159SAPE  C21817811   0.467   2.492   8.430 -0.0191  0.3185 -0.3231
  159SAPE  H18R17812   0.383   2.564   8.419  1.5529  2.4211  0.7824
  159SAPE  H18S17813   0.550   2.535   8.370 -0.1813  2.6480  1.0063
  159SAPE  C21917814   0.503   2.488   8.578  0.3072  0.1741 -0.2671
  159SAPE  H19R17815   0.579   2.407   8.581 -0.9317 -1.0369 -0.3352
  159SAPE  H19S17816   0.413   2.450   8.632  0.8669 -0.1436  0.4620
  159SAPE  C22017817   0.541   2.617   8.651  0.0022  0.7622  0.5275
  159SAPE  H20R17818   0.547   2.607   8.762 -0.2619 -2.1473  0.3384
  159SAPE  H20S17819   0.473   2.705   8.638 -0.0001  0.9636  1.7830
  159SAPE  H20T17820   0.636   2.658   8.611 -0.3280 -0.0503 -1.1891
  159SAPE   C3317821  -0.351   1.211   7.222  1.2022 -0.0619  1.1109
  159SAPE   H3X17822  -0.390   1.134   7.153 -0.7845 -0.1132  2.2243
  159SAPE   H3Y17823  -0.433   1.260   7.279 -0.8965 -2.8468  0.6599
  159SAPE   C3417824  -0.260   1.160   7.332 -0.2930 -0.4825  0.4409
  159SAPE   H4X17825  -0.177   1.233   7.343 -0.9752  0.6707 -1.5689
  159SAPE   H4Y17826  -0.204   1.081   7.279  3.7154  1.8333  0.8398
  159SAPE   C3517827  -0.326   1.123   7.455  0.2281 -0.4398 -0.2523
  159SAPE   H5X17828  -0.412   1.057   7.432 -1.0438  0.7290  0.9392
  159SAPE   H5Y17829  -0.378   1.213   7.494  1.8069  1.0925 -1.5085
  159SAPE   C3617830  -0.240   1.069   7.573 -0.0433 -0.4538 -0.2075
  159SAPE   H6X17831  -0.146   1.128   7.578 -0.5362  0.4820 -1.5165
  159SAPE   H6Y17832  -0.209   0.965   7.547  0.1255  0.0389 -2.1063
  159SAPE   C3717833  -0.314   1.078   7.707 -0.3832 -0.0763 -0.3579
  159SAPE   H7X17834  -0.415   1.031   7.708 -1.8491  2.7576  2.2935
  159SAPE   H7Y17835  -0.338   1.186   7.720  1.3926  0.5955 -2.1591
  159SAPE   C3817836  -0.241   1.019   7.823  0.2444 -0.6961 -0.2417
  159SAPE   H8X17837  -0.135   1.052   7.830  0.2542 -0.1071 -2.3779
  159SAPE   H8Y17838  -0.233   0.913   7.793  0.8836 -1.4411  2.3278
  159SAPE   C3917839  -0.316   1.041   7.958  0.5606  0.0381 -0.6381
  159SAPE   H9X17840  -0.423   1.069   7.951  0.8941  1.7490  0.3881
  159SAPE   H9Y17841  -0.259   1.126   8.002  1.5346 -0.7263 -0.3949
  159SAPE  C31017842  -0.301   0.931   8.070 -0.2789  0.0557 -0.1003
  159SAPE  H10X17843  -0.194   0.921   8.095 -0.4745 -0.5392  0.5506
  159SAPE  H10Y17844  -0.344   0.834   8.036 -0.3004 -0.5224  1.4934
  159SAPE  C31117845  -0.389   0.963   8.192 -0.1299 -0.9406 -0.2900
  159SAPE  H11X17846  -0.496   0.958   8.164 -0.3647 -0.1286  0.4483
  159SAPE  H11Y17847  -0.378   1.071   8.215 -0.9455 -1.0646  0.7504
  159SAPE  C31217848  -0.356   0.883   8.326  0.4837  0.3866 -0.4553
  159SAPE  H12X17849  -0.396   0.782   8.306  1.4022 -0.0232 -0.2841
  159SAPE  H12Y17850  -0.420   0.946   8.392  1.3931  1.3490 -0.4583
  159SAPE  C31317851  -0.209   0.846   8.362 -0.5591 -0.2481 -0.7942
  159SAPE  H13X17852  -0.183   0.761   8.295 -1.2105 -1.8018  0.8346
  159SAPE  H13Y17853  -0.201   0.796   8.461  1.8386 -0.9706 -1.2707
  159SAPE  C31417854  -0.110   0.959   8.352  0.6535  0.1891 -0.3565
  159SAPE  H14X17855  -0.126   1.033   8.433 -1.2539  0.1118 -0.6175
  159SAPE  H14Y17856  -0.126   1.012   8.256  0.0860  1.5816  0.4725
  159SAPE  C31517857   0.031   0.909   8.328  0.1832 -0.1839 -0.2757
  159SAPE  H15X17858   0.023   0.895   8.218 -1.3129 -0.1749 -0.1980
  159SAPE  H15Y17859   0.060   0.822   8.391  0.7065  1.3119  1.6650
  159SAPE  C31617860   0.135   1.030   8.351  2.0736  0.6648  0.1970
  159SAPE  H16X17861   0.089   1.127   8.324  0.9162 -0.0923 -0.6810
  159SAPE  H16Y17862   0.223   1.012   8.285  1.7990  0.1348 -0.0389
  159SAPE  C31717863   0.172   1.055   8.493 -0.2444  0.3572  0.0336
  159SAPE  H17X17864   0.239   0.970   8.520  0.0517 -0.4495 -2.9027
  159SAPE  H17Y17865   0.087   1.047   8.565  1.0060  1.1552  1.6641
  159SAPE  C31817866   0.239   1.187   8.513  0.3596  0.4513  0.0861
  159SAPE  H18X17867   0.194   1.281   8.476  0.4016  1.2565  2.0020
  159SAPE  H18Y17868   0.340   1.185   8.465  0.7806  0.7570  0.9432
  159SAPE  H18Z17869   0.244   1.201   8.623 -0.9494  0.5318  0.1414
  160SAPE     N17870   4.902   3.530   6.508  0.0523 -0.2809 -0.2731
  160SAPE   HN117871   4.988   3.483   6.472  1.2463  1.5665 -0.0209
  160SAPE   HN217872   4.898   3.530   6.612  2.0832  2.7685 -0.0567
  160SAPE   HN317873   4.831   3.476   6.456  1.0506 -0.0944 -1.8954
  160SAPE   C1217874   4.926   3.674   6.480 -0.4840 -0.4459  0.1132
  160SAPE  H12A17875   4.937   3.692   6.371  1.2246  0.4098  0.3882
  160SAPE  H12B17876   5.021   3.703   6.529  0.4063 -2.5679 -0.2513
  160SAPE   C1117877   4.806   3.763   6.518 -0.7679 -0.1895 -0.2750
  160SAPE  H11A17878   4.827   3.870   6.495 -1.9312  0.5201  1.6692
  160SAPE  H11B17879   4.796   3.760   6.629 -1.0693  2.5095 -0.1554
  160SAPE     P17880   4.553   3.814   6.488 -0.5909  0.2394 -0.0619
  160SAPE   O1317881   4.565   3.946   6.424 -0.5187  0.0205 -0.3553
  160SAPE   O1417882   4.430   3.739   6.442 -0.2028  0.3146  0.4487
  160SAPE   O1217883   4.682   3.723   6.458 -0.1484 -0.3727  0.1417
  160SAPE   O1117884   4.568   3.828   6.644  0.0563  0.1400  0.4458
  160SAPE    C117885   4.516   3.727   6.733  0.5925  0.1082 -0.0051
  160SAPE    HA17886   4.540   3.624   6.698 -1.7825 -1.0540  1.5646
  160SAPE    HB17887   4.577   3.727   6.825  0.1796 -0.1273  0.2703
  160SAPE    C217888   4.362   3.726   6.762 -0.3118  0.8089  0.0468
  160SAPE    HS17889   4.311   3.717   6.664 -0.4732 -0.9099  0.2559
  160SAPE   O2117890   4.313   3.826   6.849  0.1164  0.2503 -0.3895
  160SAPE   C2117891   4.310   3.947   6.793 -0.1983  1.1348 -0.2517
  160SAPE   O2217892   4.315   3.968   6.673 -0.0722 -0.1620  0.6712
  160SAPE   C2217893   4.287   4.061   6.895 -0.1147 -0.0652  0.3820
  160SAPE   H2R17894   4.333   4.153   6.851 -0.5257 -0.6351 -1.3011
  160SAPE   H2S17895   4.182   4.090   6.876  0.4898  0.9790 -1.7386
  160SAPE    C317896   4.329   3.588   6.837  0.4400  0.1345 -0.3630
  160SAPE    HX17897   4.361   3.511   6.763  2.3442 -0.1437  0.6829
  160SAPE    HY17898   4.221   3.569   6.846  0.5087  0.0080  0.2197
  160SAPE   O3117899   4.387   3.578   6.970  0.1117 -0.1358  0.4374
  160SAPE   C3117900   4.315   3.605   7.078 -0.3445 -0.7368 -0.3463
  160SAPE   O3217901   4.196   3.621   7.082  0.7318  0.4486 -0.0913
  160SAPE   C3217902   4.396   3.638   7.196  0.5337  0.2847  0.4864
  160SAPE   H2X17903   4.479   3.705   7.166  0.2632  0.5922  0.4192
  160SAPE   H2Y17904   4.433   3.538   7.228  0.9137 -0.1476 -1.2273
  160SAPE   C2317905   4.295   4.030   7.049 -0.0155  0.1369 -0.8933
  160SAPE   H3R17906   4.388   3.981   7.086 -1.3893 -1.3942  0.7467
  160SAPE   H3S17907   4.212   3.957   7.065 -1.6731  2.2305  0.6113
  160SAPE   C2417908   4.257   4.145   7.137  0.0950 -0.0772 -0.6036
  160SAPE   H4R17909   4.156   4.174   7.102 -2.2669 -2.6258  3.2883
  160SAPE   H4S17910   4.333   4.226   7.123 -0.4317  0.3958 -0.7426
  160SAPE   C2517911   4.252   4.088   7.276  0.7144  0.4231 -0.8268
  160SAPE   H5R17912   4.335   4.021   7.299 -1.2028 -1.8599 -0.1734
  160SAPE   C2617913   4.170   4.129   7.381  0.5898  0.3890 -0.0693
  160SAPE   H6R17914   4.174   4.078   7.478  0.3393  2.2831  0.9859
  160SAPE   C2717915   4.068   4.239   7.369 -0.4385 -0.2489  0.5230
  160SAPE   H7R17916   4.091   4.311   7.287  0.0081 -0.5749  0.3569
  160SAPE   H7S17917   4.077   4.303   7.459  0.7737 -1.1296  1.0569
  160SAPE   C2817918   3.921   4.193   7.377  0.4693  0.6180 -0.1582
  160SAPE   H8R17919   3.882   4.134   7.294 -0.6031  0.7991  0.2026
  160SAPE   C2917920   3.834   4.222   7.475  0.0816 -0.2354 -0.3816
  160SAPE   H9R17921   3.728   4.198   7.457 -0.1398 -0.5473  1.2228
  160SAPE  C21017922   3.859   4.287   7.606  0.3608  0.0116 -0.1171
  160SAPE  H10R17923   3.768   4.313   7.665  2.5512 -0.6690  3.9190
  160SAPE  H10S17924   3.924   4.377   7.597  3.3937 -2.0852 -0.9459
  160SAPE  C21117925   3.934   4.188   7.693  0.7248 -0.9772 -0.3159
  160SAPE  H11R17926   3.898   4.084   7.697  0.3673 -0.8388  0.2431
  160SAPE  C21217927   4.041   4.214   7.773  1.0365 -0.3946 -0.5192
  160SAPE  H12R17928   4.082   4.133   7.836  1.5750  1.1646  1.2381
  160SAPE  C21317929   4.110   4.350   7.784  0.7576 -0.7359  0.2033
  160SAPE  H13R17930   4.126   4.386   7.681  1.0177  0.1500  0.5515
  160SAPE  H13S17931   4.210   4.340   7.832 -0.0210 -2.0644  1.6491
  160SAPE  C21417932   4.037   4.444   7.873  0.6717  0.3405 -0.6475
  160SAPE  H14R17933   3.984   4.518   7.812  1.2304  0.2207 -1.2872
  160SAPE  C21517934   4.034   4.437   8.008 -0.0166 -0.1061  0.1425
  160SAPE  H15R17935   3.959   4.497   8.063  1.4696  1.2744  0.7415
  160SAPE  C21617936   4.106   4.343   8.096  0.1732  0.8267 -0.0912
  160SAPE  H16R17937   4.213   4.344   8.068  0.0982 -0.9548 -0.5582
  160SAPE  H16S17938   4.075   4.240   8.067  1.9382  0.5632 -1.1669
  160SAPE  C21717939   4.103   4.358   8.254 -0.2770  0.0189  0.1195
  160SAPE  H17R17940   4.159   4.279   8.309  0.0570  0.0854 -0.1188
  160SAPE  H17S17941   3.998   4.339   8.285 -0.9186 -0.7007 -2.2287
  160SAPE  C21817942   4.138   4.508   8.295 -0.1302 -0.1408 -0.0605
  160SAPE  H18R17943   4.056   4.578   8.266  0.1651 -0.5065 -1.8544
  160SAPE  H18S17944   4.227   4.544   8.240 -1.3059  1.8737 -0.7705
  160SAPE  C21917945   4.167   4.511   8.446 -0.4663 -0.7790 -0.4095
  160SAPE  H19R17946   4.258   4.452   8.470 -1.1785 -1.5547  0.4064
  160SAPE  H19S17947   4.078   4.480   8.504  0.8924 -1.1988  1.5259
  160SAPE  C22017948   4.197   4.659   8.492 -0.0662  0.2244  0.4545
  160SAPE  H20R17949   4.305   4.674   8.512  0.5137 -1.8623 -0.8093
  160SAPE  H20S17950   4.146   4.674   8.590 -0.4736  1.3271  0.0859
  160SAPE  H20T17951   4.161   4.734   8.418  0.2219  1.2675  1.3460
  160SAPE   C3317952   4.320   3.694   7.318  0.1072 -0.6371 -0.3407
  160SAPE   H3X17953   4.258   3.609   7.355  1.3336 -1.4015  0.0161
  160SAPE   H3Y17954   4.258   3.781   7.288  1.0149 -0.5128 -1.9715
  160SAPE   C3417955   4.411   3.728   7.440  0.4060  0.6596  1.3667
  160SAPE   H4X17956   4.478   3.810   7.405  0.7709 -0.3959 -0.5417
  160SAPE   H4Y17957   4.476   3.640   7.459 -0.9660 -0.2858  1.8291
  160SAPE   C3517958   4.331   3.770   7.569 -0.0365 -0.6715 -0.0851
  160SAPE   H5X17959   4.255   3.693   7.595 -0.4416 -0.9512 -1.9552
  160SAPE   H5Y17960   4.277   3.863   7.542  0.7423  0.0312  0.7479
  160SAPE   C3617961   4.421   3.805   7.688 -0.5136 -0.2625 -0.0205
  160SAPE   H6X17962   4.507   3.867   7.658 -0.2345  0.3911  1.9726
  160SAPE   H6Y17963   4.467   3.713   7.731 -0.9460 -1.4326 -1.9265
  160SAPE   C3717964   4.338   3.868   7.803  0.0006  0.7529 -0.5295
  160SAPE   H7X17965   4.260   3.791   7.817  2.0970 -1.4240 -0.0395
  160SAPE   H7Y17966   4.305   3.965   7.760 -0.5280  1.0829  0.5818
  160SAPE   C3817967   4.424   3.862   7.932  0.3586 -0.0166 -0.6356
  160SAPE   H8X17968   4.515   3.927   7.924  0.0067  0.6642  0.6396
  160SAPE   H8Y17969   4.465   3.760   7.948 -0.1509 -0.0454  0.5616
  160SAPE   C3917970   4.355   3.926   8.059 -0.6013 -0.9503 -0.5087
  160SAPE   H9X17971   4.353   4.036   8.045 -0.1905 -0.7871  0.6511
  160SAPE   H9Y17972   4.406   3.902   8.155 -4.3959 -0.3306  1.8690
  160SAPE  C31017973   4.212   3.882   8.080 -0.5221 -0.5353 -0.2574
  160SAPE  H10X17974   4.203   3.772   8.071 -0.0023 -0.8095  2.0459
  160SAPE  H10Y17975   4.153   3.931   7.999  1.6122  3.7416  0.5170
  160SAPE  C31117976   4.151   3.936   8.214 -0.7292 -0.0117  0.0459
  160SAPE  H11X17977   4.216   4.021   8.244  1.8200 -1.8191 -0.0628
  160SAPE  H11Y17978   4.160   3.860   8.294  1.6324 -1.3977 -1.4107
  160SAPE  C31217979   4.007   3.979   8.212  0.4412  0.5562 -0.4280
  160SAPE  H12X17980   3.960   3.889   8.168  1.1925  0.3869 -0.8925
  160SAPE  H12Y17981   3.982   4.067   8.148  0.8035  1.1358  0.2178
  160SAPE  C31317982   3.963   4.021   8.351  0.1041  0.0809 -0.2602
  160SAPE  H13X17983   4.035   4.096   8.389  1.4760 -1.0259 -0.6111
  160SAPE  H13Y17984   3.967   3.928   8.412  0.0496  0.7525  0.8097
  160SAPE  C31417985   3.812   4.069   8.359  0.0500  0.3398 -0.1107
  160SAPE  H14X17986   3.751   3.982   8.327  0.1289 -0.1563  1.0413
  160SAPE  H14Y17987   3.788   4.150   8.287 -1.1375 -0.3830 -0.5703
  160SAPE  C31517988   3.768   4.118   8.504  1.0767  0.7374 -0.5408
  160SAPE  H15X17989   3.828   4.055   8.573 -0.5966  1.2558  1.4588
  160SAPE  H15Y17990   3.662   4.089   8.521  2.0677 -1.6492  2.4845
  160SAPE  C31617991   3.793   4.262   8.532  0.5111  0.8037  0.3067
  160SAPE  H16X17992   3.709   4.324   8.497 -0.9815 -2.0958 -1.6378
  160SAPE  H16Y17993   3.879   4.293   8.469 -0.8029  1.7397 -1.0854
  160SAPE  C31717994   3.811   4.303   8.684  0.2182  0.2411  0.7535
  160SAPE  H17X17995   3.709   4.288   8.724 -0.2860 -2.2252 -1.1872
  160SAPE  H17Y17996   3.847   4.408   8.692 -0.7089  0.7672 -1.2846
  160SAPE  C31817997   3.915   4.224   8.760 -0.1582  0.6025 -0.0281
  160SAPE  H18X17998   3.915   4.261   8.865 -0.9349  3.2806 -0.8907
  160SAPE  H18Y17999   4.013   4.212   8.710 -1.5812  0.6677 -3.0875
  160SAPE  H18Z18000   3.874   4.121   8.765  1.8336 -0.4438 -2.8415
  161SAPE     N18001   6.718   0.490   6.267 -0.1866 -0.2132 -0.2006
  161SAPE   HN118002   6.719   0.435   6.179 -0.0290  0.7550 -0.8089
  161SAPE   HN218003   6.740   0.590   6.251 -2.7562  0.8666  2.1117
  161SAPE   HN318004   6.802   0.454   6.317  0.3790  0.3674 -0.7240
  161SAPE   C1218005   6.592   0.482   6.339  0.6456  0.0592 -0.0475
  161SAPE  H12A18006   6.515   0.538   6.283  2.6242 -0.2789 -3.3879
  161SAPE  H12B18007   6.615   0.542   6.430  2.1758 -1.5956  0.7221
  161SAPE   C1118008   6.547   0.339   6.380  0.1169  0.4323 -0.4264
  161SAPE  H11A18009   6.519   0.281   6.290  0.6516  0.9497 -0.9362
  161SAPE  H11B18010   6.465   0.356   6.452  2.4530  1.3992  2.1920
  161SAPE     P18011   6.690   0.129   6.473  0.1059 -0.0492 -0.0984
  161SAPE   O1318012   6.628   0.060   6.359 -0.3594 -0.2745  0.3663
  161SAPE   O1418013   6.833   0.106   6.489  0.4410  0.3944  0.2965
  161SAPE   O1218014   6.651   0.288   6.463 -0.4859  0.2409 -0.1227
  161SAPE   O1118015   6.614   0.092   6.607 -0.5053 -0.0635  0.2167
  161SAPE    C118016   6.472   0.104   6.615  0.4529 -0.4558  0.3053
  161SAPE    HA18017   6.443   0.211   6.607  0.7782 -0.3931 -0.0671
  161SAPE    HB18018   6.420   0.054   6.531 -0.9446  2.3186 -0.5882
  161SAPE    C218019   6.417   0.052   6.749  0.1250  0.4546 -1.3849
  161SAPE    HS18020   6.307   0.059   6.756  0.1834  0.0449  0.5141
  161SAPE   O2118021   6.479   0.117   6.864  0.5989 -0.3265  0.7113
  161SAPE   C2118022   6.412   0.221   6.911 -0.3947  0.1708 -0.3311
  161SAPE   O2218023   6.300   0.257   6.882  0.1370  0.4510 -0.0458
  161SAPE   C2218024   6.487   0.272   7.033 -0.1868  0.0593  0.2572
  161SAPE   H2R18025   6.586   0.222   7.045 -0.8207 -1.1032  0.7788
  161SAPE   H2S18026   6.502   0.380   7.010  1.6968 -0.0994  0.5346
  161SAPE    C318027   6.450  -0.098   6.762 -0.7123 -0.8411 -1.1700
  161SAPE    HX18028   6.560  -0.104   6.751 -0.2958 -1.0377  2.1543
  161SAPE    HY18029   6.396  -0.158   6.684 -0.9736 -1.3686 -0.5949
  161SAPE   O3118030   6.411  -0.140   6.894  0.3493  0.2446 -0.6158
  161SAPE   C3118031   6.290  -0.177   6.912 -0.2667  0.4490 -0.7277
  161SAPE   O3218032   6.193  -0.151   6.844 -0.6969  0.3194 -0.0611
  161SAPE   C3218033   6.288  -0.257   7.037  0.6867 -0.5039  0.2973
  161SAPE   H2X18034   6.363  -0.215   7.108  0.9881  1.2968 -1.0142
  161SAPE   H2Y18035   6.318  -0.361   7.015  1.5499 -0.6756  2.0832
  161SAPE   C2318036   6.406   0.251   7.164 -0.0634 -0.1709  0.3606
  161SAPE   H3R18037   6.308   0.302   7.146  0.5871  0.5903 -1.1859
  161SAPE   H3S18038   6.459   0.303   7.247  3.7181 -0.9170 -1.3900
  161SAPE   C2418039   6.387   0.100   7.203 -0.6458 -0.2862  0.1566
  161SAPE   H4R18040   6.362   0.042   7.112 -2.0335  1.3660 -0.5549
  161SAPE   H4S18041   6.299   0.091   7.269  0.7680  0.3328  2.2308
  161SAPE   C2518042   6.502   0.037   7.265 -0.3043 -0.3086 -1.2402
  161SAPE   H5R18043   6.585   0.001   7.203  0.1602 -0.5600 -0.4876
  161SAPE   C2618044   6.513   0.005   7.396 -0.1772 -0.3156 -0.5886
  161SAPE   H6R18045   6.605  -0.038   7.438 -0.7889  0.9573  2.3042
  161SAPE   C2718046   6.414   0.035   7.502  0.5165 -0.4909  0.0098
  161SAPE   H7R18047   6.338  -0.046   7.499  1.1236 -1.0465 -0.7680
  161SAPE   H7S18048   6.340   0.116   7.485 -0.6941 -1.7026 -0.6447
  161SAPE   C2818049   6.467   0.063   7.645  0.0792  0.4834 -0.1197
  161SAPE   H8R18050   6.415   0.019   7.731  1.9675  2.2580  2.0428
  161SAPE   C2918051   6.571   0.143   7.683 -0.3203  0.4308  0.1328
  161SAPE   H9R18052   6.594   0.148   7.790 -0.3327  0.3092  0.1405
  161SAPE  C21018053   6.667   0.227   7.603 -0.2586 -0.2057 -0.4376
  161SAPE  H10R18054   6.694   0.173   7.509  0.3647  0.1886 -0.4895
  161SAPE  H10S18055   6.754   0.248   7.669 -1.6049 -0.1511  1.3733
  161SAPE  C21118056   6.590   0.354   7.568  0.8687  0.3384 -0.2376
  161SAPE  H11R18057   6.500   0.331   7.509  1.0946 -0.1112 -0.4170
  161SAPE  C21218058   6.617   0.483   7.601 -0.6948  0.0083 -0.0829
  161SAPE  H12R18059   6.545   0.560   7.567 -0.2792 -0.2314 -1.5675
  161SAPE  C21318060   6.736   0.539   7.677  0.9034  0.4817  0.8279
  161SAPE  H13R18061   6.776   0.462   7.747 -1.8651 -1.5869  0.3234
  161SAPE  H13S18062   6.709   0.626   7.740 -1.1576  1.3609 -1.1287
  161SAPE  C21418063   6.851   0.586   7.586 -0.1268  0.3748 -0.5335
  161SAPE  H14R18064   6.913   0.509   7.538 -1.2332 -0.3426 -0.8472
  161SAPE  C21518065   6.883   0.712   7.554 -0.4800 -0.5414 -0.5769
  161SAPE  H15R18066   6.951   0.728   7.469  0.0540 -2.0039 -0.4585
  161SAPE  C21618067   6.816   0.845   7.605 -0.6392  0.1365 -0.2250
  161SAPE  H16R18068   6.737   0.822   7.679 -0.8914  1.4598 -0.0691
  161SAPE  H16S18069   6.760   0.882   7.517  0.7476 -0.2920 -1.3350
  161SAPE  C21718070   6.924   0.943   7.667  0.3464 -0.1715  0.2372
  161SAPE  H17R18071   6.870   1.035   7.697  1.7129  1.1723 -1.1947
  161SAPE  H17S18072   6.990   0.961   7.580  0.4991 -1.2316  0.1226
  161SAPE  C21818073   6.996   0.887   7.790  0.4209  0.6787  0.0259
  161SAPE  H18R18074   7.044   0.792   7.758  0.2895  0.1486  1.3152
  161SAPE  H18S18075   6.928   0.858   7.873  0.7904 -1.9645 -0.5128
  161SAPE  C21918076   7.117   0.963   7.842  0.5224 -0.5896  0.0339
  161SAPE  H19R18077   7.096   1.072   7.843  2.8080 -0.1079 -0.1551
  161SAPE  H19S18078   7.192   0.960   7.761 -1.7220  1.9437 -2.3305
  161SAPE  C22018079   7.179   0.901   7.968  0.5791  0.0384 -0.0108
  161SAPE  H20R18080   7.279   0.939   7.997 -0.2402  1.6479  0.8627
  161SAPE  H20S18081   7.194   0.794   7.942 -0.2801  0.1343 -0.9944
  161SAPE  H20T18082   7.110   0.914   8.054 -0.3252 -1.8118 -0.3944
  161SAPE   C3318083   6.149  -0.264   7.105  0.0825 -0.2882  0.3592
  161SAPE   H3X18084   6.080  -0.319   7.037  0.6733  0.4260 -0.8489
  161SAPE   H3Y18085   6.114  -0.161   7.125  1.3438  0.4016 -0.8319
  161SAPE   C3418086   6.151  -0.352   7.228 -0.0376 -0.4753 -0.5473
  161SAPE   H4X18087   6.207  -0.446   7.212  0.3166 -0.3571 -0.0390
  161SAPE   H4Y18088   6.048  -0.389   7.248 -0.8349  0.5737 -2.4257
  161SAPE   C3518089   6.203  -0.278   7.353  0.4306  0.8812 -0.9421
  161SAPE   H5X18090   6.135  -0.192   7.372 -0.6290 -0.3473  1.2464
  161SAPE   H5Y18091   6.299  -0.236   7.316  0.7590  2.6273  1.5923
  161SAPE   C3618092   6.209  -0.376   7.477  0.2828 -0.2577  0.3276
  161SAPE   H6X18093   6.275  -0.461   7.450  1.2893  1.0603 -1.6033
  161SAPE   H6Y18094   6.108  -0.411   7.508 -0.7757  0.0975 -2.4711
  161SAPE   C3718095   6.256  -0.297   7.602 -0.4055 -0.4004 -0.4947
  161SAPE   H7X18096   6.183  -0.216   7.624 -0.4217 -0.2466 -1.1005
  161SAPE   H7Y18097   6.357  -0.252   7.592 -0.3788 -0.6652 -1.4701
  161SAPE   C3818098   6.289  -0.376   7.736  0.3435 -0.7509  0.4983
  161SAPE   H8X18099   6.370  -0.446   7.704  1.4722  0.4900  0.5702
  161SAPE   H8Y18100   6.197  -0.435   7.757  0.8145 -2.3753 -1.6777
  161SAPE   C3918101   6.342  -0.270   7.834  0.4272  0.4844  0.3521
  161SAPE   H9X18102   6.277  -0.180   7.842  0.5854  0.6674 -0.3618
  161SAPE   H9Y18103   6.438  -0.232   7.791  1.9942 -2.1049  1.3372
  161SAPE  C31018104   6.372  -0.326   7.970 -0.5782 -0.6042 -0.2875
  161SAPE  H10X18105   6.413  -0.429   7.961  0.4601 -0.1694 -0.6561
  161SAPE  H10Y18106   6.280  -0.324   8.033 -1.6154  1.0565 -1.7827
  161SAPE  C31118107   6.483  -0.242   8.032  0.6355  0.0403 -0.0788
  161SAPE  H11X18108   6.579  -0.250   7.977  1.0545 -1.3865  0.8149
  161SAPE  H11Y18109   6.508  -0.293   8.127  2.5802  0.4928 -0.3105
  161SAPE  C31218110   6.439  -0.094   8.078 -0.0349  0.3318  0.6019
  161SAPE  H12X18111   6.357  -0.106   8.152  0.0394  0.4447  0.7040
  161SAPE  H12Y18112   6.396  -0.036   7.994 -0.8033  0.4387  1.0593
  161SAPE  C31318113   6.551  -0.007   8.149  0.3218 -0.1346  0.3086
  161SAPE  H13X18114   6.579  -0.068   8.237 -0.9289 -1.0854  0.0787
  161SAPE  H13Y18115   6.513   0.088   8.191  0.0366  0.5936 -1.5013
  161SAPE  C31418116   6.676   0.017   8.064  0.7799 -0.0091  0.0438
  161SAPE  H14X18117   6.634   0.044   7.965 -0.1429 -4.0696 -0.8776
  161SAPE  H14Y18118   6.724  -0.081   8.042 -1.9671 -1.3346 -0.3761
  161SAPE  C31518119   6.770   0.120   8.128 -0.4514  0.3312 -0.6230
  161SAPE  H15X18120   6.804   0.101   8.232  1.9104  0.7748 -1.2403
  161SAPE  H15Y18121   6.719   0.217   8.143 -0.3148  0.4594 -0.9701
  161SAPE  C31618122   6.904   0.138   8.048 -0.0325  0.3462  0.1362
  161SAPE  H16X18123   6.942   0.034   8.041  3.8430  1.4891  1.8115
  161SAPE  H16Y18124   6.984   0.191   8.103  1.4342 -1.5570 -0.0426
  161SAPE  C31718125   6.884   0.193   7.903 -0.5255  0.5508  0.1096
  161SAPE  H17X18126   6.822   0.285   7.916 -3.0252 -0.8648 -1.1017
  161SAPE  H17Y18127   6.815   0.128   7.846 -1.1197  1.3180 -0.0713
  161SAPE  C31818128   7.011   0.220   7.822  0.2178 -0.5928 -0.3540
  161SAPE  H18X18129   6.997   0.282   7.731 -1.3633 -1.6002 -0.8427
  161SAPE  H18Y18130   7.037   0.118   7.787  1.1347 -0.0344 -1.3685
  161SAPE  H18Z18131   7.086   0.271   7.887 -1.6426  1.0341  0.6428
  162SAPE     N18132   5.342   4.639   6.118  0.6119  0.0407  0.3054
  162SAPE   HN118133   5.399   4.610   6.036  0.5613  0.7912 -0.0025
  162SAPE   HN218134   5.395   4.609   6.203  0.5946  1.9527  1.0452
  162SAPE   HN318135   5.255   4.582   6.117  0.4898  0.2058  0.8832
  162SAPE   C1218136   5.313   4.784   6.118 -0.2659 -0.1616 -0.0074
  162SAPE  H12A18137   5.299   4.811   6.011  0.8703  1.0343  0.1133
  162SAPE  H12B18138   5.408   4.839   6.135  0.0517 -0.3972 -0.9836
  162SAPE   C1118139   5.187   4.821   6.199  0.0217  0.2297  0.8250
  162SAPE  H11A18140   5.167   4.930   6.201 -0.9972  0.2662 -3.1676
  162SAPE  H11B18141   5.192   4.795   6.307 -0.3695  2.0654  1.3147
  162SAPE     P18142   4.991   4.646   6.157 -0.0338  0.1208 -0.2386
  162SAPE   O1318143   4.869   4.654   6.075  0.3459 -0.4466 -0.1651
  162SAPE   O1418144   5.081   4.529   6.130 -0.2094 -0.3465  0.2013
  162SAPE   O1218145   5.070   4.782   6.126  0.1541  0.3647  0.1267
  162SAPE   O1118146   4.966   4.644   6.308 -0.1330 -0.2604  0.0142
  162SAPE    C118147   4.893   4.752   6.366  0.0515  0.3123  0.5911
  162SAPE    HA18148   4.921   4.844   6.310 -0.1657  0.7001  1.1057
  162SAPE    HB18149   4.783   4.734   6.359 -0.0454  0.0510  2.2548
  162SAPE    C218150   4.921   4.778   6.519  0.4218 -1.0769  0.2334
  162SAPE    HS18151   4.845   4.847   6.562  2.1669  1.0856  0.0491
  162SAPE   O2118152   5.053   4.825   6.532  0.1194  0.1734  0.1931
  162SAPE   C2118153   5.067   4.962   6.516  0.0476  0.7381 -0.6508
  162SAPE   O2218154   4.985   5.039   6.475 -0.1663  0.4046  0.3266
  162SAPE   C2218155   5.218   4.995   6.531  0.3120 -0.9056  0.7920
  162SAPE   H2R18156   5.279   4.902   6.529  3.3511  0.9352  0.4360
  162SAPE   H2S18157   5.246   5.058   6.444  1.4938 -0.9313  1.1270
  162SAPE    C318158   4.903   4.651   6.594  0.3737 -0.0066  0.2386
  162SAPE    HX18159   4.947   4.563   6.543  3.5950  0.7199  1.5310
  162SAPE    HY18160   4.793   4.634   6.589  0.7302 -2.6711  0.3439
  162SAPE   O3118161   4.947   4.660   6.728  0.2675  0.4889  0.3531
  162SAPE   C3118162   4.896   4.564   6.802  1.1136 -0.7440  0.1773
  162SAPE   O3218163   4.811   4.488   6.774  0.2230  0.3467 -0.3780
  162SAPE   C3218164   4.958   4.564   6.947  0.7249 -0.7738 -0.3433
  162SAPE   H2X18165   5.029   4.646   6.971 -0.5450  0.1080  0.5290
  162SAPE   H2Y18166   5.013   4.469   6.964 -2.1213 -2.0410  3.1323
  162SAPE   C2318167   5.257   5.069   6.662  0.4044 -0.7046  0.3654
  162SAPE   H3R18168   5.191   5.158   6.672  0.5899 -0.7055  1.9847
  162SAPE   H3S18169   5.358   5.111   6.643 -0.0640 -0.0833 -0.8300
  162SAPE   C2418170   5.274   4.979   6.787  0.3587  0.1254  0.7628
  162SAPE   H4R18171   5.330   5.039   6.861  0.8711  0.1988  0.3226
  162SAPE   H4S18172   5.339   4.891   6.767 -1.4973 -1.3342  0.8458
  162SAPE   C2518173   5.146   4.932   6.848  0.1747  0.0437  0.5538
  162SAPE   H5R18174   5.090   4.864   6.782  1.7745 -0.6752 -0.1278
  162SAPE   C2618175   5.113   4.953   6.974  0.0427  0.3955  0.2905
  162SAPE   H6R18176   5.025   4.898   7.009  0.2169  0.0040  0.1185
  162SAPE   C2718177   5.181   5.034   7.085 -0.2693 -0.6657  0.2146
  162SAPE   H7R18178   5.290   5.058   7.084 -0.5798  1.4534  3.5544
  162SAPE   H7S18179   5.181   4.972   7.177 -2.2397 -1.9389 -0.5600
  162SAPE   C2818180   5.112   5.164   7.109 -0.4521 -1.9234 -0.1547
  162SAPE   H8R18181   5.087   5.228   7.023 -1.6229  1.6531  2.5841
  162SAPE   C2918182   5.088   5.218   7.231  0.1857 -0.3328  0.0948
  162SAPE   H9R18183   5.031   5.312   7.235 -1.5021 -1.3657  1.2738
  162SAPE  C21018184   5.116   5.156   7.366  0.3081  0.3028 -0.3483
  162SAPE  H10R18185   5.114   5.046   7.359  0.8129  0.3894 -2.4951
  162SAPE  H10S18186   5.049   5.193   7.446 -0.4266  2.0529 -1.7095
  162SAPE  C21118187   5.256   5.209   7.400  0.0355  0.4539 -0.5357
  162SAPE  H11R18188   5.335   5.148   7.356 -2.5458 -2.4158 -1.5231
  162SAPE  C21218189   5.288   5.311   7.482 -0.1777 -0.4332 -0.2830
  162SAPE  H12R18190   5.394   5.329   7.508 -0.1363  0.0913 -0.7952
  162SAPE  C21318191   5.194   5.397   7.562  0.5644 -0.5808  0.3964
  162SAPE  H13R18192   5.090   5.386   7.524  0.5270  2.1256 -0.5621
  162SAPE  H13S18193   5.213   5.504   7.539 -2.2517 -0.0925 -0.1256
  162SAPE  C21418194   5.174   5.362   7.704 -0.2340 -0.2393  0.6238
  162SAPE  H14R18195   5.113   5.272   7.722 -0.7626  0.2927  1.5357
  162SAPE  C21518196   5.230   5.422   7.810  0.4641  0.2492 -0.2423
  162SAPE  H15R18197   5.208   5.393   7.913 -0.8920 -0.1659 -0.6172
  162SAPE  C21618198   5.313   5.550   7.804 -0.4301 -0.3973 -0.3284
  162SAPE  H16R18199   5.324   5.587   7.700 -1.3653  1.6147  0.2504
  162SAPE  H16S18200   5.413   5.522   7.843 -0.1846 -0.2848 -0.8746
  162SAPE  C21718201   5.257   5.666   7.882  0.6936  0.0640  0.9412
  162SAPE  H17R18202   5.156   5.682   7.838  0.7111 -0.6046  0.6575
  162SAPE  H17S18203   5.315   5.759   7.862  1.6700 -0.3542  1.7568
  162SAPE  C21818204   5.255   5.655   8.033  0.5485  0.1627  0.4089
  162SAPE  H18R18205   5.210   5.555   8.053  1.5136 -0.6123 -1.0950
  162SAPE  H18S18206   5.188   5.730   8.081 -2.6674 -1.3646 -1.3078
  162SAPE  C21918207   5.392   5.686   8.088  0.9505 -0.4798 -0.0150
  162SAPE  H19R18208   5.415   5.787   8.048 -0.1444 -0.6045 -1.0019
  162SAPE  H19S18209   5.469   5.619   8.044  1.2175 -0.1442 -0.0659
  162SAPE  C22018210   5.381   5.691   8.234 -0.3308 -0.1479 -0.0594
  162SAPE  H20R18211   5.453   5.761   8.281  0.4332  0.1193 -1.5741
  162SAPE  H20S18212   5.389   5.597   8.291 -0.4368  0.2090  0.5496
  162SAPE  H20T18213   5.281   5.731   8.261 -0.5674 -0.3909 -0.5606
  162SAPE   C3318214   4.847   4.563   7.046 -0.3757  0.5190 -0.1821
  162SAPE   H3X18215   4.787   4.469   7.042 -0.2948  0.3618  1.5474
  162SAPE   H3Y18216   4.780   4.650   7.030 -0.3347  0.7018  0.6154
  162SAPE   C3418217   4.895   4.566   7.193  0.9544 -0.1724 -0.4734
  162SAPE   H4X18218   4.962   4.479   7.210 -0.1481 -1.1169 -0.8051
  162SAPE   H4Y18219   4.802   4.526   7.239  0.8779  0.4752 -0.0592
  162SAPE   C3518220   4.934   4.701   7.249 -0.1990 -0.6843 -0.1505
  162SAPE   H5X18221   4.857   4.780   7.232  0.4361 -0.3428 -1.6458
  162SAPE   H5Y18222   5.032   4.737   7.210 -0.2819 -0.2096  0.0677
  162SAPE   C3618223   4.965   4.683   7.403  0.3374 -0.0278  0.1681
  162SAPE   H6X18224   5.048   4.610   7.414  1.4050  1.4605  3.1605
  162SAPE   H6Y18225   4.879   4.634   7.452 -0.2267  0.8447  0.0716
  162SAPE   C3718226   5.001   4.822   7.462 -0.6692 -0.1781  0.4392
  162SAPE   H7X18227   4.934   4.904   7.430  0.0720  0.7913  1.2946
  162SAPE   H7Y18228   5.104   4.847   7.430 -1.2115  0.4197 -0.8879
  162SAPE   C3818229   5.008   4.819   7.617 -0.4661 -0.2359 -0.4012
  162SAPE   H8X18230   5.087   4.752   7.657 -0.2427  0.0650 -0.3304
  162SAPE   H8Y18231   4.905   4.789   7.648 -0.3931 -0.0667  0.0031
  162SAPE   C3918232   5.027   4.959   7.678 -0.5497 -0.3210 -0.0256
  162SAPE   H9X18233   4.952   5.026   7.630 -1.9122 -1.3421  0.6101
  162SAPE   H9Y18234   5.126   4.991   7.639 -0.6786 -1.5432 -1.4462
  162SAPE  C31018235   5.027   4.966   7.834 -0.8965  0.9152 -0.1817
  162SAPE  H10X18236   4.959   4.888   7.873  0.2053  0.1482  0.2734
  162SAPE  H10Y18237   4.992   5.066   7.869 -0.3224  1.5801 -1.4618
  162SAPE  C31118238   5.170   4.945   7.896  0.5380 -0.7065 -0.8066
  162SAPE  H11X18239   5.227   5.004   7.821  0.7883  3.6671  2.4255
  162SAPE  H11Y18240   5.191   4.836   7.892  0.8188 -0.8247  1.9866
  162SAPE  C31218241   5.198   5.006   8.030  0.3260  0.2038 -0.3771
  162SAPE  H12X18242   5.152   5.107   8.024 -0.5509 -0.1848 -0.3478
  162SAPE  H12Y18243   5.308   5.025   8.037  1.3390 -4.3667 -1.1697
  162SAPE  C31318244   5.139   4.928   8.150 -0.2903  0.2799 -0.3606
  162SAPE  H13X18245   5.160   4.819   8.144  1.0090  0.5878 -2.0281
  162SAPE  H13Y18246   5.031   4.944   8.168 -0.2948 -1.5019  1.5886
  162SAPE  C31418247   5.196   4.971   8.286 -0.2013 -0.1902  0.2712
  162SAPE  H14X18248   5.170   5.078   8.298  0.1080 -0.3213  2.5339
  162SAPE  H14Y18249   5.307   4.965   8.297  0.3564  1.6450 -2.9579
  162SAPE  C31518250   5.124   4.896   8.400  0.8283  0.3635 -0.3648
  162SAPE  H15X18251   5.153   4.789   8.405  0.3692  0.2358 -0.3882
  162SAPE  H15Y18252   5.016   4.899   8.373  1.0522  1.4274 -1.2070
  162SAPE  C31618253   5.138   4.955   8.536  0.5271  0.0698 -1.0864
  162SAPE  H16X18254   5.114   5.063   8.528  0.1331  0.1150  0.3214
  162SAPE  H16Y18255   5.242   4.959   8.575  0.3284 -0.5811 -0.4651
  162SAPE  C31718256   5.046   4.882   8.635  0.4162 -0.5635  0.5141
  162SAPE  H17X18257   5.082   4.777   8.640 -1.2641 -1.1809  0.1788
  162SAPE  H17Y18258   4.945   4.876   8.590  1.8469 -1.2239 -2.9243
  162SAPE  C31818259   5.051   4.940   8.776 -0.2285  0.1872  0.1298
  162SAPE  H18X18260   5.079   4.866   8.854 -1.3776 -0.1456  0.2370
  162SAPE  H18Y18261   4.949   4.967   8.810 -0.6068 -1.0091 -0.0182
  162SAPE  H18Z18262   5.111   5.034   8.779 -0.0923  0.2022 -1.7139
  163SAPE     N18263   4.576   2.197   6.569 -0.3839 -0.5025  0.2203
  163SAPE   HN118264   4.477   2.220   6.545 -0.1748  0.0960 -0.0936
  163SAPE   HN218265   4.613   2.295   6.568 -0.9753 -0.2632  0.7683
  163SAPE   HN318266   4.614   2.135   6.495 -0.3512 -0.2464  0.0204
  163SAPE   C1218267   4.598   2.130   6.705  0.0358 -0.3847  0.1699
  163SAPE  H12A18268   4.696   2.157   6.749  1.5621 -2.3996 -1.7609
  163SAPE  H12B18269   4.591   2.021   6.685 -0.9661  0.0586 -2.2442
  163SAPE   C1118270   4.484   2.173   6.795 -0.5335 -0.0687  0.3053
  163SAPE  H11A18271   4.459   2.278   6.770  0.2078 -0.1123 -0.6711
  163SAPE  H11B18272   4.527   2.168   6.897 -0.2143  0.3660  0.1936
  163SAPE     P18273   4.240   2.138   6.731 -0.0592  0.6287  0.2278
  163SAPE   O1318274   4.259   2.218   6.604 -0.2294  0.7711 -0.0369
  163SAPE   O1418275   4.144   2.024   6.722  0.1507 -0.6227 -0.1518
  163SAPE   O1218276   4.376   2.086   6.779 -0.0530 -0.4603 -0.4990
  163SAPE   O1118277   4.191   2.232   6.844  0.2445 -0.2443 -0.1716
  163SAPE    C118278   4.144   2.185   6.977  0.4716  0.3631 -0.6504
  163SAPE    HA18279   4.093   2.086   6.980  2.7919 -0.8706  0.1589
  163SAPE    HB18280   4.231   2.165   7.042 -0.4520  1.4173  0.9738
  163SAPE    C218281   4.060   2.296   7.050  0.2325  0.8193 -0.6595
  163SAPE    HS18282   3.975   2.252   7.106 -0.7516 -0.8074 -3.2619
  163SAPE   O2118283   4.011   2.389   6.954  0.0890  0.0999 -0.0208
  163SAPE   C2118284   3.912   2.341   6.888 -0.0365 -0.3959 -0.4617
  163SAPE   O2218285   3.852   2.242   6.906  0.3994  0.4672 -0.2157
  163SAPE   C2218286   3.871   2.450   6.790 -0.0392 -0.0271 -0.2708
  163SAPE   H2R18287   3.966   2.500   6.760  0.5911 -0.7345  0.4861
  163SAPE   H2S18288   3.825   2.399   6.703  0.8869 -0.1968 -0.6780
  163SAPE    C318289   4.144   2.378   7.154 -1.2574  0.9290 -0.0516
  163SAPE    HX18290   4.077   2.466   7.166 -2.4844  0.1862 -1.1119
  163SAPE    HY18291   4.243   2.401   7.110 -0.7373  0.4305  0.8183
  163SAPE   O3118292   4.168   2.308   7.279  0.2204 -0.0079 -0.4936
  163SAPE   C3118293   4.184   2.388   7.384  0.3959  0.1065  0.4238
  163SAPE   O3218294   4.181   2.511   7.385 -0.3243 -0.2472 -0.2280
  163SAPE   C3218295   4.199   2.310   7.514 -0.5265 -1.0779 -0.6165
  163SAPE   H2X18296   4.308   2.323   7.532 -1.0972  2.3114  1.2791
  163SAPE   H2Y18297   4.176   2.202   7.498 -0.1249 -1.2068 -0.3344
  163SAPE   C2318298   3.757   2.540   6.838  0.0026  0.1101  0.4407
  163SAPE   H3R18299   3.757   2.627   6.768  2.2464  0.2777  0.5643
  163SAPE   H3S18300   3.765   2.585   6.939 -0.1449  0.4304  0.3119
  163SAPE   C2418301   3.620   2.461   6.835 -0.5483 -0.2395 -0.0223
  163SAPE   H4R18302   3.623   2.358   6.874  0.5781 -0.2618 -0.1323
  163SAPE   H4S18303   3.604   2.443   6.726 -1.1689  0.7214 -0.0976
  163SAPE   C2518304   3.514   2.546   6.907 -0.2092  0.6261 -0.4049
  163SAPE   H5R18305   3.480   2.629   6.844  1.7219  0.7359 -1.3880
  163SAPE   C2618306   3.486   2.540   7.040 -0.2641  0.0707  0.2719
  163SAPE   H6R18307   3.413   2.611   7.081  0.2603  0.7590  0.0327
  163SAPE   C2718308   3.543   2.446   7.152  0.4597 -0.1036  0.0899
  163SAPE   H7R18309   3.568   2.355   7.093 -0.7267  1.4042 -2.9425
  163SAPE   H7S18310   3.453   2.421   7.213 -0.7263  0.1458 -1.4779
  163SAPE   C2818311   3.658   2.506   7.230  0.6555 -0.2410 -0.4518
  163SAPE   H8R18312   3.723   2.568   7.168  3.1350 -0.5172  1.7215
  163SAPE   C2918313   3.688   2.492   7.359 -0.0987  0.7214 -0.5353
  163SAPE   H9R18314   3.776   2.547   7.395 -0.1749  0.8264 -0.5075
  163SAPE  C21018315   3.604   2.401   7.448 -1.0431  0.7016  0.5432
  163SAPE  H10R18316   3.518   2.358   7.392 -2.1477  2.3987  0.8565
  163SAPE  H10S18317   3.555   2.473   7.516 -4.5903 -0.8371 -0.1548
  163SAPE  C21118318   3.672   2.283   7.517  0.0460  0.3936  0.1674
  163SAPE  H11R18319   3.685   2.193   7.455  0.4244  0.6397 -0.1139
  163SAPE  C21218320   3.727   2.282   7.641  0.2036 -0.5931  0.9874
  163SAPE  H12R18321   3.771   2.185   7.667  1.0438 -0.8792 -1.3047
  163SAPE  C21318322   3.731   2.394   7.741 -0.5017 -0.1557  0.1092
  163SAPE  H13R18323   3.723   2.492   7.690 -1.4129 -0.4109 -0.2723
  163SAPE  H13S18324   3.829   2.392   7.794  0.3820  1.4640 -1.3793
  163SAPE  C21418325   3.621   2.365   7.841 -0.4595 -0.3622 -0.1397
  163SAPE  H14R18326   3.521   2.400   7.812 -0.1583 -0.8252 -1.8001
  163SAPE  C21518327   3.639   2.295   7.960 -1.0860 -0.4228  0.1530
  163SAPE  H15R18328   3.553   2.280   8.027  0.5646 -1.9415  2.0653
  163SAPE  C21618329   3.763   2.230   8.017 -0.1374 -0.1347  0.1576
  163SAPE  H16R18330   3.810   2.301   8.088  1.0403  0.3173 -1.0300
  163SAPE  H16S18331   3.832   2.224   7.930 -0.3844 -2.0331  0.0471
  163SAPE  C21718332   3.752   2.089   8.081  0.7098  0.5310  0.1169
  163SAPE  H17R18333   3.725   2.023   7.996  2.4255  1.1769 -0.9826
  163SAPE  H17S18334   3.672   2.083   8.158 -1.9088 -0.9574 -2.4974
  163SAPE  C21818335   3.878   2.046   8.152 -0.2831  0.3846 -0.0383
  163SAPE  H18R18336   3.896   2.123   8.230  1.9168 -0.4424  0.3340
  163SAPE  H18S18337   3.967   2.055   8.086 -0.2717 -2.1233 -0.4700
  163SAPE  C21918338   3.884   1.899   8.199  0.5355 -0.2323  0.7786
  163SAPE  H19R18339   3.865   1.832   8.112 -0.1658 -0.6051  1.2152
  163SAPE  H19S18340   3.802   1.881   8.271  0.5405  0.3169  0.9252
  163SAPE  C22018341   4.025   1.872   8.252 -0.5113  0.1396 -0.4601
  163SAPE  H20R18342   4.064   1.768   8.250  1.1410  0.6832  0.9526
  163SAPE  H20S18343   4.036   1.908   8.357  0.4761 -1.9663  0.2234
  163SAPE  H20T18344   4.090   1.929   8.182  1.1974  0.9919  1.6979
  163SAPE   C3318345   4.125   2.373   7.638  0.2974  0.3294  0.5775
  163SAPE   H3X18346   4.017   2.379   7.615  0.2328  0.8009  0.9896
  163SAPE   H3Y18347   4.175   2.471   7.651 -1.5344  1.8644 -2.6880
  163SAPE   C3418348   4.128   2.293   7.768 -0.0296  0.0492 -0.4145
  163SAPE   H4X18349   4.099   2.192   7.731 -0.4685  0.1126 -0.2442
  163SAPE   H4Y18350   4.053   2.325   7.843 -1.0721  1.7375 -2.0521
  163SAPE   C3518351   4.275   2.299   7.811  0.6235  0.2083  0.2315
  163SAPE   H5X18352   4.313   2.402   7.830 -1.5704  1.0734  0.3211
  163SAPE   H5Y18353   4.353   2.242   7.757 -1.0871 -1.4496 -0.5917
  163SAPE   C3618354   4.299   2.243   7.956 -0.1926 -0.1507 -0.0018
  163SAPE   H6X18355   4.408   2.256   7.973  0.6861  1.3785 -5.0068
  163SAPE   H6Y18356   4.275   2.135   7.956  2.2355 -0.7714  1.3468
  163SAPE   C3718357   4.212   2.317   8.054  0.1642 -0.1433  0.0155
  163SAPE   H7X18358   4.112   2.274   8.034  0.2854  0.3602 -1.8829
  163SAPE   H7Y18359   4.220   2.426   8.030 -0.5132 -0.1281 -0.1741
  163SAPE   C3818360   4.252   2.284   8.199 -0.2909  0.3157 -0.5375
  163SAPE   H8X18361   4.363   2.278   8.201 -0.3418 -0.6834  0.7584
  163SAPE   H8Y18362   4.211   2.184   8.225  0.3875  0.4383  1.1749
  163SAPE   C3918363   4.196   2.397   8.294  0.5440 -0.1544 -0.1614
  163SAPE   H9X18364   4.085   2.409   8.287  0.5391 -0.1585 -0.0834
  163SAPE   H9Y18365   4.234   2.494   8.255  1.2955 -0.8365 -1.1543
  163SAPE  C31018366   4.225   2.382   8.443  0.8388 -0.5622  0.3710
  163SAPE  H10X18367   4.168   2.291   8.472 -0.7846 -0.1182 -1.2160
  163SAPE  H10Y18368   4.185   2.472   8.496  1.9560  0.7434 -0.9192
  163SAPE  C31118369   4.371   2.362   8.485 -0.1203 -0.3378 -0.1145
  163SAPE  H11X18370   4.442   2.429   8.433 -1.2281  0.7541 -0.2715
  163SAPE  H11Y18371   4.401   2.256   8.474 -0.1238 -0.6235  2.1525
  163SAPE  C31218372   4.390   2.397   8.634  0.4791  0.8768 -0.0929
  163SAPE  H12X18373   4.315   2.335   8.688 -0.4954 -0.2034 -2.5184
  163SAPE  H12Y18374   4.379   2.506   8.653 -1.1358  0.4340  1.8678
  163SAPE  C31318375   4.518   2.346   8.711  0.4100  0.5967  0.6442
  163SAPE  H13X18376   4.528   2.236   8.715 -1.8709  0.3867  1.6702
  163SAPE  H13Y18377   4.504   2.385   8.814 -2.5954 -1.1281  0.9691
  163SAPE  C31418378   4.643   2.404   8.647 -0.9453 -0.0825  0.1547
  163SAPE  H14X18379   4.620   2.511   8.627 -1.3393 -0.2193 -0.1346
  163SAPE  H14Y18380   4.654   2.343   8.554 -0.6038 -0.6031  0.5353
  163SAPE  C31518381   4.769   2.395   8.735 -0.4632  0.5912 -0.0561
  163SAPE  H15X18382   4.749   2.465   8.819 -0.4091 -3.6312  3.8534
  163SAPE  H15Y18383   4.854   2.433   8.675  0.1725  0.4659  0.7454
  163SAPE  C31618384   4.791   2.258   8.799  0.0048  1.1065 -0.0752
  163SAPE  H16X18385   4.761   2.197   8.712 -0.2003 -1.3615  1.6397
  163SAPE  H16Y18386   4.718   2.243   8.881  1.3789 -0.4922  0.9013
  163SAPE  C31718387   4.935   2.213   8.843 -0.2717 -0.4283 -0.4939
  163SAPE  H17X18388   4.936   2.107   8.875  0.5739 -0.0593  0.7692
  163SAPE  H17Y18389   4.959   2.268   8.937 -1.4748 -0.2808 -0.2626
  163SAPE  C31818390   5.035   2.236   8.729  0.3837  0.4552 -0.0290
  163SAPE  H18X18391   4.998   2.192   8.634 -0.6637  0.5004  0.3472
  163SAPE  H18Y18392   5.132   2.187   8.752  2.4020  4.1124 -0.0746
  163SAPE  H18Z18393   5.052   2.343   8.708  0.2745  0.0341 -2.6002
  164SAPE     N18394   0.349   4.303   6.040  0.5826 -0.2937  0.5533
  164SAPE   HN118395   0.406   4.288   5.954 -0.1912  4.3617 -1.1013
  164SAPE   HN218396   0.428   4.320   6.105 -0.2910  0.5608  1.4343
  164SAPE   HN318397   0.306   4.218   6.080  0.8701 -0.6716  0.0684
  164SAPE   C1218398   0.258   4.415   6.007  0.1133  0.3616 -0.6893
  164SAPE  H12A18399   0.195   4.375   5.925  0.6923 -2.8797  0.2928
  164SAPE  H12B18400   0.324   4.500   5.978 -0.8493  0.6781 -2.0566
  164SAPE   C1118401   0.166   4.457   6.128  0.2496 -0.1122 -0.6064
  164SAPE  H11A18402   0.112   4.551   6.107  1.0714 -0.1083 -3.0138
  164SAPE  H11B18403   0.250   4.483   6.196  1.6316  1.4157 -2.7464
  164SAPE     P18404  -0.043   4.306   6.101  0.1357 -0.0480  0.1740
  164SAPE   O1318405  -0.087   4.410   6.002 -0.1609 -0.0191 -0.0511
  164SAPE   O1418406  -0.018   4.170   6.048 -0.3997  0.3814  0.0340
  164SAPE   O1218407   0.075   4.356   6.187 -0.5894  0.2990  0.2945
  164SAPE   O1118408  -0.149   4.284   6.211  0.5375  0.4843 -0.0114
  164SAPE    C118409  -0.145   4.199   6.323 -0.0945  0.2110  0.6839
  164SAPE    HA18410  -0.229   4.128   6.315 -0.5910  0.9621 -1.8834
  164SAPE    HB18411  -0.051   4.141   6.326 -0.4043 -0.2708  1.1942
  164SAPE    C218412  -0.142   4.271   6.462 -0.1031 -1.1352 -0.0022
  164SAPE    HS18413  -0.160   4.190   6.535 -1.6190 -0.1346  0.7843
  164SAPE   O2118414  -0.243   4.382   6.470 -0.7559  0.1276  0.4614
  164SAPE   C2118415  -0.379   4.352   6.466 -0.2907  0.1457 -0.2034
  164SAPE   O2218416  -0.421   4.234   6.475  0.1678  0.3991  0.3377
  164SAPE   C2218417  -0.461   4.480   6.468  0.5187  0.1357  0.1523
  164SAPE   H2R18418  -0.419   4.543   6.549  1.1707 -1.8300  1.3977
  164SAPE   H2S18419  -0.458   4.534   6.371 -3.0358  0.4153  0.0580
  164SAPE    C318420   0.001   4.324   6.506  0.0279  0.3059  0.6844
  164SAPE    HX18421   0.010   4.420   6.449 -1.4651  0.3141  0.4205
  164SAPE    HY18422   0.075   4.260   6.453 -1.1933 -0.2069 -0.4582
  164SAPE   O3118423   0.013   4.325   6.651 -0.1903  0.0201 -0.5260
  164SAPE   C3118424   0.118   4.388   6.700 -0.0622 -0.1087 -0.2046
  164SAPE   O3218425   0.199   4.448   6.632  0.1036  0.1784 -0.2152
  164SAPE   C3218426   0.122   4.366   6.848  0.5660  0.4047  0.4858
  164SAPE   H2X18427   0.019   4.397   6.877  0.9268  0.0907  2.1812
  164SAPE   H2Y18428   0.201   4.425   6.898  0.6484 -1.6873  3.0196
  164SAPE   C2318429  -0.608   4.467   6.509 -0.0859  0.7538 -0.1288
  164SAPE   H3R18430  -0.616   4.444   6.617 -0.5023  2.7496  0.3087
  164SAPE   H3S18431  -0.647   4.382   6.450 -0.9606  0.2272  1.1758
  164SAPE   C2418432  -0.691   4.588   6.476  0.0808 -0.4445  0.4931
  164SAPE   H4R18433  -0.795   4.552   6.462 -0.1644 -0.7187  2.7290
  164SAPE   H4S18434  -0.651   4.627   6.380 -0.5117  0.2553  0.5275
  164SAPE   C2518435  -0.687   4.689   6.585  0.1468 -0.5872 -0.0625
  164SAPE   H5R18436  -0.663   4.790   6.548  0.4909 -0.5317  0.3096
  164SAPE   C2618437  -0.735   4.671   6.707  0.6602  0.3106 -0.6021
  164SAPE   H6R18438  -0.737   4.758   6.774  2.8333 -0.3755  0.4343
  164SAPE   C2718439  -0.808   4.546   6.773  0.2361  0.4715  0.4167
  164SAPE   H7R18440  -0.831   4.461   6.706 -1.6932  2.4308 -1.5685
  164SAPE   H7S18441  -0.907   4.574   6.816 -0.9499 -1.0232 -1.2115
  164SAPE   C2818442  -0.717   4.494   6.883 -0.1664  0.6413  0.8761
  164SAPE   H8R18443  -0.640   4.424   6.849 -2.0036 -1.8305  1.5257
  164SAPE   C2918444  -0.739   4.505   7.012 -0.4340  0.1836  0.3450
  164SAPE   H9R18445  -0.649   4.483   7.072 -0.5153  0.1205  0.4465
  164SAPE  C21018446  -0.844   4.575   7.084 -0.2709  0.3345 -0.0848
  164SAPE  H10R18447  -0.861   4.517   7.178  0.8972  1.8658  1.1094
  164SAPE  H10S18448  -0.946   4.564   7.041 -1.1710 -0.5988  2.1174
  164SAPE  C21118449  -0.806   4.720   7.114  0.1643 -0.6592 -0.7647
  164SAPE  H11R18450  -0.814   4.787   7.028 -0.3640 -0.2334 -0.3888
  164SAPE  C21218451  -0.764   4.766   7.234  0.0227  0.0172 -0.4397
  164SAPE  H12R18452  -0.750   4.874   7.252 -1.3437 -0.2563  2.9384
  164SAPE  C21318453  -0.751   4.697   7.366  0.3714 -0.6687  0.2511
  164SAPE  H13R18454  -0.765   4.590   7.342  0.8934 -0.0266 -3.4833
  164SAPE  H13S18455  -0.845   4.737   7.411 -0.1749 -0.3680 -1.0979
  164SAPE  C21418456  -0.624   4.713   7.453 -0.4919 -0.8047  0.5150
  164SAPE  H14R18457  -0.538   4.658   7.412 -1.4114 -1.5071 -0.5080
  164SAPE  C21518458  -0.620   4.777   7.572  0.2307 -0.3808 -0.5516
  164SAPE  H15R18459  -0.520   4.785   7.617  1.1544 -2.7984 -1.9906
  164SAPE  C21618460  -0.732   4.857   7.629  0.3578 -0.3636  0.5860
  164SAPE  H16R18461  -0.791   4.917   7.556  0.5557 -1.9073 -0.9053
  164SAPE  H16S18462  -0.689   4.929   7.702 -0.0810  0.3803  0.1204
  164SAPE  C21718463  -0.827   4.765   7.699 -0.0416 -0.1586  0.1538
  164SAPE  H17R18464  -0.890   4.708   7.627 -0.5907  0.2626  0.2980
  164SAPE  H17S18465  -0.898   4.830   7.754  1.3824  1.3250  0.3403
  164SAPE  C21818466  -0.771   4.652   7.791  0.4929 -0.4207 -1.0107
  164SAPE  H18R18467  -0.728   4.701   7.881  1.5120 -0.5736 -1.3919
  164SAPE  H18S18468  -0.698   4.591   7.734 -0.6549 -0.9523 -1.9418
  164SAPE  C21918469  -0.882   4.559   7.852  0.5006  0.2554  0.8245
  164SAPE  H19R18470  -0.943   4.498   7.783 -0.5987  1.4649  0.6895
  164SAPE  H19S18471  -0.955   4.633   7.891 -0.5074  0.2675 -0.9658
  164SAPE  C22018472  -0.833   4.479   7.972  0.1498  0.9159 -0.4524
  164SAPE  H20R18473  -0.774   4.386   7.953 -1.7448 -0.4798  0.1640
  164SAPE  H20S18474  -0.922   4.429   8.015 -0.1931  2.2871  0.5004
  164SAPE  H20T18475  -0.792   4.547   8.050  0.0047  1.6631 -1.0161
  164SAPE   C3318476   0.144   4.220   6.894 -1.0494  0.0562 -0.1375
  164SAPE   H3X18477   0.234   4.176   6.846 -1.7284 -2.8886  1.0563
  164SAPE   H3Y18478   0.055   4.155   6.881  0.0865 -1.5576 -0.1892
  164SAPE   C3418479   0.178   4.214   7.042 -0.3747  0.0624 -0.0140
  164SAPE   H4X18480   0.250   4.292   7.076  0.5698  0.1084 -1.9600
  164SAPE   H4Y18481   0.246   4.126   7.054  2.0749  1.8648 -0.0048
  164SAPE   C3518482   0.051   4.200   7.134  0.2473  0.0591 -0.2117
  164SAPE   H5X18483  -0.005   4.109   7.102 -0.0643  0.3641 -0.5512
  164SAPE   H5Y18484  -0.031   4.273   7.118 -2.1764 -1.9841  1.9810
  164SAPE   C3618485   0.072   4.178   7.286  0.1598  0.6635  0.0114
  164SAPE   H6X18486  -0.022   4.190   7.343 -1.0305  1.6937 -2.0282
  164SAPE   H6Y18487   0.129   4.266   7.323 -0.0250  0.0958  1.6961
  164SAPE   C3718488   0.149   4.050   7.327  0.3394 -0.8339 -0.5392
  164SAPE   H7X18489   0.241   4.041   7.265 -0.2345  1.5848 -1.8306
  164SAPE   H7Y18490   0.086   3.962   7.303 -2.5403  1.1652 -0.6917
  164SAPE   C3818491   0.206   4.056   7.472  0.1840 -0.3013  0.5385
  164SAPE   H8X18492   0.280   4.137   7.488 -1.4631  1.0935  1.3759
  164SAPE   H8Y18493   0.245   3.952   7.483 -1.6828 -1.1961 -0.8332
  164SAPE   C3918494   0.092   4.068   7.575  0.7188 -0.3175 -0.7331
  164SAPE   H9X18495   0.008   3.996   7.564  2.4131 -2.2598 -1.3993
  164SAPE   H9Y18496   0.059   4.174   7.575  0.1982 -0.4564 -2.2001
  164SAPE  C31018497   0.156   4.030   7.715 -0.6179 -0.3435  0.2535
  164SAPE  H10X18498   0.218   4.115   7.750 -0.2248  0.2556 -1.7161
  164SAPE  H10Y18499   0.227   3.945   7.705  2.3376  2.1382 -1.5872
  164SAPE  C31118500   0.053   3.992   7.811 -0.1831 -0.0092 -0.6782
  164SAPE  H11X18501  -0.013   3.913   7.770  0.7664 -1.8225  1.0767
  164SAPE  H11Y18502  -0.014   4.075   7.841  1.8322  1.4482  0.0078
  164SAPE  C31218503   0.115   3.933   7.933 -0.0334  0.2533 -0.0544
  164SAPE  H12X18504   0.174   4.008   7.990 -1.4890  0.0200  1.8409
  164SAPE  H12Y18505   0.174   3.844   7.904 -1.4393 -0.2452 -1.5551
  164SAPE  C31318506   0.005   3.899   8.030  0.0292 -0.0358 -0.8276
  164SAPE  H13X18507  -0.079   3.848   7.979  0.4895 -1.8502  0.1095
  164SAPE  H13Y18508  -0.037   3.997   8.061  2.2375  1.3053 -1.7973
  164SAPE  C31418509   0.051   3.816   8.149 -0.2192  0.4112  0.1865
  164SAPE  H14X18510   0.142   3.852   8.201  0.4520 -0.8485 -0.0566
  164SAPE  H14Y18511   0.064   3.713   8.109 -2.3523 -0.0804  0.6547
  164SAPE  C31518512  -0.061   3.795   8.256  0.2072  0.5539 -0.2751
  164SAPE  H15X18513  -0.125   3.717   8.211 -0.0487  0.9395 -0.5856
  164SAPE  H15Y18514  -0.119   3.889   8.269 -0.5543  0.2459 -1.3473
  164SAPE  C31618515  -0.003   3.753   8.393  0.1784  0.4893 -0.1824
  164SAPE  H16X18516   0.060   3.662   8.385  0.5394  0.7227  0.0004
  164SAPE  H16Y18517  -0.080   3.732   8.470  1.1244 -1.0871  0.3894
  164SAPE  C31718518   0.088   3.859   8.457  0.2252  0.4062 -0.2072
  164SAPE  H17X18519   0.040   3.958   8.441  0.7533  0.2145 -3.7263
  164SAPE  H17Y18520   0.184   3.859   8.403  0.3874  0.8391  0.0740
  164SAPE  C31818521   0.125   3.833   8.604  0.3455  0.0301  0.0262
  164SAPE  H18X18522   0.227   3.872   8.622  0.4829 -0.5362  0.4690
  164SAPE  H18Y18523   0.119   3.724   8.620 -1.1933 -0.0276 -0.7454
  164SAPE  H18Z18524   0.051   3.884   8.669 -1.1889 -0.1895 -1.4725
  165SAPE     N18525   0.137   1.632   6.219  0.7885  0.3180 -0.0818
  165SAPE   HN118526   0.085   1.611   6.131  0.7129  0.1467  0.0030
  165SAPE   HN218527   0.235   1.598   6.212 -0.0520 -2.1270 -1.2102
  165SAPE   HN318528   0.102   1.576   6.299  0.9259 -0.0582 -0.2803
  165SAPE   C1218529   0.142   1.779   6.244 -0.6402 -0.3886  0.2070
  165SAPE  H12A18530   0.236   1.813   6.195 -2.1331  2.0008 -1.1286
  165SAPE  H12B18531   0.148   1.798   6.353  1.3571  0.1354  0.0399
  165SAPE   C1118532   0.033   1.856   6.169 -0.0965 -0.4903  0.2809
  165SAPE  H11A18533   0.039   1.825   6.063  1.8038  0.3452  0.1025
  165SAPE  H11B18534   0.056   1.964   6.160 -1.3177 -0.0887  1.5064
  165SAPE     P18535  -0.131   1.939   6.348 -0.3912 -0.2609 -0.1239
  165SAPE   O1318536  -0.024   2.041   6.353 -0.2337  0.3492 -0.3569
  165SAPE   O1418537  -0.269   1.987   6.325 -0.3293 -0.4486  0.4368
  165SAPE   O1218538  -0.092   1.832   6.236 -0.1362  0.4783 -0.0697
  165SAPE   O1118539  -0.120   1.855   6.485  0.4565  0.0689 -0.2865
  165SAPE    C118540  -0.186   1.727   6.475 -0.1614 -0.2193 -0.2791
  165SAPE    HA18541  -0.225   1.702   6.374  1.8057  0.5925 -1.2863
  165SAPE    HB18542  -0.110   1.650   6.499  0.1867  0.5349  1.1027
  165SAPE    C218543  -0.296   1.696   6.581  0.3028 -0.5391 -0.6090
  165SAPE    HS18544  -0.395   1.725   6.540  0.2277  2.1854  1.2177
  165SAPE   O2118545  -0.261   1.771   6.699 -0.2505  0.2880  0.1580
  165SAPE   C2118546  -0.363   1.821   6.770 -0.0006  0.7824 -0.7807
  165SAPE   O2218547  -0.479   1.817   6.736 -0.2021 -0.3897  0.2103
  165SAPE   C2218548  -0.314   1.895   6.895  0.1540  0.2778  0.8059
  165SAPE   H2R18549  -0.204   1.882   6.894  0.0286 -0.9978 -0.1292
  165SAPE   H2S18550  -0.339   1.999   6.866 -1.9929 -0.2463  0.5784
  165SAPE    C318551  -0.299   1.546   6.610  0.6075  0.4682 -0.3930
  165SAPE    HX18552  -0.193   1.519   6.631  0.4983 -0.1691 -0.6571
  165SAPE    HY18553  -0.330   1.493   6.518 -0.7610 -2.9621  1.8349
  165SAPE   O3118554  -0.375   1.507   6.729  0.2569 -0.2731 -0.5402
  165SAPE   C3118555  -0.452   1.396   6.718 -0.2958  0.0837  0.0419
  165SAPE   O3218556  -0.445   1.313   6.629  0.5595 -0.1707  0.1058
  165SAPE   C3218557  -0.549   1.393   6.842  0.0934  0.1199 -0.6137
  165SAPE   H2X18558  -0.643   1.445   6.814 -0.2694  1.4231  2.5779
  165SAPE   H2Y18559  -0.508   1.448   6.930 -0.4577 -0.0730 -0.2259
  165SAPE   C2318560  -0.389   1.847   7.022 -0.1816 -0.0455  0.2214
  165SAPE   H3R18561  -0.495   1.862   6.991  0.4429  1.1062 -1.4935
  165SAPE   H3S18562  -0.372   1.918   7.105 -1.0828  1.7579 -1.0806
  165SAPE   C2418563  -0.352   1.703   7.068 -1.0076 -0.7415 -0.1863
  165SAPE   H4R18564  -0.392   1.622   7.003  1.1469 -1.0874 -1.1795
  165SAPE   H4S18565  -0.397   1.683   7.167  0.3284  1.4165  0.9451
  165SAPE   C2518566  -0.205   1.681   7.077  0.1264  0.2374 -0.4437
  165SAPE   H5R18567  -0.154   1.659   6.982  1.9606  2.2385 -0.0062
  165SAPE   C2618568  -0.126   1.690   7.188  0.3110 -0.0285 -0.1125
  165SAPE   H6R18569  -0.017   1.677   7.179  0.4859  0.8110  0.6177
  165SAPE   C2718570  -0.171   1.731   7.321 -0.0623  0.2396 -0.3939
  165SAPE   H7R18571  -0.266   1.787   7.314 -0.5304 -0.1675  1.8857
  165SAPE   H7S18572  -0.093   1.806   7.349 -1.7793  3.0534 -2.6250
  165SAPE   C2818573  -0.182   1.615   7.414 -0.1684  0.2443 -0.2347
  165SAPE   H8R18574  -0.110   1.532   7.404  1.7385  1.6629  1.0786
  165SAPE   C2918575  -0.270   1.597   7.508 -0.6494 -0.2898 -0.3365
  165SAPE   H9R18576  -0.271   1.496   7.551 -0.1569  0.7127  2.1573
  165SAPE  C21018577  -0.377   1.686   7.568 -0.4286  0.0327 -0.7095
  165SAPE  H10R18578  -0.383   1.783   7.513 -1.2543 -0.1194 -0.9126
  165SAPE  H10S18579  -0.347   1.714   7.671  2.2324  0.2735 -1.4898
  165SAPE  C21118580  -0.507   1.612   7.547 -0.4719  0.5628 -0.3332
  165SAPE  H11R18581  -0.535   1.602   7.441 -0.5391  2.7645 -0.5567
  165SAPE  C21218582  -0.576   1.546   7.641  0.2196 -0.2761 -0.4928
  165SAPE  H12R18583  -0.664   1.484   7.621 -1.2104  0.5839  2.5124
  165SAPE  C21318584  -0.533   1.530   7.785 -0.4108 -0.2251 -0.2101
  165SAPE  H13R18585  -0.507   1.627   7.831  0.5701 -0.2242 -0.7408
  165SAPE  H13S18586  -0.454   1.453   7.802 -1.8668 -1.3074  2.0661
  165SAPE  C21418587  -0.649   1.479   7.864 -0.2372 -0.2082 -0.5069
  165SAPE  H14R18588  -0.739   1.443   7.813 -1.5984 -0.4536  1.9695
  165SAPE  C21518589  -0.654   1.464   7.998  0.0966 -0.2399  0.3358
  165SAPE  H15R18590  -0.740   1.419   8.049  1.0670 -1.9836  0.5305
  165SAPE  C21618591  -0.534   1.486   8.091 -0.0238  0.0107 -0.4324
  165SAPE  H16R18592  -0.570   1.574   8.148 -2.2097  1.0362 -3.1874
  165SAPE  H16S18593  -0.448   1.516   8.029 -0.1984  2.5753  0.4283
  165SAPE  C21718594  -0.488   1.360   8.179 -0.8048  0.3720  0.2348
  165SAPE  H17R18595  -0.470   1.272   8.115  1.3233  0.0637  1.1738
  165SAPE  H17S18596  -0.571   1.330   8.246  0.3336  1.7159  2.3678
  165SAPE  C21818597  -0.376   1.378   8.280  0.0840 -0.0751  0.4351
  165SAPE  H18R18598  -0.390   1.294   8.352 -1.0395 -0.3541 -0.0888
  165SAPE  H18S18599  -0.395   1.477   8.325 -1.2677  0.0093 -0.2886
  165SAPE  C21918600  -0.236   1.392   8.214  0.7976  0.0632  1.1470
  165SAPE  H19R18601  -0.239   1.469   8.135 -0.5256 -1.2702 -0.1634
  165SAPE  H19S18602  -0.217   1.291   8.170  0.4538  0.8142 -0.8359
  165SAPE  C22018603  -0.124   1.430   8.309 -0.8857 -0.2238  0.8484
  165SAPE  H20R18604  -0.050   1.347   8.304 -0.3174  0.3336 -1.4700
  165SAPE  H20S18605  -0.165   1.431   8.412 -3.4224 -1.0071 -0.0854
  165SAPE  H20T18606  -0.072   1.523   8.279 -0.5002 -0.1478  1.7240
  165SAPE   C3318607  -0.576   1.249   6.889 -0.1290  0.4443 -0.4115
  165SAPE   H3X18608  -0.482   1.191   6.900  0.6701  2.0575  2.1760
  165SAPE   H3Y18609  -0.636   1.199   6.809 -1.4329 -0.0394  0.8150
  165SAPE   C3418610  -0.653   1.247   7.018 -0.0537 -1.0722 -0.3101
  165SAPE   H4X18611  -0.751   1.299   7.012 -0.2425 -1.1157  1.5799
  165SAPE   H4Y18612  -0.596   1.306   7.093 -0.4618  0.3388 -1.0720
  165SAPE   C3518613  -0.673   1.107   7.069  0.0410 -0.2500  0.5002
  165SAPE   H5X18614  -0.572   1.065   7.090 -0.6586 -1.1839  2.1855
  165SAPE   H5Y18615  -0.718   1.045   6.989 -0.4959 -0.5726  1.0421
  165SAPE   C3618616  -0.771   1.103   7.188  0.8640  0.4629 -0.0576
  165SAPE   H6X18617  -0.784   0.995   7.208  1.4886  0.9269  3.5282
  165SAPE   H6Y18618  -0.866   1.154   7.162  0.1732 -0.8071 -0.1165
  165SAPE   C3718619  -0.723   1.171   7.311  0.5036  0.7879 -0.3059
  165SAPE   H7X18620  -0.743   1.280   7.300  0.1250  0.8034  0.4535
  165SAPE   H7Y18621  -0.616   1.144   7.323  0.8899  2.4598  0.2951
  165SAPE   C3818622  -0.797   1.119   7.439  0.6770  0.0711 -0.4220
  165SAPE   H8X18623  -0.816   1.011   7.423 -2.4686  0.4656  0.0199
  165SAPE   H8Y18624  -0.896   1.168   7.449 -2.2990 -5.3685  0.3082
  165SAPE   C3918625  -0.723   1.131   7.577 -0.3456 -0.1534 -0.1927
  165SAPE   H9X18626  -0.717   1.241   7.587  1.7694 -0.0055 -2.2251
  165SAPE   H9Y18627  -0.619   1.094   7.563 -0.1494  0.9224 -1.7506
  165SAPE  C31018628  -0.801   1.079   7.695 -0.4291 -0.2438 -0.2360
  165SAPE  H10X18629  -0.844   0.982   7.664 -0.2908 -1.4177  2.8499
  165SAPE  H10Y18630  -0.881   1.155   7.709  1.0637  1.1394  1.2443
  165SAPE  C31118631  -0.730   1.065   7.832 -0.4123 -0.3358 -0.0268
  165SAPE  H11X18632  -0.673   1.158   7.854  1.6633 -1.8251  1.2578
  165SAPE  H11Y18633  -0.652   0.986   7.823 -1.4662 -1.4030 -0.0489
  165SAPE  C31218634  -0.831   1.026   7.936  0.1370 -0.2665 -0.1653
  165SAPE  H12X18635  -0.886   0.931   7.919  0.7640 -0.7990  0.7330
  165SAPE  H12Y18636  -0.918   1.095   7.935  0.2736  0.3288  4.8983
  165SAPE  C31318637  -0.767   1.013   8.073 -0.1368 -1.3116 -0.4385
  165SAPE  H13X18638  -0.712   1.109   8.084 -3.0473  0.6331 -1.6445
  165SAPE  H13Y18639  -0.697   0.926   8.076  4.2009  1.8738  1.6074
  165SAPE  C31418640  -0.866   0.980   8.189 -0.2483 -0.5951  0.7770
  165SAPE  H14X18641  -0.813   0.952   8.283 -0.6117 -0.6850  0.9557
  165SAPE  H14Y18642  -0.917   0.883   8.168  1.5898 -1.6141  0.7790
  165SAPE  C31518643  -0.962   1.092   8.230 -0.4719  0.0270  0.6857
  165SAPE  H15X18644  -1.019   1.056   8.318  0.1365 -0.5481  0.8544
  165SAPE  H15Y18645  -1.029   1.117   8.145 -0.7157 -0.0444  0.8556
  165SAPE  C31618646  -0.896   1.217   8.277 -0.6041 -1.0457 -0.2386
  165SAPE  H16X18647  -0.961   1.296   8.234 -0.3500 -0.7842 -0.1367
  165SAPE  H16Y18648  -0.796   1.229   8.231  1.1202 -1.0472  3.2256
  165SAPE  C31718649  -0.898   1.225   8.433 -0.6447  0.2269 -0.2075
  165SAPE  H17X18650  -1.002   1.211   8.468 -0.2900  0.8118  1.1478
  165SAPE  H17Y18651  -0.863   1.326   8.464  3.2887  0.0502 -3.2586
  165SAPE  C31818652  -0.797   1.132   8.492 -0.2593  0.5285 -0.1310
  165SAPE  H18X18653  -0.777   1.136   8.601  0.1847  0.5265 -0.2090
  165SAPE  H18Y18654  -0.702   1.147   8.435 -0.3455 -2.1592 -1.1272
  165SAPE  H18Z18655  -0.842   1.031   8.489 -0.7986  0.7159  1.1604
  166SAPE     N18656   6.074   4.339   5.751  0.3357  0.5512 -0.0344
  166SAPE   HN118657   5.974   4.317   5.735  0.2063 -1.0781  2.5862
  166SAPE   HN218658   6.111   4.356   5.655  0.9374  0.9562  0.2616
  166SAPE   HN318659   6.121   4.251   5.781  2.6102  0.7904 -2.4516
  166SAPE   C1218660   6.083   4.462   5.843  0.7061  0.3245 -0.2566
  166SAPE  H12A18661   6.075   4.558   5.789  2.7036  1.1761  0.8703
  166SAPE  H12B18662   6.190   4.463   5.870  0.8323 -0.8131 -0.6665
  166SAPE   C1118663   5.989   4.453   5.969  0.2042  0.9028 -0.5976
  166SAPE  H11A18664   5.997   4.544   6.032  0.7648  1.7027 -1.7806
  166SAPE  H11B18665   6.026   4.362   6.021 -0.5772  0.1973 -1.2551
  166SAPE     P18666   5.760   4.302   5.982 -0.0325 -0.3410 -0.0750
  166SAPE   O1318667   5.619   4.329   5.942  0.3610  0.5191 -0.2072
  166SAPE   O1418668   5.824   4.187   5.925  0.3885  0.0826 -0.0190
  166SAPE   O1218669   5.851   4.430   5.928 -0.0193  0.3027  0.1432
  166SAPE   O1118670   5.779   4.314   6.137 -0.2105 -0.4784  0.0351
  166SAPE    C118671   5.724   4.443   6.188  0.4418 -0.2035  0.0505
  166SAPE    HA18672   5.803   4.521   6.182 -0.5873  0.8398 -0.3738
  166SAPE    HB18673   5.635   4.492   6.141  1.0370  2.2027  1.2762
  166SAPE    C218674   5.676   4.435   6.337 -0.2639 -0.0674  0.7030
  166SAPE    HS18675   5.565   4.430   6.343 -0.2536  0.9960  2.3422
  166SAPE   O2118676   5.719   4.555   6.396 -0.1530  0.0834  0.0602
  166SAPE   C2118677   5.647   4.662   6.372 -0.0041  0.2834 -0.0490
  166SAPE   O2218678   5.542   4.668   6.307  0.0365 -0.4751  0.3697
  166SAPE   C2218679   5.715   4.782   6.433  0.2892 -0.1312  0.7091
  166SAPE   H2R18680   5.793   4.755   6.508  1.5320  1.2790 -0.0246
  166SAPE   H2S18681   5.761   4.840   6.351 -1.2570  1.9030  1.1878
  166SAPE    C318682   5.749   4.309   6.407  0.1506 -0.2720 -0.0930
  166SAPE    HX18683   5.858   4.322   6.387  0.3289 -1.2318  0.1891
  166SAPE    HY18684   5.714   4.213   6.362 -3.2005 -0.0174  1.6867
  166SAPE   O3118685   5.704   4.300   6.543 -0.3237  0.5136 -0.2527
  166SAPE   C3118686   5.790   4.236   6.623  0.4688 -0.9244 -0.3997
  166SAPE   O3218687   5.898   4.193   6.593 -0.2916 -0.5260  0.6781
  166SAPE   C3218688   5.741   4.232   6.765 -0.6409 -0.4658 -0.5031
  166SAPE   H2X18689   5.686   4.326   6.786 -0.0919  0.1087 -1.5319
  166SAPE   H2Y18690   5.835   4.235   6.825 -0.3826  1.8573 -0.9220
  166SAPE   C2318691   5.619   4.878   6.513  0.1672  0.2257  0.1458
  166SAPE   H3R18692   5.575   4.839   6.608 -0.1226  0.7891  0.2457
  166SAPE   H3S18693   5.536   4.911   6.446  0.6959 -0.2131 -0.7422
  166SAPE   C2418694   5.700   5.003   6.554 -0.0259 -0.2151 -0.5727
  166SAPE   H4R18695   5.625   5.064   6.609  0.4998 -0.0634 -0.0130
  166SAPE   H4S18696   5.712   5.075   6.470 -0.1772  1.1195  0.5127
  166SAPE   C2518697   5.828   4.990   6.640  1.1400 -0.2714 -0.9227
  166SAPE   H5R18698   5.915   4.965   6.579  1.3046  0.0090 -0.8057
  166SAPE   C2618699   5.830   5.008   6.776 -0.6119 -0.5403  0.7253
  166SAPE   H6R18700   5.929   5.001   6.824  0.0538  2.1200 -0.0795
  166SAPE   C2718701   5.722   5.036   6.870 -0.2167  0.8599 -0.1670
  166SAPE   H7R18702   5.705   4.944   6.929 -2.6833  1.4497  0.1422
  166SAPE   H7S18703   5.624   5.046   6.819 -0.8880 -1.2819  0.6099
  166SAPE   C2818704   5.738   5.145   6.975 -0.1487 -0.4111 -0.2510
  166SAPE   H8R18705   5.775   5.240   6.934  0.9481 -1.7103 -2.4732
  166SAPE   C2918706   5.689   5.151   7.098 -0.0071 -0.1690  0.6181
  166SAPE   H9R18707   5.705   5.241   7.160  2.1904  0.4447 -0.7376
  166SAPE  C21018708   5.605   5.053   7.168  0.5527 -0.1409  0.3867
  166SAPE  H10R18709   5.565   4.968   7.109 -1.3342 -0.6961  2.3588
  166SAPE  H10S18710   5.514   5.107   7.202 -0.5539 -0.1169 -2.3848
  166SAPE  C21118711   5.689   4.999   7.280  0.6009 -0.0121  0.4462
  166SAPE  H11R18712   5.756   4.918   7.246 -0.4920 -0.9584  0.4888
  166SAPE  C21218713   5.695   5.041   7.405  0.2134 -0.5028 -0.0506
  166SAPE  H12R18714   5.773   4.993   7.465  2.4795 -0.1525 -2.5296
  166SAPE  C21318715   5.627   5.163   7.467  0.2347 -0.3045  0.4057
  166SAPE  H13R18716   5.546   5.129   7.535 -0.7306 -4.3922 -2.4381
  166SAPE  H13S18717   5.572   5.215   7.386  0.7662 -3.7949 -2.4076
  166SAPE  C21418718   5.729   5.257   7.529  0.2443 -0.7466  0.6220
  166SAPE  H14R18719   5.776   5.325   7.457  0.5534  0.3682  1.8348
  166SAPE  C21518720   5.760   5.265   7.663  0.3048 -0.1930  0.4221
  166SAPE  H15R18721   5.838   5.337   7.690  1.3964 -1.0950 -0.2111
  166SAPE  C21618722   5.706   5.192   7.778 -0.2035 -0.0299 -0.1449
  166SAPE  H16R18723   5.788   5.143   7.835 -0.5078  1.2441  1.4608
  166SAPE  H16S18724   5.628   5.119   7.750 -0.6664 -0.0189  1.0541
  166SAPE  C21718725   5.633   5.290   7.882  0.0376  0.2650 -0.7064
  166SAPE  H17R18726   5.568   5.358   7.822  1.3315  3.0875  0.9137
  166SAPE  H17S18727   5.713   5.352   7.927 -0.3403  1.0663 -1.1029
  166SAPE  C21818728   5.560   5.229   7.996  0.3256  0.3883 -0.1474
  166SAPE  H18R18729   5.624   5.148   8.038 -0.5751 -0.0073  0.5190
  166SAPE  H18S18730   5.473   5.164   7.972  1.9467 -2.5885  1.4437
  166SAPE  C21918731   5.505   5.326   8.094  0.2923  0.7572 -0.3379
  166SAPE  H19R18732   5.436   5.395   8.040  0.3505  1.0765 -0.0066
  166SAPE  H19S18733   5.584   5.392   8.135 -1.0844  2.0036  0.3732
  166SAPE  C22018734   5.431   5.263   8.210  0.3674  0.1021 -0.1563
  166SAPE  H20R18735   5.489   5.186   8.266 -2.0110 -1.5544  0.1956
  166SAPE  H20S18736   5.336   5.211   8.185  0.9889 -0.1695 -2.1052
  166SAPE  H20T18737   5.412   5.338   8.290  0.1451 -1.5103  1.3882
  166SAPE   C3318738   5.648   4.114   6.817 -0.3620 -0.9503  1.2472
  166SAPE   H3X18739   5.694   4.023   6.772  0.6185  1.3074 -2.8715
  166SAPE   H3Y18740   5.551   4.139   6.770  1.3897  1.8175 -1.3020
  166SAPE   C3418741   5.644   4.122   6.969 -0.1841 -0.1246  0.8176
  166SAPE   H4X18742   5.744   4.126   7.018 -0.7459  0.1874  1.9622
  166SAPE   H4Y18743   5.611   4.026   7.013  1.8691 -0.7708  1.0955
  166SAPE   C3518744   5.578   4.244   7.029 -0.3813 -0.4551  0.4724
  166SAPE   H5X18745   5.487   4.261   6.968 -0.5135 -2.2758  0.1099
  166SAPE   H5Y18746   5.634   4.339   7.017 -0.9151  0.2212  2.8967
  166SAPE   C3618747   5.550   4.240   7.173  0.4561 -0.8108 -0.0755
  166SAPE   H6X18748   5.471   4.164   7.190 -1.5267  1.1690 -0.0284
  166SAPE   H6Y18749   5.496   4.334   7.198  0.2131 -1.2171  1.0185
  166SAPE   C3718750   5.672   4.233   7.268  0.0993 -0.6697 -0.2974
  166SAPE   H7X18751   5.760   4.276   7.216  0.7906 -0.7726  0.7627
  166SAPE   H7Y18752   5.705   4.128   7.274 -3.6145 -1.9612  0.6086
  166SAPE   C3818753   5.656   4.317   7.396 -0.5809  0.3779  0.2059
  166SAPE   H8X18754   5.641   4.425   7.378 -0.0778  0.7662  1.9241
  166SAPE   H8Y18755   5.749   4.303   7.455 -1.1951 -2.0215  0.7369
  166SAPE   C3918756   5.537   4.270   7.481 -1.7035  0.5195 -0.3166
  166SAPE   H9X18757   5.483   4.187   7.431 -0.7188  0.0815 -0.6872
  166SAPE   H9Y18758   5.470   4.357   7.494 -1.0693  1.0138 -0.3570
  166SAPE  C31018759   5.583   4.234   7.624 -0.3715  0.5347  0.3610
  166SAPE  H10X18760   5.668   4.303   7.645 -0.3287  0.1346  1.5654
  166SAPE  H10Y18761   5.631   4.135   7.611  1.2334  1.3604 -0.2746
  166SAPE  C31118762   5.467   4.237   7.721  0.0389  0.3975 -0.6322
  166SAPE  H11X18763   5.404   4.147   7.703  2.4266 -1.1417 -1.7580
  166SAPE  H11Y18764   5.407   4.329   7.705 -0.5283  0.2302  0.4489
  166SAPE  C31218765   5.507   4.237   7.867 -0.5554  0.2249 -0.2756
  166SAPE  H12X18766   5.581   4.318   7.883  1.9449 -2.1468  1.2046
  166SAPE  H12Y18767   5.559   4.140   7.883 -2.3405 -0.6233  0.7207
  166SAPE  C31318768   5.393   4.251   7.964 -0.2350  0.3827 -0.1361
  166SAPE  H13X18769   5.321   4.167   7.963 -0.9929  1.0002 -2.2816
  166SAPE  H13Y18770   5.334   4.336   7.925  0.1792  0.4544 -0.6245
  166SAPE  C31418771   5.420   4.291   8.108 -0.0259  0.6595  0.7473
  166SAPE  H14X18772   5.320   4.330   8.135  0.7200  2.6219  0.8251
  166SAPE  H14Y18773   5.486   4.380   8.107  0.6519  0.1644 -0.0501
  166SAPE  C31518774   5.495   4.183   8.192  0.0954 -1.2532  0.2970
  166SAPE  H15X18775   5.495   4.226   8.294 -0.3553  0.0838 -0.2335
  166SAPE  H15Y18776   5.600   4.168   8.157  0.8319  3.3909 -0.2195
  166SAPE  C31618777   5.430   4.046   8.196  0.2549  0.4093  0.3810
  166SAPE  H16X18778   5.453   3.997   8.099 -0.7914 -0.9347  0.7832
  166SAPE  H16Y18779   5.319   4.043   8.198  0.2365  1.0494  0.4286
  166SAPE  C31718780   5.500   3.955   8.292  0.4541  0.1962  0.1168
  166SAPE  H17X18781   5.493   4.006   8.391  2.4663 -0.0266  0.4137
  166SAPE  H17Y18782   5.608   3.956   8.267  0.2559  0.5992 -0.7468
  166SAPE  C31818783   5.452   3.811   8.295  0.4718 -0.3102 -0.4351
  166SAPE  H18X18784   5.511   3.754   8.370 -0.3569  0.5150  0.8824
  166SAPE  H18Y18785   5.472   3.762   8.197 -0.5199 -1.1059 -0.2562
  166SAPE  H18Z18786   5.345   3.801   8.323  0.6973 -2.1419 -0.1377
  167SAPE     N18787   1.223   4.577   6.256  0.4942  0.4059  0.3149
  167SAPE   HN118788   1.314   4.568   6.207  0.2855 -2.2591  0.2582
  167SAPE   HN218789   1.238   4.590   6.359  1.5935  2.0566 -0.0192
  167SAPE   HN318790   1.170   4.488   6.246  3.1784 -1.0757 -1.9980
  167SAPE   C1218791   1.146   4.699   6.200 -0.0530  0.6273 -0.5971
  167SAPE  H12A18792   1.129   4.681   6.092 -0.3197 -0.7616 -0.3345
  167SAPE  H12B18793   1.202   4.791   6.228  0.4762 -0.3912  1.9080
  167SAPE   C1118794   1.002   4.711   6.263 -0.1350 -0.4139 -0.0685
  167SAPE  H11A18795   0.990   4.811   6.215 -0.4289 -0.9556 -1.1528
  167SAPE  H11B18796   1.014   4.689   6.371  0.5448 -4.3050 -0.7900
  167SAPE     P18797   0.763   4.638   6.214  0.1713 -0.2998  0.0762
  167SAPE   O1318798   0.727   4.755   6.128  0.1017  0.7248 -0.2641
  167SAPE   O1418799   0.685   4.515   6.178  0.3272 -0.2402 -0.6652
  167SAPE   O1218800   0.918   4.615   6.203  0.0953  0.1812 -0.2374
  167SAPE   O1118801   0.746   4.675   6.365  0.6293 -0.1908 -0.2607
  167SAPE    C118802   0.755   4.588   6.476  0.2296  0.0948 -0.2268
  167SAPE    HA18803   0.672   4.515   6.461  0.4071 -0.2283  0.3412
  167SAPE    HB18804   0.852   4.535   6.481  1.9961  2.9739 -1.5264
  167SAPE    C218805   0.750   4.679   6.607 -0.2551 -0.1458  0.2490
  167SAPE    HS18806   0.702   4.627   6.692 -1.0935  1.3303  0.7099
  167SAPE   O2118807   0.670   4.795   6.578 -0.4640  0.1885  0.2119
  167SAPE   C2118808   0.542   4.768   6.577  0.8740  0.3137  0.4347
  167SAPE   O2218809   0.489   4.657   6.592  0.7286 -0.1393 -0.0551
  167SAPE   C2218810   0.463   4.900   6.579  0.1459 -0.5184  0.3595
  167SAPE   H2R18811   0.516   4.986   6.534  0.1095 -2.3826 -3.7033
  167SAPE   H2S18812   0.369   4.883   6.522 -0.5999 -0.3555  1.5007
  167SAPE    C318813   0.885   4.736   6.639 -0.7750 -0.1550  0.2258
  167SAPE    HX18814   0.888   4.814   6.719  2.0828  1.0471 -0.9236
  167SAPE    HY18815   0.925   4.774   6.543 -1.7106 -2.8889 -1.3553
  167SAPE   O3118816   0.973   4.625   6.667  0.2296  0.0799  0.0913
  167SAPE   C3118817   0.987   4.599   6.806 -0.4948  0.5754  0.0923
  167SAPE   O3218818   0.951   4.682   6.887  0.5365  0.0816 -0.1009
  167SAPE   C3218819   1.058   4.467   6.833  0.2162 -0.5764  0.2231
  167SAPE   H2X18820   1.148   4.460   6.770  0.3124  2.5528 -0.1427
  167SAPE   H2Y18821   0.985   4.393   6.793 -0.1568  0.8759 -1.9468
  167SAPE   C2318822   0.410   4.936   6.719  0.5104 -0.0780  0.1346
  167SAPE   H3R18823   0.373   5.041   6.717 -2.7139 -1.1379 -0.7104
  167SAPE   H3S18824   0.487   4.936   6.799  0.0211  0.6927  0.6201
  167SAPE   C2418825   0.283   4.861   6.756 -0.3431  0.1868  0.0307
  167SAPE   H4R18826   0.300   4.752   6.768 -1.4514 -0.3753 -2.8209
  167SAPE   H4S18827   0.217   4.871   6.667 -0.3468  2.2238  0.2140
  167SAPE   C2518828   0.206   4.922   6.869 -0.2502 -0.2328  0.3747
  167SAPE   H5R18829   0.164   5.022   6.852 -1.5994 -0.2990  2.8887
  167SAPE   C2618830   0.181   4.874   6.990 -0.2233 -0.7545  1.0011
  167SAPE   H6R18831   0.129   4.935   7.065  0.1814  0.8074  0.0532
  167SAPE   C2718832   0.239   4.747   7.049  0.1386 -0.3034  0.7023
  167SAPE   H7R18833   0.283   4.786   7.144 -0.9892 -0.0622  1.1423
  167SAPE   H7S18834   0.318   4.708   6.981 -0.0507  2.1558 -1.0849
  167SAPE   C2818835   0.122   4.650   7.075 -0.5452  0.4931 -0.3357
  167SAPE   H8R18836   0.057   4.614   6.994 -1.7661  0.0697  0.8032
  167SAPE   C2918837   0.108   4.584   7.184  0.7084  0.5623  0.0640
  167SAPE   H9R18838   0.022   4.515   7.183  1.9104 -1.0236  0.4568
  167SAPE  C21018839   0.190   4.602   7.303 -0.6158  0.0858 -0.7928
  167SAPE  H10R18840   0.128   4.576   7.392 -0.7246 -0.8846 -1.1432
  167SAPE  H10S18841   0.217   4.710   7.311  0.7554 -0.2789 -0.2363
  167SAPE  C21118842   0.316   4.514   7.319  0.1953  1.3590  0.2678
  167SAPE  H11R18843   0.345   4.445   7.239 -2.1693  0.1370  0.3886
  167SAPE  C21218844   0.398   4.527   7.430 -0.0212 -0.4129  0.2635
  167SAPE  H12R18845   0.492   4.470   7.426 -0.9571 -2.0395  0.7835
  167SAPE  C21318846   0.376   4.622   7.540  0.1530 -0.5488 -0.5014
  167SAPE  H13R18847   0.283   4.598   7.597  1.7651  1.4784  3.4220
  167SAPE  H13S18848   0.373   4.728   7.506  1.3926  0.2068  1.5607
  167SAPE  C21418849   0.481   4.622   7.644 -0.1838 -0.1669 -0.0175
  167SAPE  H14R18850   0.562   4.695   7.625 -1.0264  0.8919  0.3588
  167SAPE  C21518851   0.481   4.539   7.753  0.1691  1.0888  0.2648
  167SAPE  H15R18852   0.564   4.540   7.825  2.8091  1.4320 -2.5749
  167SAPE  C21618853   0.376   4.435   7.780 -1.0481  0.3713 -0.0172
  167SAPE  H16R18854   0.396   4.355   7.705  0.0727  1.3367 -0.7846
  167SAPE  H16S18855   0.271   4.471   7.773 -0.8279  0.9851 -0.1851
  167SAPE  C21718856   0.393   4.364   7.922 -0.2734  0.1895 -0.1179
  167SAPE  H17R18857   0.498   4.331   7.939 -0.0707  1.1046  0.4369
  167SAPE  H17S18858   0.333   4.271   7.909  1.7404 -1.2551  0.3286
  167SAPE  C21818859   0.372   4.451   8.041 -0.1391  0.5258 -0.0439
  167SAPE  H18R18860   0.262   4.454   8.052 -0.2499 -2.2543  0.5314
  167SAPE  H18S18861   0.417   4.552   8.039 -1.2015  1.0220 -2.3392
  167SAPE  C21918862   0.410   4.389   8.176  0.1068  0.2584  0.3999
  167SAPE  H19R18863   0.510   4.343   8.166  0.1804  0.5100 -0.0621
  167SAPE  H19S18864   0.346   4.303   8.206 -1.6533  1.0058 -1.0034
  167SAPE  C22018865   0.412   4.494   8.294 -0.1886 -0.1973 -0.5436
  167SAPE  H20R18866   0.312   4.520   8.335  0.1589 -0.8514  0.7481
  167SAPE  H20S18867   0.476   4.582   8.270 -0.0542 -0.0732  0.2720
  167SAPE  H20T18868   0.470   4.455   8.380 -0.0758 -0.6484 -0.8175
  167SAPE   C3318869   1.100   4.454   6.982 -0.4550 -0.2083  0.0901
  167SAPE   H3X18870   1.144   4.551   7.013 -1.4094  0.2190  0.1617
  167SAPE   H3Y18871   1.181   4.378   6.985 -0.0225 -0.0278 -3.3185
  167SAPE   C3418872   0.983   4.410   7.079 -0.0101  0.2622  0.4242
  167SAPE   H4X18873   0.940   4.319   7.033  0.4524 -0.4479  1.3538
  167SAPE   H4Y18874   0.902   4.486   7.081 -0.1603  0.1058  0.2822
  167SAPE   C3518875   1.023   4.379   7.221  0.1430 -0.1660  0.4025
  167SAPE   H5X18876   0.943   4.327   7.277  1.1893 -1.8982  0.3676
  167SAPE   H5Y18877   1.040   4.479   7.267 -2.6434  0.1679  0.8546
  167SAPE   C3618878   1.149   4.299   7.253 -0.0653 -0.1342  0.5426
  167SAPE   H6X18879   1.244   4.354   7.235 -0.4500  0.1380 -0.7494
  167SAPE   H6Y18880   1.153   4.220   7.176 -0.8709  0.1104  0.2364
  167SAPE   C3718881   1.162   4.220   7.387  0.1925 -0.7490 -0.8412
  167SAPE   H7X18882   1.249   4.150   7.380 -0.6967 -1.8608 -1.1049
  167SAPE   H7Y18883   1.072   4.155   7.392  1.5513 -2.6628  2.2164
  167SAPE   C3818884   1.169   4.310   7.513 -0.1788  0.7120  0.5595
  167SAPE   H8X18885   1.067   4.338   7.548  0.7855  2.7707  1.9463
  167SAPE   H8Y18886   1.231   4.400   7.496  0.8929 -0.0750  0.1901
  167SAPE   C3918887   1.217   4.220   7.631 -0.1959 -0.3298 -0.3001
  167SAPE   H9X18888   1.322   4.192   7.605  0.2515 -0.4206  1.4532
  167SAPE   H9Y18889   1.174   4.117   7.626 -0.5666 -0.2860  1.3068
  167SAPE  C31018890   1.214   4.270   7.781  0.0758  0.1397 -0.0531
  167SAPE  H10X18891   1.112   4.313   7.793  0.2518  1.2333 -1.9635
  167SAPE  H10Y18892   1.287   4.355   7.786  0.4699 -0.2768  2.1722
  167SAPE  C31118893   1.252   4.175   7.894  0.2190  0.1623  0.6925
  167SAPE  H11X18894   1.347   4.128   7.862  0.6871  1.2301  0.4507
  167SAPE  H11Y18895   1.177   4.094   7.890  1.8702 -1.4047 -2.6703
  167SAPE  C31218896   1.271   4.231   8.037 -0.1583 -0.2354 -0.4607
  167SAPE  H12X18897   1.178   4.285   8.062  2.2405  3.9175  0.4402
  167SAPE  H12Y18898   1.349   4.310   8.040  1.5617 -1.8763 -0.1530
  167SAPE  C31318899   1.316   4.124   8.135 -0.5639  0.6973 -0.1379
  167SAPE  H13X18900   1.406   4.074   8.095 -1.6573 -0.4797 -1.2294
  167SAPE  H13Y18901   1.239   4.051   8.167  0.6935 -0.8845 -0.6471
  167SAPE  C31418902   1.370   4.194   8.262 -0.1020  0.3728 -0.6563
  167SAPE  H14X18903   1.313   4.283   8.295 -0.5659 -0.6180  1.3396
  167SAPE  H14Y18904   1.469   4.236   8.233 -0.5112  1.8474 -0.0008
  167SAPE  C31518905   1.382   4.097   8.391 -0.5120 -1.1454  0.7934
  167SAPE  H15X18906   1.273   4.077   8.393 -0.9237  0.6238 -0.7091
  167SAPE  H15Y18907   1.418   4.156   8.478 -1.2804 -0.4027  0.6309
  167SAPE  C31618908   1.464   3.972   8.356  0.0166  0.7528  0.0804
  167SAPE  H16X18909   1.572   3.996   8.355  0.0280  0.8420  1.6780
  167SAPE  H16Y18910   1.432   3.933   8.257  1.5919  1.1439 -0.6052
  167SAPE  C31718911   1.460   3.854   8.468 -0.7525 -0.6163  0.7995
  167SAPE  H17X18912   1.366   3.800   8.444 -0.3411 -1.5094  1.1561
  167SAPE  H17Y18913   1.460   3.890   8.573  2.7226  0.8750  0.4091
  167SAPE  C31818914   1.580   3.761   8.438 -0.0297 -0.4838 -0.1743
  167SAPE  H18X18915   1.670   3.827   8.437 -0.2834 -0.0799 -2.3630
  167SAPE  H18Y18916   1.570   3.720   8.335  2.4319 -1.4333 -0.1060
  167SAPE  H18Z18917   1.583   3.680   8.513 -1.0383  0.4567  0.9211
  168SAPE     N18918   1.141   6.752   6.467 -0.2985 -0.0076 -1.4175
  168SAPE   HN118919   1.069   6.769   6.540  0.2536 -2.5541 -0.1518
  168SAPE   HN218920   1.146   6.839   6.410  3.2501  1.0444  0.1851
  168SAPE   HN318921   1.109   6.676   6.403 -2.4292 -0.5434  0.1573
  168SAPE   C1218922   1.280   6.718   6.532  0.0055 -0.7129 -0.0750
  168SAPE  H12A18923   1.324   6.804   6.588 -1.0078 -0.0537 -0.2742
  168SAPE  H12B18924   1.340   6.690   6.443 -1.2551 -1.6858 -0.6488
  168SAPE   C1118925   1.267   6.606   6.634  0.1206  0.0099  0.0540
  168SAPE  H11A18926   1.200   6.643   6.715  2.1558  3.6160  0.3315
  168SAPE  H11B18927   1.368   6.590   6.677  0.4972 -0.0509 -0.8366
  168SAPE     P18928   1.293   6.378   6.511  0.2794 -0.0343  0.2055
  168SAPE   O1318929   1.215   6.251   6.505 -0.0377  0.0367 -0.5093
  168SAPE   O1418930   1.341   6.424   6.386 -0.4142 -0.0088 -0.1460
  168SAPE   O1218931   1.204   6.495   6.572  0.4030 -0.2782  0.2238
  168SAPE   O1118932   1.409   6.359   6.610 -0.5725 -0.7410  0.1588
  168SAPE    C118933   1.425   6.281   6.736 -0.3830  0.3266 -0.3246
  168SAPE    HA18934   1.378   6.183   6.709 -2.4999  1.6683 -1.8758
  168SAPE    HB18935   1.531   6.275   6.768 -0.1166 -1.6414 -1.4129
  168SAPE    C218936   1.350   6.342   6.855  0.8572 -0.4982  0.7182
  168SAPE    HS18937   1.252   6.371   6.813  0.9307 -0.6350  0.4531
  168SAPE   O2118938   1.424   6.456   6.899  0.1952  0.0725  0.3224
  168SAPE   C2118939   1.354   6.556   6.946  0.3777  0.1077 -0.2340
  168SAPE   O2218940   1.233   6.560   6.956 -0.4329  0.5103  0.2059
  168SAPE   C2218941   1.451   6.680   6.937  0.4238 -0.1488 -0.3271
  168SAPE   H2R18942   1.524   6.657   6.856 -0.4501 -0.7747 -0.9611
  168SAPE   H2S18943   1.390   6.766   6.903  2.2598  0.0246 -3.6041
  168SAPE    C318944   1.334   6.239   6.974 -0.9594  0.3688  0.7752
  168SAPE    HX18945   1.428   6.184   6.994 -0.7537  1.0748  1.8754
  168SAPE    HY18946   1.267   6.156   6.944 -0.0881 -0.6541  1.5551
  168SAPE   O3118947   1.285   6.309   7.088  0.2373  0.3216 -0.2504
  168SAPE   C3118948   1.171   6.266   7.144 -0.2960 -0.5806 -0.2797
  168SAPE   O3218949   1.092   6.186   7.097  0.0707 -0.2998 -0.4041
  168SAPE   C3218950   1.150   6.345   7.275  0.3768 -0.8832 -0.1374
  168SAPE   H2X18951   1.125   6.446   7.239 -0.7241 -1.8258 -2.1517
  168SAPE   H2Y18952   1.249   6.352   7.326 -0.3321  3.2205  1.0346
  168SAPE   C2318953   1.518   6.708   7.068 -0.1600 -0.3261  0.2385
  168SAPE   H3R18954   1.447   6.705   7.153  0.0372 -0.0867  0.4131
  168SAPE   H3S18955   1.558   6.812   7.064 -2.7138  0.7097  0.0466
  168SAPE   C2418956   1.637   6.609   7.110  0.0929  0.0548 -0.1545
  168SAPE   H4R18957   1.689   6.665   7.191  1.5489 -0.7207 -0.5135
  168SAPE   H4S18958   1.716   6.597   7.032 -0.5346  1.5541 -1.0571
  168SAPE   C2518959   1.581   6.476   7.148 -0.7060  1.0031  0.1690
  168SAPE   H5R18960   1.591   6.390   7.081 -1.6589  0.7305  0.3583
  168SAPE   C2618961   1.538   6.443   7.267 -0.6230  0.2656 -0.6347
  168SAPE   H6R18962   1.495   6.344   7.289 -2.7362  1.4914  1.2257
  168SAPE   C2718963   1.522   6.534   7.379 -0.4624 -0.1528 -0.5708
  168SAPE   H7R18964   1.549   6.639   7.356  3.3862 -0.4524  1.6825
  168SAPE   H7S18965   1.596   6.502   7.455 -1.0017  2.0934  0.9931
  168SAPE   C2818966   1.384   6.529   7.445 -0.0120 -0.4076  0.1964
  168SAPE   H8R18967   1.292   6.518   7.386  0.0982 -1.2389  0.1628
  168SAPE   C2918968   1.368   6.543   7.580 -0.2698 -0.0029  0.0183
  168SAPE   H9R18969   1.273   6.552   7.636  0.1455  0.0300  0.7251
  168SAPE  C21018970   1.479   6.557   7.683  0.0455 -0.1121  1.0491
  168SAPE  H10R18971   1.553   6.476   7.668 -2.1516 -2.0573 -0.0243
  168SAPE  H10S18972   1.435   6.516   7.776 -0.5002 -0.8980  0.4612
  168SAPE  C21118973   1.539   6.694   7.707  0.0013 -0.0401  0.1026
  168SAPE  H11R18974   1.606   6.725   7.625  0.1793 -0.6845 -0.0019
  168SAPE  C21218975   1.534   6.766   7.823  0.6550  0.4791  0.6586
  168SAPE  H12R18976   1.588   6.862   7.823 -0.4768  1.1512 -0.1574
  168SAPE  C21318977   1.454   6.730   7.943 -0.1120  0.2273 -0.2176
  168SAPE  H13R18978   1.375   6.656   7.920  0.2449 -0.6005  1.1140
  168SAPE  H13S18979   1.405   6.823   7.976  0.4411  0.9224 -1.2844
  168SAPE  C21418980   1.542   6.661   8.043 -0.4708 -0.3044  0.0528
  168SAPE  H14R18981   1.648   6.646   8.018  0.4335  0.0901  3.2554
  168SAPE  C21518982   1.505   6.617   8.166 -0.4469  0.8869  0.4799
  168SAPE  H15R18983   1.593   6.586   8.225  1.0478 -0.3432 -2.2208
  168SAPE  C21618984   1.363   6.620   8.235  0.1948 -0.1129  1.3897
  168SAPE  H16R18985   1.337   6.518   8.270  0.8628 -0.2575  1.4698
  168SAPE  H16S18986   1.285   6.643   8.159  0.2810 -1.9142  0.7007
  168SAPE  C21718987   1.356   6.735   8.336  0.4503 -0.1559 -0.1762
  168SAPE  H17R18988   1.419   6.821   8.303 -1.8886  1.7900  0.1271
  168SAPE  H17S18989   1.385   6.704   8.439 -0.2202 -3.8461 -0.9540
  168SAPE  C21818990   1.218   6.792   8.364 -0.1562  0.1525  0.1842
  168SAPE  H18R18991   1.139   6.714   8.367 -0.0867 -0.0560 -1.8073
  168SAPE  H18S18992   1.186   6.845   8.271 -2.0062 -0.9040  0.1843
  168SAPE  C21918993   1.210   6.877   8.490  0.0047 -0.4251  0.3163
  168SAPE  H19R18994   1.248   6.979   8.469  0.5490 -0.5227  0.8075
  168SAPE  H19S18995   1.285   6.845   8.565  1.7831  0.5585 -0.9767
  168SAPE  C22018996   1.066   6.898   8.538  0.1257 -0.0421 -0.8246
  168SAPE  H20R18997   1.071   6.975   8.618  1.4961 -1.7695  0.8498
  168SAPE  H20S18998   1.031   6.805   8.589  1.1551  0.2249  0.4209
  168SAPE  H20T18999   1.000   6.939   8.458  0.8716 -0.6801 -1.7822
  168SAPE   C3319000   1.035   6.289   7.371  0.5470 -0.2614  0.5095
  168SAPE   H3X19001   0.948   6.256   7.310  0.7382  0.9725 -0.4814
  168SAPE   H3Y19002   1.005   6.377   7.432  2.5456  0.2642  0.7791
  168SAPE   C3419003   1.077   6.168   7.452  0.0452  0.0198  0.7188
  168SAPE   H4X19004   1.170   6.193   7.508  1.5648  0.2500 -1.7591
  168SAPE   H4Y19005   1.101   6.086   7.381  0.1705  1.4305 -0.9146
  168SAPE   C3519006   0.966   6.099   7.537  0.2425  0.3354 -0.8914
  168SAPE   H5X19007   0.977   5.990   7.520 -0.1954 -0.0312  0.9940
  168SAPE   H5Y19008   0.867   6.143   7.511  0.3124  0.4279 -1.0033
  168SAPE   C3619009   0.981   6.118   7.691  0.1459 -0.2596  0.2964
  168SAPE   H6X19010   0.885   6.106   7.745  0.7852  0.7019  1.7107
  168SAPE   H6Y19011   1.013   6.222   7.714 -1.8356  0.4223  0.1013
  168SAPE   C3719012   1.083   6.019   7.761 -0.2791  0.1654 -0.9597
  168SAPE   H7X19013   1.182   6.031   7.713 -0.7109  2.2214 -1.4549
  168SAPE   H7Y19014   1.048   5.916   7.741  0.4394 -0.1284 -0.7372
  168SAPE   C3819015   1.101   6.036   7.917 -1.0790 -0.3175  0.2807
  168SAPE   H8X19016   1.166   5.959   7.963  0.0264 -1.1408 -2.4934
  168SAPE   H8Y19017   0.998   6.042   7.958 -1.7864  0.0162 -1.4636
  168SAPE   C3919018   1.156   6.168   7.968  0.5722 -0.0710  0.2040
  168SAPE   H9X19019   1.094   6.255   7.939  0.2561 -0.7180 -1.0968
  168SAPE   H9Y19020   1.250   6.193   7.914  1.0436  0.5888  1.2871
  168SAPE  C31019021   1.188   6.165   8.117  0.1572  0.6215 -0.0527
  168SAPE  H10X19022   1.243   6.261   8.131  0.5298  0.3145  0.6309
  168SAPE  H10Y19023   1.280   6.106   8.141 -0.2194  0.0287 -0.0457
  168SAPE  C31119024   1.064   6.160   8.198  0.0950  0.1506  0.2914
  168SAPE  H11X19025   1.013   6.065   8.172  1.1037 -0.5448  0.7929
  168SAPE  H11Y19026   0.993   6.239   8.166 -0.6749 -0.1705  1.1402
  168SAPE  C31219027   1.085   6.176   8.350  0.2648  0.5039 -0.7065
  168SAPE  H12X19028   1.128   6.077   8.378 -0.8310 -0.2245 -1.4702
  168SAPE  H12Y19029   0.986   6.191   8.398 -0.4350  0.2128 -1.9988
  168SAPE  C31319030   1.174   6.291   8.405 -0.0045  0.0202  0.6561
  168SAPE  H13X19031   1.134   6.382   8.357  0.4086 -0.0392  0.1890
  168SAPE  H13Y19032   1.280   6.276   8.376 -0.4224  0.7051 -1.3041
  168SAPE  C31419033   1.151   6.311   8.555 -0.1057  0.2087 -0.0040
  168SAPE  H14X19034   1.181   6.224   8.618  1.1818  0.6233 -0.0143
  168SAPE  H14Y19035   1.041   6.326   8.555 -0.1525 -0.0964 -0.6147
  168SAPE  C31519036   1.223   6.430   8.605 -0.4168  0.4604  0.0890
  168SAPE  H15X19037   1.225   6.525   8.548 -1.2493  1.7942  2.1491
  168SAPE  H15Y19038   1.330   6.408   8.625 -0.3089  0.7550 -0.1521
  168SAPE  C31619039   1.179   6.468   8.748  0.6782  0.7932  0.9673
  168SAPE  H16X19040   1.181   6.372   8.803  1.6217 -1.4847 -2.7151
  168SAPE  H16Y19041   1.082   6.524   8.747 -0.9840 -1.9173  1.2921
  168SAPE  C31719042   1.281   6.571   8.811  0.5583  0.5678 -0.4009
  168SAPE  H17X19043   1.307   6.643   8.732 -2.2523  0.8133 -1.1964
  168SAPE  H17Y19044   1.376   6.517   8.836 -0.2770  0.5434  3.4735
  168SAPE  C31819045   1.223   6.640   8.928  0.5076 -0.7115 -0.2972
  168SAPE  H18X19046   1.202   6.562   9.003  1.9677 -1.4799 -0.6612
  168SAPE  H18Y19047   1.147   6.715   8.895  0.4882  0.5959  2.4156
  168SAPE  H18Z19048   1.298   6.704   8.977 -1.9189  3.1229 -1.1143
  169SAPE     N19049   1.552   1.327   6.367 -0.1681  0.1575  0.4449
  169SAPE   HN119050   1.540   1.338   6.264  1.7815  2.1873  0.3589
  169SAPE   HN219051   1.653   1.321   6.389 -0.6240 -0.0445  2.7352
  169SAPE   HN319052   1.511   1.239   6.405  1.7132 -0.1589  1.8992
  169SAPE   C1219053   1.492   1.439   6.455  0.0561  0.7238  0.5823
  169SAPE  H12A19054   1.555   1.528   6.435  1.3079  0.0425  1.3929
  169SAPE  H12B19055   1.495   1.411   6.562  1.0144  0.9538  0.6245
  169SAPE   C1119056   1.343   1.462   6.425  0.7696 -0.1515  0.3741
  169SAPE  H11A19057   1.311   1.525   6.510  1.3594  1.1492 -0.3378
  169SAPE  H11B19058   1.301   1.359   6.429  1.0884 -0.3381 -0.6413
  169SAPE     P19059   1.299   1.675   6.288 -0.1353 -0.2697  0.0572
  169SAPE   O1319060   1.432   1.737   6.312 -0.0063 -0.0365  0.6836
  169SAPE   O1419061   1.226   1.709   6.167  0.0420 -0.0899 -0.0860
  169SAPE   O1219062   1.323   1.521   6.295 -0.0663  0.4077  0.0046
  169SAPE   O1119063   1.202   1.701   6.417  0.0840  0.1175  0.2877
  169SAPE    C119064   1.161   1.837   6.439 -0.6148 -0.0000  0.0146
  169SAPE    HA19065   1.192   1.905   6.357 -3.7551  1.2890 -0.2323
  169SAPE    HB19066   1.050   1.833   6.444 -0.9090  0.7016 -3.4039
  169SAPE    C219067   1.220   1.894   6.572 -0.2295 -0.1870 -0.0618
  169SAPE    HS19068   1.330   1.900   6.558 -0.0706  1.0838  1.4519
  169SAPE   O2119069   1.182   1.802   6.685 -0.1102 -0.8190  0.2342
  169SAPE   C2119070   1.272   1.713   6.719 -0.4751 -0.7239  0.4707
  169SAPE   O2219071   1.385   1.711   6.672  0.1226 -0.1447 -0.0130
  169SAPE   C2219072   1.216   1.616   6.819 -0.1660  0.3347  0.7916
  169SAPE   H2R19073   1.230   1.661   6.920  2.6258 -1.6212  1.4010
  169SAPE   H2S19074   1.112   1.595   6.785  0.0072  1.6453 -0.6552
  169SAPE    C319075   1.171   2.037   6.600  0.8370 -0.5165 -0.7782
  169SAPE    HX19076   1.060   2.044   6.595  0.9295  0.4720 -1.6524
  169SAPE    HY19077   1.211   2.110   6.527  2.5278 -0.2456  0.3599
  169SAPE   O3119078   1.195   2.084   6.736 -0.4353  0.1907 -0.0427
  169SAPE   C3119079   1.325   2.120   6.768  0.7770 -0.2590  0.6715
  169SAPE   O3219080   1.426   2.086   6.706  0.1805  0.2410  0.7166
  169SAPE   C3219081   1.326   2.208   6.890 -0.7342 -0.2652 -0.2371
  169SAPE   H2X19082   1.233   2.269   6.892 -0.3572  0.3051  0.6915
  169SAPE   H2Y19083   1.412   2.277   6.880 -1.3182  0.6674  0.8947
  169SAPE   C2319084   1.298   1.485   6.808 -0.6792  0.0148 -0.3595
  169SAPE   H3R19085   1.402   1.506   6.841  0.2175 -0.0175 -2.9447
  169SAPE   H3S19086   1.307   1.452   6.702 -0.1672 -1.3593  0.0844
  169SAPE   C2419087   1.239   1.362   6.885  0.3353  0.0317  0.3846
  169SAPE   H4R19088   1.137   1.336   6.848 -0.0989 -1.7010  2.5911
  169SAPE   H4S19089   1.215   1.383   6.991 -0.9366  1.2405 -0.0954
  169SAPE   C2519090   1.334   1.241   6.871 -0.1495 -0.9246  0.0852
  169SAPE   H5R19091   1.308   1.192   6.776  0.4878 -1.7188  0.3123
  169SAPE   C2619092   1.424   1.190   6.957  0.3553 -0.4687 -0.1197
  169SAPE   H6R19093   1.480   1.101   6.924 -0.2493 -0.5979 -0.7978
  169SAPE   C2719094   1.465   1.253   7.087  0.7537 -0.3115  0.4145
  169SAPE   H7R19095   1.413   1.350   7.104 -1.7975 -1.6283  0.5875
  169SAPE   H7S19096   1.571   1.285   7.095 -0.1409  3.1560  0.2455
  169SAPE   C2819097   1.433   1.160   7.202 -0.1572 -0.1676 -0.2180
  169SAPE   H8R19098   1.377   1.069   7.176 -0.6706 -0.1154  0.6719
  169SAPE   C2919099   1.468   1.180   7.331 -0.4813 -0.1643  0.2441
  169SAPE   H9R19100   1.463   1.086   7.388  0.0802 -1.5566 -1.8665
  169SAPE  C21019101   1.559   1.296   7.385 -0.8497  0.4408  0.3883
  169SAPE  H10R19102   1.515   1.327   7.483 -3.1463  0.0304 -0.4482
  169SAPE  H10S19103   1.542   1.384   7.319  0.5502  1.0736  0.8360
  169SAPE  C21119104   1.706   1.263   7.389  0.5176 -0.1673 -0.5010
  169SAPE  H11R19105   1.729   1.176   7.326  3.2492  0.6628 -0.7727
  169SAPE  C21219106   1.809   1.334   7.447  0.2853  0.3904 -0.0700
  169SAPE  H12R19107   1.901   1.279   7.422  2.0092  2.6691  0.8938
  169SAPE  C21319108   1.818   1.458   7.528  0.1753 -0.1555 -0.4046
  169SAPE  H13R19109   1.731   1.524   7.502  0.5721  1.3433  1.7783
  169SAPE  H13S19110   1.902   1.519   7.489  0.9994 -1.8607 -1.4034
  169SAPE  C21419111   1.820   1.433   7.683  0.4779  0.1016 -0.0900
  169SAPE  H14R19112   1.810   1.328   7.714  1.8374 -0.3008 -0.8951
  169SAPE  C21519113   1.837   1.532   7.769 -0.0651  0.6775  0.0248
  169SAPE  H15R19114   1.833   1.512   7.877  0.1022 -2.4733 -0.4664
  169SAPE  C21619115   1.862   1.677   7.738 -0.3325  0.0370 -0.5400
  169SAPE  H16R19116   1.814   1.707   7.642 -0.3237  1.5540 -0.0867
  169SAPE  H16S19117   1.966   1.712   7.754 -1.1504  1.3830  2.3688
  169SAPE  C21719118   1.787   1.777   7.836 -0.6890 -0.2198  0.3829
  169SAPE  H17R19119   1.681   1.744   7.849 -0.9962  1.0875  1.5453
  169SAPE  H17S19120   1.776   1.880   7.794 -0.7018  0.1783  1.3329
  169SAPE  C21819121   1.855   1.786   7.973  0.7984 -0.4921 -0.2298
  169SAPE  H18R19122   1.940   1.858   7.976 -1.4273  2.3177  2.1563
  169SAPE  H18S19123   1.894   1.690   8.012  1.8782 -0.0935 -0.2942
  169SAPE  C21919124   1.751   1.841   8.080  0.5884 -0.0587 -0.0318
  169SAPE  H19R19125   1.660   1.777   8.084  0.6789 -0.1716  0.2158
  169SAPE  H19S19126   1.722   1.942   8.045  2.5722  1.2519  1.8711
  169SAPE  C22019127   1.816   1.863   8.215 -0.1643  0.0290 -0.7605
  169SAPE  H20R19128   1.908   1.924   8.203  0.9559 -1.2859  0.6339
  169SAPE  H20S19129   1.853   1.766   8.255 -0.1579 -0.4448 -1.8920
  169SAPE  H20T19130   1.750   1.911   8.291 -0.5997  1.3506 -1.9399
  169SAPE   C3319131   1.349   2.136   7.023  0.4549  0.0401 -0.6545
  169SAPE   H3X19132   1.459   2.122   7.033  0.4792  0.5468 -0.2089
  169SAPE   H3Y19133   1.309   2.032   7.017  0.0937  0.2354 -1.7398
  169SAPE   C3419134   1.282   2.188   7.149  0.1903  0.4609 -0.0156
  169SAPE   H4X19135   1.281   2.114   7.232  1.2478 -0.4230 -0.7486
  169SAPE   H4Y19136   1.176   2.208   7.124 -0.1781 -2.3273 -1.0298
  169SAPE   C3519137   1.357   2.315   7.193  0.0611 -0.6386  0.0809
  169SAPE   H5X19138   1.363   2.389   7.111 -2.0237 -1.3782 -0.8089
  169SAPE   H5Y19139   1.453   2.284   7.239  0.0490  0.9032  1.2396
  169SAPE   C3619140   1.287   2.391   7.310  0.2315  0.4350  0.7954
  169SAPE   H6X19141   1.292   2.334   7.405  0.0232 -0.8412  0.0633
  169SAPE   H6Y19142   1.182   2.411   7.279  0.5734  1.0640  0.0003
  169SAPE   C3719143   1.360   2.522   7.341  0.4907 -0.1112  0.0723
  169SAPE   H7X19144   1.341   2.592   7.258 -0.2400  0.2360  0.5286
  169SAPE   H7Y19145   1.468   2.496   7.352  0.5871  0.2725  0.0194
  169SAPE   C3819146   1.310   2.609   7.463 -0.2112 -0.2462 -0.4669
  169SAPE   H8X19147   1.201   2.606   7.440 -0.0643  0.2144 -1.2489
  169SAPE   H8Y19148   1.336   2.716   7.454  1.9668 -0.8608 -2.6271
  169SAPE   C3919149   1.337   2.555   7.601  0.1388 -0.5964 -0.3951
  169SAPE   H9X19150   1.446   2.535   7.612  0.1835 -0.7331 -1.0369
  169SAPE   H9Y19151   1.283   2.460   7.621  0.1597 -0.6175 -0.4393
  169SAPE  C31019152   1.302   2.657   7.709 -0.0449 -1.0662  0.7294
  169SAPE  H10X19153   1.196   2.689   7.705  0.8521  2.1751 -0.3508
  169SAPE  H10Y19154   1.370   2.743   7.688  0.9224 -1.9043  0.3296
  169SAPE  C31119155   1.335   2.604   7.846 -0.0485 -1.1381  0.3914
  169SAPE  H11X19156   1.314   2.686   7.918  2.8286  0.8074 -0.7751
  169SAPE  H11Y19157   1.441   2.572   7.853  0.2319 -0.8652 -1.7758
  169SAPE  C31219158   1.252   2.490   7.901 -0.3135 -0.1661 -0.4322
  169SAPE  H12X19159   1.282   2.400   7.844 -0.6518 -0.0833 -0.7439
  169SAPE  H12Y19160   1.145   2.514   7.879 -0.6427 -0.3921  0.8358
  169SAPE  C31319161   1.284   2.452   8.050  0.5164 -0.1014  0.2862
  169SAPE  H13X19162   1.389   2.415   8.055 -0.0260 -1.7200  0.2393
  169SAPE  H13Y19163   1.222   2.362   8.073  1.2731 -1.4112 -2.3761
  169SAPE  C31419164   1.255   2.563   8.153  0.5409 -0.6337 -0.2161
  169SAPE  H14X19165   1.153   2.596   8.127  0.6864  0.2864  0.3379
  169SAPE  H14Y19166   1.324   2.650   8.146  1.3793 -1.3208 -0.9988
  169SAPE  C31519167   1.254   2.505   8.297 -0.0636 -0.2991  0.4117
  169SAPE  H15X19168   1.364   2.494   8.305  0.1415  0.7009 -0.6964
  169SAPE  H15Y19169   1.217   2.400   8.297 -1.9380  0.2944  1.4661
  169SAPE  C31619170   1.192   2.597   8.399  0.4927  0.0829  0.4843
  169SAPE  H16X19171   1.232   2.700   8.387  2.9348 -0.9068 -0.4444
  169SAPE  H16Y19172   1.230   2.558   8.496  0.5346 -2.6549 -0.5642
  169SAPE  C31719173   1.038   2.591   8.398  0.1424  0.4265  0.1824
  169SAPE  H17X19174   1.026   2.481   8.397 -1.5938  0.5944 -0.4394
  169SAPE  H17Y19175   0.998   2.631   8.303 -0.2437 -0.1034  0.1174
  169SAPE  C31819176   0.971   2.635   8.530  0.5272 -0.2823  0.1268
  169SAPE  H18X19177   0.865   2.652   8.503  0.6824  1.3875  0.4135
  169SAPE  H18Y19178   1.008   2.730   8.577 -0.2060  0.7474 -1.3059
  169SAPE  H18Z19179   0.978   2.558   8.610 -0.3252  0.8786  1.3798
  170SAPE     N19180   0.655   5.242   6.277  0.0021  0.1835  0.3455
  170SAPE   HN119181   0.634   5.308   6.199  0.5726  2.4729  2.0265
  170SAPE   HN219182   0.759   5.238   6.280 -0.0676 -2.6640  1.3183
  170SAPE   HN319183   0.611   5.153   6.247 -1.4520  1.6258 -2.1171
  170SAPE   C1219184   0.606   5.302   6.403  0.4447  0.0490  0.1204
  170SAPE  H12A19185   0.638   5.408   6.406 -2.2437  0.9397  1.9925
  170SAPE  H12B19186   0.640   5.250   6.496  1.1561  0.1560 -0.0777
  170SAPE   C1119187   0.458   5.307   6.404 -0.1093 -0.5465  0.1121
  170SAPE  H11A19188   0.441   5.349   6.505 -2.0339  1.3770 -0.9545
  170SAPE  H11B19189   0.407   5.208   6.404 -0.8333 -0.1932  1.5345
  170SAPE     P19190   0.268   5.454   6.295  0.0977 -0.0908  0.0303
  170SAPE   O1319191   0.289   5.596   6.253 -0.9563  0.5706 -0.1073
  170SAPE   O1419192   0.172   5.371   6.213  0.3234 -0.0172  0.0246
  170SAPE   O1219193   0.407   5.390   6.296  0.7702  0.3840  0.1865
  170SAPE   O1119194   0.234   5.449   6.451  0.2693  0.6774  0.8363
  170SAPE    C119195   0.154   5.335   6.487 -0.4145  0.5960 -0.0594
  170SAPE    HA19196   0.055   5.346   6.437  1.0551  2.1789 -2.8871
  170SAPE    HB19197   0.202   5.237   6.466  1.2072  1.5719 -1.1832
  170SAPE    C219198   0.140   5.341   6.640  0.1244 -0.3746  1.8737
  170SAPE    HS19199   0.092   5.436   6.673  0.7304  0.8749 -0.6356
  170SAPE   O2119200   0.270   5.321   6.695  0.7701  0.8978  0.1315
  170SAPE   C2119201   0.285   5.377   6.816 -0.8892 -0.8898 -0.3228
  170SAPE   O2219202   0.205   5.453   6.867 -0.0858 -0.2854  0.3064
  170SAPE   C2219203   0.401   5.297   6.894 -0.4831  0.7938  0.3702
  170SAPE   H2R19204   0.349   5.205   6.930  1.3757 -0.5155 -0.1464
  170SAPE   H2S19205   0.481   5.277   6.820  1.4505  1.3729  2.2051
  170SAPE    C319206   0.052   5.221   6.692  0.4030 -0.4297  0.7427
  170SAPE    HX19207   0.102   5.125   6.667 -2.7572 -1.6760 -1.3744
  170SAPE    HY19208  -0.044   5.208   6.637 -0.1756  0.5468  1.4893
  170SAPE   O3119209   0.040   5.225   6.840  0.5085 -0.3442  0.2659
  170SAPE   C3119210  -0.081   5.271   6.876  0.0380  0.1003  0.1702
  170SAPE   O3219211  -0.166   5.312   6.801  0.1249  0.4910 -0.0279
  170SAPE   C3219212  -0.076   5.288   7.027  0.1120  0.2086  0.1950
  170SAPE   H2X19213   0.020   5.332   7.060  1.3697 -3.3099  1.7445
  170SAPE   H2Y19214  -0.066   5.188   7.076 -0.9054  1.9564  4.4038
  170SAPE   C2319215   0.465   5.372   7.010  0.1356 -0.9931 -0.3712
  170SAPE   H3R19216   0.488   5.477   6.981 -1.0907  0.2050  2.5983
  170SAPE   H3S19217   0.565   5.326   7.026 -0.8585 -3.0084  0.4460
  170SAPE   C2419218   0.376   5.365   7.135  0.0526  0.3782 -0.1899
  170SAPE   H4R19219   0.272   5.384   7.098 -0.3192 -1.2151 -0.0365
  170SAPE   H4S19220   0.408   5.445   7.205  2.4328 -0.9076  0.2735
  170SAPE   C2519221   0.383   5.233   7.209  0.6324 -0.1378 -0.0240
  170SAPE   H5R19222   0.459   5.166   7.167  1.5072  1.8676 -1.8484
  170SAPE   C2619223   0.292   5.184   7.299  0.7255  0.3458 -0.2435
  170SAPE   H6R19224   0.300   5.080   7.334 -1.4515 -0.1029 -0.9683
  170SAPE   C2719225   0.177   5.261   7.362  0.4840  0.1014  0.4964
  170SAPE   H7R19226   0.150   5.348   7.300  0.4647 -0.8809 -0.9251
  170SAPE   H7S19227   0.205   5.293   7.465  1.2035 -1.0157  0.6688
  170SAPE   C2819228   0.064   5.162   7.377 -0.2700  0.2469 -0.0571
  170SAPE   H8R19229  -0.017   5.173   7.304  0.2647  1.0416 -0.5381
  170SAPE   C2919230   0.046   5.072   7.480 -0.0947 -0.2263 -0.6207
  170SAPE   H9R19231  -0.044   5.010   7.481 -0.6999  0.6148 -1.6862
  170SAPE  C21019232   0.132   5.048   7.605 -0.0489 -0.0422  0.3018
  170SAPE  H10R19233   0.241   5.062   7.586  0.0067 -0.0219  0.6387
  170SAPE  H10S19234   0.120   4.940   7.624 -0.5162 -0.1400 -0.4788
  170SAPE  C21119235   0.077   5.119   7.722 -0.0492  0.0415  0.2170
  170SAPE  H11R19236  -0.001   5.195   7.710 -3.2554 -2.9774  0.3590
  170SAPE  C21219237   0.118   5.098   7.850 -0.0577  0.6271  0.1872
  170SAPE  H12R19238   0.069   5.155   7.930 -1.4390  1.0798 -0.9295
  170SAPE  C21319239   0.223   5.004   7.899 -0.2278 -0.0347  0.3984
  170SAPE  H13R19240   0.262   5.041   7.997  0.7059 -0.6542  0.2810
  170SAPE  H13S19241   0.305   5.000   7.824 -1.0063 -0.6396 -0.4464
  170SAPE  C21419242   0.185   4.856   7.923  0.9681 -0.4839  0.8705
  170SAPE  H14R19243   0.130   4.822   7.834  1.7326 -0.6245  0.4438
  170SAPE  C21519244   0.209   4.784   8.036 -0.1606  0.3008 -0.6258
  170SAPE  H15R19245   0.159   4.686   8.043  1.0073 -0.2070  1.2410
  170SAPE  C21619246   0.291   4.830   8.149  0.1106 -0.4660 -0.0995
  170SAPE  H16R19247   0.375   4.896   8.117 -0.3288  0.0237 -0.2479
  170SAPE  H16S19248   0.333   4.738   8.196  0.8038 -0.0150  0.1899
  170SAPE  C21719249   0.203   4.904   8.255  0.0290  0.2598  0.6482
  170SAPE  H17R19250   0.177   5.004   8.214  0.7121  0.1966  0.0419
  170SAPE  H17S19251   0.266   4.917   8.345  0.8765 -1.0532  0.2753
  170SAPE  C21819252   0.081   4.818   8.293 -0.2297 -0.0179  0.3680
  170SAPE  H18R19253   0.120   4.717   8.318 -1.4676 -0.5584  0.1692
  170SAPE  H18S19254   0.010   4.808   8.208 -0.8505 -0.1502  0.8956
  170SAPE  C21919255   0.008   4.866   8.419  0.2022 -0.7050 -0.3408
  170SAPE  H19R19256  -0.050   4.959   8.400  2.5538  0.9717  0.1087
  170SAPE  H19S19257   0.085   4.896   8.493 -0.4823 -0.9270  0.4727
  170SAPE  C22019258  -0.083   4.756   8.476 -0.1870  0.5145 -0.4423
  170SAPE  H20R19259  -0.019   4.681   8.527 -2.4345 -1.0967  0.2105
  170SAPE  H20S19260  -0.128   4.694   8.395 -1.4478  0.2492  0.4274
  170SAPE  H20T19261  -0.154   4.798   8.550  1.1146  0.8697  0.6386
  170SAPE   C3319262  -0.211   5.348   7.082 -0.2652  0.3741 -0.3166
  170SAPE   H3X19263  -0.214   5.318   7.189  0.4205  0.6399 -0.2191
  170SAPE   H3Y19264  -0.301   5.304   7.033  0.0223 -0.3889 -0.1709
  170SAPE   C3419265  -0.202   5.498   7.066 -0.0611 -0.3077 -0.2189
  170SAPE   H4X19266  -0.216   5.513   6.957  0.2000  0.0909 -0.1979
  170SAPE   H4Y19267  -0.099   5.531   7.092 -0.2742 -0.0273  0.2851
  170SAPE   C3519268  -0.300   5.579   7.153  0.1039  0.0890 -0.2693
  170SAPE   H5X19269  -0.273   5.563   7.260 -1.7022 -0.4937  0.1300
  170SAPE   H5Y19270  -0.399   5.531   7.148  0.3471 -0.4691  0.1327
  170SAPE   C3619271  -0.295   5.722   7.123  0.2614 -0.8797 -0.4721
  170SAPE   H6X19272  -0.323   5.736   7.017 -0.0396  0.8318 -0.1887
  170SAPE   H6Y19273  -0.194   5.767   7.126  0.8078 -2.0373  2.3753
  170SAPE   C3719274  -0.391   5.802   7.211  0.6252  0.3410  0.0754
  170SAPE   H7X19275  -0.492   5.756   7.215  0.3353  0.8887 -0.5860
  170SAPE   H7Y19276  -0.406   5.900   7.162 -1.3170 -0.3336 -0.7908
  170SAPE   C3819277  -0.337   5.832   7.349  0.3844  0.2424 -0.7560
  170SAPE   H8X19278  -0.229   5.853   7.334  0.0255  0.7357 -2.9253
  170SAPE   H8Y19279  -0.342   5.753   7.427  0.4212  0.7932 -0.1831
  170SAPE   C3919280  -0.397   5.962   7.409  0.2913  0.8137 -0.0208
  170SAPE   H9X19281  -0.506   5.948   7.394  0.2551  2.6804 -1.9962
  170SAPE   H9Y19282  -0.365   6.043   7.341 -0.4946  0.3438 -0.9785
  170SAPE  C31019283  -0.360   5.997   7.551  0.4589 -0.1853 -0.7183
  170SAPE  H10X19284  -0.389   6.101   7.577  2.4029  0.5523 -1.3530
  170SAPE  H10Y19285  -0.250   6.010   7.550  0.3848  0.9869  0.9908
  170SAPE  C31119286  -0.396   5.893   7.658 -0.3240 -0.0715 -0.8013
  170SAPE  H11X19287  -0.369   5.790   7.626  0.4306 -0.2573  0.3677
  170SAPE  H11Y19288  -0.505   5.900   7.681  0.1365  1.3085  1.2911
  170SAPE  C31219289  -0.319   5.929   7.793  0.2149  0.1717 -0.4495
  170SAPE  H12X19290  -0.353   6.033   7.812  0.4837  0.2148 -0.1988
  170SAPE  H12Y19291  -0.209   5.939   7.780  0.4164 -0.7094  0.4835
  170SAPE  C31319292  -0.358   5.835   7.907  0.3436  0.1745 -0.3774
  170SAPE  H13X19293  -0.330   5.732   7.877 -0.2365  0.1064 -0.7001
  170SAPE  H13Y19294  -0.467   5.848   7.922  0.6744  1.9578  0.7868
  170SAPE  C31419295  -0.271   5.872   8.035 -0.2899 -0.1009 -0.0204
  170SAPE  H14X19296  -0.234   5.975   8.017 -0.8230  0.1735  0.4244
  170SAPE  H14Y19297  -0.184   5.804   8.020  0.1745  0.7755 -1.4733
  170SAPE  C31519298  -0.353   5.864   8.165  0.2851 -0.4301  0.3143
  170SAPE  H15X19299  -0.388   5.760   8.174 -1.9639  0.1672 -0.9205
  170SAPE  H15Y19300  -0.443   5.926   8.144  1.1611  0.6283 -0.4131
  170SAPE  C31619301  -0.272   5.911   8.290 -0.5080  0.7394 -0.3724
  170SAPE  H16X19302  -0.348   5.913   8.371 -1.5239 -1.7147 -1.1552
  170SAPE  H16Y19303  -0.229   6.013   8.295  0.6094  0.2938 -0.4708
  170SAPE  C31719304  -0.168   5.808   8.349  0.6133 -0.7363 -0.6882
  170SAPE  H17X19305  -0.151   5.714   8.293  1.3864 -1.1263  0.1843
  170SAPE  H17Y19306  -0.203   5.796   8.454 -0.2518  0.0086 -0.8729
  170SAPE  C31819307  -0.024   5.884   8.351 -0.6295  0.3164 -0.4937
  170SAPE  H18X19308  -0.027   5.947   8.442 -2.9866 -0.3851  0.0044
  170SAPE  H18Y19309  -0.003   5.941   8.259  0.0474  1.3761  0.2997
  170SAPE  H18Z19310   0.061   5.817   8.373 -0.5977  0.7263  0.7151
  171SAPE     N19311   2.525   6.264   6.102 -0.3614  0.6705 -0.4123
  171SAPE   HN119312   2.606   6.292   6.162  0.2918  1.0127 -1.4286
  171SAPE   HN219313   2.519   6.161   6.117  1.8213  0.4244 -0.7739
  171SAPE   HN319314   2.566   6.274   6.007 -0.1210 -0.4712 -0.4472
  171SAPE   C1219315   2.399   6.336   6.130  0.1416  0.5717  0.0806
  171SAPE  H12A19316   2.314   6.267   6.151 -1.2808  2.0945 -0.4354
  171SAPE  H12B19317   2.374   6.402   6.044 -0.6132 -0.7613 -0.7550
  171SAPE   C1119318   2.411   6.415   6.261  0.8109  0.3558 -0.0784
  171SAPE  H11A19319   2.406   6.358   6.357  0.2787  0.6241  0.0567
  171SAPE  H11B19320   2.330   6.491   6.260 -1.0049 -1.4643 -1.6691
  171SAPE     P19321   2.593   6.558   6.373  0.3609  0.3346 -0.2395
  171SAPE   O1319322   2.737   6.568   6.371 -0.1392  0.0811 -0.5541
  171SAPE   O1419323   2.526   6.686   6.364  0.2104 -0.6972  0.2287
  171SAPE   O1219324   2.535   6.476   6.254 -0.7047  0.2264  0.5825
  171SAPE   O1119325   2.525   6.497   6.502 -0.3462 -0.2745  0.1854
  171SAPE    C119326   2.588   6.398   6.584  0.0687  0.4215 -0.6804
  171SAPE    HA19327   2.513   6.317   6.593 -0.0186  0.4082 -1.4297
  171SAPE    HB19328   2.680   6.358   6.536  1.0951  1.3552  0.4298
  171SAPE    C219329   2.621   6.444   6.724 -0.0894 -0.2035  0.2458
  171SAPE    HS19330   2.523   6.478   6.764 -0.4187 -0.3705 -0.4000
  171SAPE   O2119331   2.727   6.542   6.705 -0.6793  0.2336  0.3185
  171SAPE   C2119332   2.724   6.641   6.793 -0.2557 -0.1138  0.2634
  171SAPE   O2219333   2.640   6.649   6.881 -0.3458 -0.2433 -0.3500
  171SAPE   C2219334   2.842   6.732   6.776 -0.2447  0.0804 -0.5596
  171SAPE   H2R19335   2.936   6.680   6.747 -0.1263 -0.9050  1.4489
  171SAPE   H2S19336   2.820   6.806   6.696 -0.0554 -1.2229 -1.8510
  171SAPE    C319337   2.665   6.331   6.817  0.3746 -0.4343  0.2792
  171SAPE    HX19338   2.767   6.302   6.786  0.2819  0.4281 -0.8880
  171SAPE    HY19339   2.601   6.244   6.790 -0.1284  0.3459 -1.1078
  171SAPE   O3119340   2.679   6.360   6.955 -0.1389 -0.5668 -0.5739
  171SAPE   C3119341   2.560   6.358   7.020  0.0390  0.4640 -0.2733
  171SAPE   O3219342   2.460   6.314   6.971  0.1451 -0.8230 -0.0067
  171SAPE   C3219343   2.577   6.412   7.163 -0.0308  0.2594 -0.4998
  171SAPE   H2X19344   2.607   6.518   7.168  0.4309  0.0830  3.1369
  171SAPE   H2Y19345   2.658   6.355   7.212  0.3422  1.0269 -0.2202
  171SAPE   C2319346   2.880   6.803   6.917  0.3434 -0.0873  0.1242
  171SAPE   H3R19347   2.914   6.722   6.985  0.8542 -0.1449 -0.1922
  171SAPE   H3S19348   2.790   6.852   6.960  0.1929 -1.8446  1.9174
  171SAPE   C2419349   2.988   6.911   6.906 -0.5499  0.1542  0.3032
  171SAPE   H4R19350   3.012   6.951   7.006 -1.3222  2.5505 -0.3935
  171SAPE   H4S19351   2.936   6.990   6.846 -0.7998 -1.3533 -1.5857
  171SAPE   C2519352   3.116   6.866   6.843  0.1697  0.4528  0.0372
  171SAPE   H5R19353   3.117   6.843   6.735  2.3164 -0.2917  0.1750
  171SAPE   C2619354   3.222   6.841   6.924  0.3208 -0.8095 -0.2919
  171SAPE   H6R19355   3.322   6.832   6.880  0.7815  0.4849  0.4598
  171SAPE   C2719356   3.244   6.850   7.073 -0.5346 -0.5394  0.0301
  171SAPE   H7R19357   3.147   6.854   7.127 -0.9470  1.1366 -0.7540
  171SAPE   H7S19358   3.287   6.949   7.102 -2.1777  0.6251 -1.3325
  171SAPE   C2819359   3.329   6.732   7.111 -0.7021  0.4177 -0.4620
  171SAPE   H8R19360   3.357   6.663   7.030  1.2709  3.1317 -2.2763
  171SAPE   C2919361   3.363   6.692   7.230 -0.1450  0.5810  0.5750
  171SAPE   H9R19362   3.415   6.596   7.240  1.8727  0.8401 -4.5490
  171SAPE  C21019363   3.330   6.758   7.361 -0.0095  0.2925  0.2367
  171SAPE  H10R19364   3.237   6.818   7.352 -0.2647 -0.1026  0.2313
  171SAPE  H10S19365   3.398   6.844   7.382 -0.7148  1.1366 -0.8534
  171SAPE  C21119366   3.313   6.670   7.483 -0.2811  0.1521  0.3936
  171SAPE  H11R19367   3.275   6.570   7.457 -0.5744 -0.1297  1.8353
  171SAPE  C21219368   3.332   6.706   7.613  0.5421  0.2668 -0.3959
  171SAPE  H12R19369   3.317   6.634   7.694 -1.4559  2.4130  1.2811
  171SAPE  C21319370   3.360   6.846   7.656 -0.3207  0.1730 -0.1027
  171SAPE  H13R19371   3.368   6.924   7.577 -1.2033  0.2128 -0.1634
  171SAPE  H13S19372   3.452   6.863   7.716 -0.1143 -0.0232 -0.3625
  171SAPE  C21419373   3.242   6.887   7.742  0.5164 -0.4949 -0.0762
  171SAPE  H14R19374   3.149   6.892   7.684 -0.0014 -1.8472  0.5826
  171SAPE  C21519375   3.240   6.903   7.879  1.1384 -0.5768  0.3576
  171SAPE  H15R19376   3.148   6.927   7.933  0.1311  0.8956 -1.8323
  171SAPE  C21619377   3.356   6.885   7.981  0.3334  1.0495  0.1482
  171SAPE  H16R19378   3.442   6.954   7.968  2.2408 -1.2283  0.1093
  171SAPE  H16S19379   3.385   6.778   7.979 -3.0319 -0.0399 -3.3366
  171SAPE  C21719380   3.311   6.921   8.124  0.4737  0.5279 -0.1224
  171SAPE  H17R19381   3.238   6.848   8.166  1.0190 -0.5506 -0.9879
  171SAPE  H17S19382   3.265   7.022   8.117  1.5309  0.9829 -0.5898
  171SAPE  C21819383   3.420   6.939   8.226  0.0080  0.2363 -0.3121
  171SAPE  H18R19384   3.508   6.987   8.177 -1.6694  2.9239 -0.9128
  171SAPE  H18S19385   3.456   6.837   8.253 -3.6392 -0.7227  1.4590
  171SAPE  C21919386   3.391   7.009   8.361 -0.7045 -1.0381  0.2668
  171SAPE  H19R19387   3.302   6.969   8.414 -3.0723  0.9008 -1.9886
  171SAPE  H19S19388   3.368   7.113   8.329 -0.1601 -1.1866 -0.6215
  171SAPE  C22019389   3.511   7.032   8.455  0.1513  0.9888 -0.7207
  171SAPE  H20R19390   3.483   7.082   8.551  0.8283  0.5760 -0.3028
  171SAPE  H20S19391   3.582   7.106   8.413  1.2802 -0.8779 -2.2551
  171SAPE  H20T19392   3.572   6.943   8.479 -1.0890 -0.1048 -1.5292
  171SAPE   C3319393   2.445   6.401   7.252  0.2688  0.5663 -0.0844
  171SAPE   H3X19394   2.414   6.296   7.270 -3.6236  1.5774 -0.0011
  171SAPE   H3Y19395   2.357   6.445   7.198 -1.2157 -1.6855  0.3905
  171SAPE   C3419396   2.453   6.466   7.396 -0.3891 -0.3293  0.4376
  171SAPE   H4X19397   2.451   6.577   7.396 -0.0285 -0.3194  1.4799
  171SAPE   H4Y19398   2.552   6.436   7.438  0.8685  2.1063 -0.5465
  171SAPE   C3519399   2.339   6.436   7.483 -0.3474  0.4468 -0.4605
  171SAPE   H5X19400   2.321   6.327   7.486 -0.8578  0.5581  0.9657
  171SAPE   H5Y19401   2.249   6.480   7.435 -1.0374 -0.4288  0.0208
  171SAPE   C3619402   2.359   6.514   7.620  0.0846  0.2788  0.7850
  171SAPE   H6X19403   2.470   6.514   7.628  0.2343 -0.6510 -0.8310
  171SAPE   H6Y19404   2.296   6.464   7.697 -1.6780 -1.2086 -1.4822
  171SAPE   C3719405   2.329   6.669   7.606 -0.4249  0.5276  0.7369
  171SAPE   H7X19406   2.225   6.673   7.568  0.5628  0.5878 -2.2623
  171SAPE   H7Y19407   2.373   6.720   7.517 -1.2443 -0.5763 -0.3405
  171SAPE   C3819408   2.365   6.756   7.730  0.0549  0.2834 -0.0303
  171SAPE   H8X19409   2.344   6.864   7.720 -2.5250 -0.1443  0.0771
  171SAPE   H8Y19410   2.475   6.741   7.741  0.0718  0.6500  0.3574
  171SAPE   C3919411   2.295   6.712   7.858  0.1214  0.1502  0.1354
  171SAPE   H9X19412   2.312   6.605   7.884  0.0002  0.0535 -0.1862
  171SAPE   H9Y19413   2.186   6.710   7.838  0.1384 -2.4054 -0.0842
  171SAPE  C31019414   2.319   6.793   7.986  0.0949  0.2719  0.3854
  171SAPE  H10X19415   2.252   6.744   8.060  0.4199 -1.6687 -0.5469
  171SAPE  H10Y19416   2.288   6.897   7.962 -1.8272 -0.2077  0.5759
  171SAPE  C31119417   2.461   6.783   8.038  0.0051 -0.2397 -0.1206
  171SAPE  H11X19418   2.523   6.829   7.958 -0.1326  4.8956  2.3230
  171SAPE  H11Y19419   2.475   6.673   8.040 -1.2389 -0.4325 -1.1072
  171SAPE  C31219420   2.482   6.864   8.165 -0.2916  0.9867  0.0229
  171SAPE  H12X19421   2.464   6.972   8.149  0.2453  0.9747 -0.7483
  171SAPE  H12Y19422   2.591   6.857   8.188 -0.6631 -0.8756  1.4253
  171SAPE  C31319423   2.412   6.815   8.295 -0.3619  0.7847  1.2391
  171SAPE  H13X19424   2.303   6.802   8.274  0.0030  0.3509 -0.6240
  171SAPE  H13Y19425   2.413   6.897   8.370  1.0342  3.5709 -1.5908
  171SAPE  C31419426   2.469   6.675   8.327  0.0746  0.5796 -0.1039
  171SAPE  H14X19427   2.578   6.685   8.311  0.1124  0.3775  0.0221
  171SAPE  H14Y19428   2.432   6.598   8.256 -0.3026 -0.9158  1.6377
  171SAPE  C31519429   2.431   6.605   8.464 -0.4093 -0.4889  0.4621
  171SAPE  H15X19430   2.496   6.517   8.481 -0.6925 -0.5502  1.3252
  171SAPE  H15Y19431   2.323   6.581   8.469 -0.2383 -1.3788 -0.0033
  171SAPE  C31619432   2.469   6.702   8.583  0.1970 -0.5076  0.7437
  171SAPE  H16X19433   2.471   6.639   8.675  0.5942 -1.6564 -0.0237
  171SAPE  H16Y19434   2.393   6.783   8.588  0.3773 -0.1729 -1.2251
  171SAPE  C31719435   2.600   6.786   8.586 -0.3479  0.1823  0.6837
  171SAPE  H17X19436   2.604   6.851   8.496  1.8284 -0.2889  0.3655
  171SAPE  H17Y19437   2.681   6.710   8.573  1.2557  2.0405 -0.8680
  171SAPE  C31819438   2.609   6.868   8.712  0.0318 -0.3435 -1.2487
  171SAPE  H18X19439   2.609   6.800   8.800  1.5552 -0.1508 -1.0678
  171SAPE  H18Y19440   2.521   6.935   8.718 -0.0206 -0.3786 -1.6010
  171SAPE  H18Z19441   2.699   6.933   8.712 -0.3378  0.2301  0.5859
  172SAPE     N19442   2.313   4.777   6.387  0.0026 -0.4945  0.5427
  172SAPE   HN119443   2.399   4.800   6.334 -0.3740 -0.6610 -0.1572
  172SAPE   HN219444   2.328   4.701   6.456  0.0765 -0.1697  0.8861
  172SAPE   HN319445   2.236   4.761   6.318  1.6720  2.3192 -2.2169
  172SAPE   C1219446   2.281   4.903   6.460  0.5262 -0.7192  0.4535
  172SAPE  H12A19447   2.377   4.938   6.503  0.2919  2.5396 -1.3414
  172SAPE  H12B19448   2.210   4.879   6.543 -0.2300 -0.4946 -0.1175
  172SAPE   C1119449   2.218   5.015   6.370 -0.5552 -0.4196 -0.4570
  172SAPE  H11A19450   2.292   5.038   6.291  0.8763 -0.6936  0.7640
  172SAPE  H11B19451   2.197   5.109   6.425 -2.9917 -1.0375 -0.2036
  172SAPE     P19452   1.965   4.956   6.375  0.2267 -0.2852 -0.3433
  172SAPE   O1319453   1.856   4.983   6.283  0.5266 -0.6528 -0.1304
  172SAPE   O1419454   1.960   4.826   6.452  0.1227 -0.4381  0.1813
  172SAPE   O1219455   2.105   4.976   6.301  0.0962  0.4495 -0.4106
  172SAPE   O1119456   1.980   5.074   6.472  0.6864  0.2911  0.0014
  172SAPE    C119457   1.932   5.072   6.608  0.5280 -0.1396  0.2210
  172SAPE    HA19458   1.832   5.120   6.596  0.4071  0.5216  3.1484
  172SAPE    HB19459   1.921   4.969   6.649  0.8179 -0.3203 -0.1462
  172SAPE    C219460   2.018   5.159   6.706 -0.6186 -0.0863 -0.3061
  172SAPE    HS19461   2.015   5.259   6.659 -1.8301 -0.6417 -1.4578
  172SAPE   O2119462   2.152   5.107   6.707 -0.1281  0.4578  0.4796
  172SAPE   C2119463   2.238   5.189   6.768 -0.1308 -0.6746 -0.1822
  172SAPE   O2219464   2.210   5.300   6.809  0.4615 -0.0254  0.5396
  172SAPE   C2219465   2.369   5.115   6.795 -0.2460 -0.5321 -0.1537
  172SAPE   H2R19466   2.394   5.039   6.718 -2.3160 -0.4623 -0.9443
  172SAPE   H2S19467   2.444   5.197   6.794 -0.9390  0.3049  3.1950
  172SAPE    C319468   1.958   5.165   6.850 -0.6704  0.0352  0.1905
  172SAPE    HX19469   1.850   5.166   6.824 -0.2249 -1.6784 -2.0784
  172SAPE    HY19470   1.994   5.259   6.897 -0.7276 -0.0584  0.4181
  172SAPE   O3119471   1.986   5.058   6.937 -0.1356  0.0104  0.1668
  172SAPE   C3119472   1.902   4.956   6.933  0.2830  0.2430  0.9197
  172SAPE   O3219473   1.800   4.951   6.866  0.0744  0.2047  0.3171
  172SAPE   C3219474   1.938   4.842   7.029  0.0879 -0.0944 -0.2655
  172SAPE   H2X19475   2.006   4.769   6.981  1.5452 -0.0704  1.6386
  172SAPE   H2Y19476   1.841   4.796   7.055  1.1866 -1.7247  1.1931
  172SAPE   C2319477   2.375   5.072   6.944 -0.2430  0.7187 -0.0658
  172SAPE   H3R19478   2.273   5.043   6.978  0.9894 -2.3040  1.3846
  172SAPE   H3S19479   2.413   5.149   7.015  1.3953 -0.4161  0.3575
  172SAPE   C2419480   2.453   4.947   6.972  0.1829  0.5714  0.0928
  172SAPE   H4R19481   2.563   4.961   6.977 -0.1064  3.3226  0.3434
  172SAPE   H4S19482   2.439   4.886   6.880  1.0081  0.2582  0.1643
  172SAPE   C2519483   2.408   4.879   7.099  0.6611  0.2086  0.3317
  172SAPE   H5R19484   2.325   4.808   7.083 -0.5497  1.4632  0.7986
  172SAPE   C2619485   2.452   4.913   7.219 -0.8265  0.0323  0.7371
  172SAPE   H6R19486   2.404   4.867   7.307 -1.1206  2.2101  1.7650
  172SAPE   C2719487   2.555   5.012   7.257 -0.0950  0.1339  0.0446
  172SAPE   H7R19488   2.507   5.083   7.328 -0.4342  1.1702 -1.1815
  172SAPE   H7S19489   2.589   5.071   7.168 -1.1084 -0.1264 -0.5289
  172SAPE   C2819490   2.672   4.931   7.309 -0.2033 -0.3353  1.5658
  172SAPE   H8R19491   2.730   4.879   7.231 -1.3782 -1.0272  1.1270
  172SAPE   C2919492   2.720   4.922   7.429  0.4159 -0.7507 -0.1815
  172SAPE   H9R19493   2.797   4.849   7.457  0.1791 -1.1827 -0.6314
  172SAPE  C21019494   2.658   4.992   7.543  0.4994 -0.2458  0.2139
  172SAPE  H10R19495   2.553   5.025   7.528  1.3267  1.6864 -1.8663
  172SAPE  H10S19496   2.704   5.092   7.560  0.4903 -0.1025 -0.6045
  172SAPE  C21119497   2.641   4.903   7.665 -0.1112 -0.4284  0.4895
  172SAPE  H11R19498   2.652   4.794   7.656  0.5441 -0.1960 -2.6142
  172SAPE  C21219499   2.613   4.947   7.783  0.1811 -0.2932 -0.2119
  172SAPE  H12R19500   2.603   4.878   7.868 -0.8842 -1.1684 -1.0174
  172SAPE  C21319501   2.597   5.096   7.823  0.4880  0.3310 -0.6337
  172SAPE  H13R19502   2.496   5.109   7.867 -0.0703  1.6834 -2.1702
  172SAPE  H13S19503   2.613   5.174   7.744 -1.4697  0.4939 -0.9169
  172SAPE  C21419504   2.699   5.126   7.930  0.0706 -0.3092 -0.1491
  172SAPE  H14R19505   2.789   5.064   7.918  0.2955 -0.0446  0.1440
  172SAPE  C21519506   2.703   5.221   8.023  0.6127 -0.1795 -0.5386
  172SAPE  H15R19507   2.792   5.232   8.087  1.9135 -0.6109 -2.1988
  172SAPE  C21619508   2.597   5.332   8.048  0.3198  0.2154  0.8156
  172SAPE  H16R19509   2.532   5.338   7.958  1.2585  0.4693  0.1328
  172SAPE  H16S19510   2.652   5.428   8.049  1.4073 -0.3678 -0.1348
  172SAPE  C21719511   2.505   5.314   8.177  0.2459 -0.2150  0.7575
  172SAPE  H17R19512   2.428   5.394   8.173  0.6218  0.1401 -3.8747
  172SAPE  H17S19513   2.559   5.326   8.274  0.0691  2.8215  0.5789
  172SAPE  C21819514   2.436   5.176   8.180 -0.3606 -0.7255  0.5778
  172SAPE  H18R19515   2.515   5.099   8.171  1.1042  0.7719  0.1782
  172SAPE  H18S19516   2.392   5.179   8.078  0.2098  0.8563  0.3501
  172SAPE  C21919517   2.324   5.157   8.282 -0.3368 -0.0529 -0.2259
  172SAPE  H19R19518   2.272   5.063   8.257 -2.0015  0.3241  1.5781
  172SAPE  H19S19519   2.253   5.242   8.271  0.9764  1.1148 -0.1088
  172SAPE  C22019520   2.372   5.155   8.430 -0.5191 -0.4917  0.5212
  172SAPE  H20R19521   2.431   5.249   8.444 -1.2029 -0.3512  2.9485
  172SAPE  H20S19522   2.449   5.075   8.435  0.6246  0.5820  0.8307
  172SAPE  H20T19523   2.284   5.150   8.498 -1.2243  1.3677 -0.1759
  172SAPE   C3319524   2.001   4.890   7.162 -0.2863  0.3595  0.6412
  172SAPE   H3X19525   1.949   4.976   7.210  0.9221  1.8116 -0.5436
  172SAPE   H3Y19526   2.103   4.930   7.143 -1.2957  2.4967 -0.6564
  172SAPE   C3419527   2.014   4.776   7.270  0.3530 -0.4375  0.4107
  172SAPE   H4X19528   2.062   4.686   7.228 -0.7638 -0.5008 -0.8298
  172SAPE   H4Y19529   1.911   4.743   7.297  0.3972 -2.0642 -1.2673
  172SAPE   C3519530   2.083   4.830   7.394 -0.2581  0.2602  0.2236
  172SAPE   H5X19531   2.038   4.926   7.427 -0.5628  0.5784 -1.0521
  172SAPE   H5Y19532   2.185   4.844   7.353  0.2368 -1.0403  0.9666
  172SAPE   C3619533   2.091   4.735   7.508  0.2633  0.6425  0.5240
  172SAPE   H6X19534   2.142   4.639   7.486 -2.3874 -0.7405 -0.0853
  172SAPE   H6Y19535   1.990   4.703   7.542  0.3222 -0.3324 -0.1835
  172SAPE   C3719536   2.150   4.810   7.631  0.2648  0.2763 -0.5835
  172SAPE   H7X19537   2.094   4.905   7.624 -0.8681 -0.4201 -1.2669
  172SAPE   H7Y19538   2.257   4.822   7.604 -0.5603  1.4826 -3.7566
  172SAPE   C3819539   2.135   4.724   7.753  0.7278  0.6451 -0.2501
  172SAPE   H8X19540   2.208   4.640   7.746  1.3300  1.1969 -0.7545
  172SAPE   H8Y19541   2.035   4.676   7.760  1.4756 -1.2197 -1.5037
  172SAPE   C3919542   2.163   4.799   7.880  0.0589 -0.3997 -0.5711
  172SAPE   H9X19543   2.089   4.880   7.899  0.9888  0.5543 -0.8539
  172SAPE   H9Y19544   2.260   4.854   7.888 -0.8827  1.1124  1.2203
  172SAPE  C31019545   2.186   4.707   8.004  0.3823  0.2210  0.4197
  172SAPE  H10X19546   2.272   4.639   7.984  0.4252  0.2101  0.6410
  172SAPE  H10Y19547   2.088   4.656   8.015  0.8079 -1.3101 -2.0784
  172SAPE  C31119548   2.230   4.789   8.123  0.0314 -0.4168  0.3627
  172SAPE  H11X19549   2.138   4.839   8.160 -0.1204 -0.9365  0.7027
  172SAPE  H11Y19550   2.319   4.853   8.104  0.1807 -1.1110 -1.4129
  172SAPE  C31219551   2.266   4.707   8.244 -0.2976 -0.0629  0.0599
  172SAPE  H12X19552   2.365   4.665   8.217  0.6743  1.6379  0.7610
  172SAPE  H12Y19553   2.194   4.626   8.268 -0.1710  0.1106  1.0913
  172SAPE  C31319554   2.284   4.791   8.371  0.3978  0.0545 -0.2954
  172SAPE  H13X19555   2.185   4.840   8.383 -0.1102 -0.7943 -0.9617
  172SAPE  H13Y19556   2.365   4.868   8.366  1.5074 -0.9188  1.6299
  172SAPE  C31419557   2.317   4.698   8.490 -0.5283  0.0115  0.2475
  172SAPE  H14X19558   2.417   4.651   8.478 -1.1821 -1.0035 -1.5992
  172SAPE  H14Y19559   2.232   4.626   8.494 -1.5181  1.0458 -1.0660
  172SAPE  C31519560   2.308   4.775   8.626  0.2676 -0.3175 -0.1747
  172SAPE  H15X19561   2.201   4.795   8.649  0.1367 -1.6240  0.4381
  172SAPE  H15Y19562   2.360   4.869   8.599 -0.2420  0.0567  0.1125
  172SAPE  C31619563   2.368   4.700   8.741 -0.4156 -0.1603  0.6485
  172SAPE  H16X19564   2.365   4.762   8.834  1.1331 -2.8013  2.6174
  172SAPE  H16Y19565   2.478   4.707   8.731 -0.1735  0.9114  3.1406
  172SAPE  C31719566   2.306   4.571   8.787  0.4818  0.5737  0.0334
  172SAPE  H17X19567   2.334   4.507   8.700  2.8837  0.0326  1.1156
  172SAPE  H17Y19568   2.197   4.571   8.807  0.7044  0.9513  1.3177
  172SAPE  C31819569   2.367   4.511   8.903 -0.8133 -0.5120 -0.1873
  172SAPE  H18X19570   2.477   4.498   8.892 -0.3468  1.8605  0.9895
  172SAPE  H18Y19571   2.316   4.416   8.930  0.3413 -0.9834  0.4137
  172SAPE  H18Z19572   2.358   4.578   8.991 -0.2993  0.1167 -0.6070
  173SOPE     N19573   3.762   3.876  11.030  0.1140 -0.4249 -0.4317
  173SOPE   HN119574   3.809   3.783  11.021  1.1644 -0.0150  0.5767
  173SOPE   HN219575   3.825   3.951  11.063 -0.1897 -1.2445  2.2685
  173SOPE   HN319576   3.689   3.866  11.104 -0.3720 -0.0923 -0.8632
  173SOPE   C1219577   3.690   3.911  10.901  0.0416  0.8439 -0.3742
  173SOPE  H12A19578   3.634   4.005  10.924 -2.6177 -0.6722 -0.3035
  173SOPE  H12B19579   3.631   3.821  10.875  0.0437  0.8643 -0.4489
  173SOPE   C1119580   3.787   3.940  10.784 -0.4647 -0.3311 -0.2618
  173SOPE  H11A19581   3.723   3.959  10.695 -2.5421  0.4347  1.3102
  173SOPE  H11B19582   3.840   3.847  10.754 -0.7094 -0.8860  0.9636
  173SOPE     P19583   3.872   4.196  10.790  0.2317  0.0616 -0.0359
  173SOPE   O1319584   3.944   4.265  10.901  0.1294 -0.1827 -0.2300
  173SOPE   O1419585   3.731   4.230  10.759  0.4697 -0.2544 -0.0104
  173SOPE   O1219586   3.881   4.042  10.834 -0.5194 -0.2656  0.3401
  173SOPE   O1119587   3.957   4.210  10.656 -0.0436  0.2093 -0.0814
  173SOPE    C119588   4.097   4.175  10.658 -0.2589  0.3276  0.6547
  173SOPE    HA19589   4.128   4.096  10.730  0.5735 -0.7850 -0.8726
  173SOPE    HB19590   4.147   4.270  10.688  0.3533  0.7929 -1.6618
  173SOPE    C219591   4.145   4.125  10.522  1.0922 -0.0064  0.0157
  173SOPE    HS19592   4.252   4.148  10.503  0.2437  4.5051 -0.3394
  173SOPE   O2119593   4.081   4.186  10.407  0.3100  0.2104 -0.0740
  173SOPE   C2119594   4.103   4.315  10.382 -0.2296  0.3930 -0.0834
  173SOPE   O2219595   4.187   4.380  10.439  0.3620 -0.5061  0.0232
  173SOPE   C2219596   4.005   4.363  10.273  0.5887  0.4130 -0.2632
  173SOPE   H2R19597   3.902   4.355  10.313 -0.0037  1.8053 -1.4477
  173SOPE   H2S19598   4.023   4.289  10.193  3.3105  1.0115 -0.3055
  173SOPE    C319599   4.126   3.972  10.501 -0.0519 -0.4215  0.7317
  173SOPE    HX19600   4.017   3.949  10.501  0.3366 -2.4348  1.9668
  173SOPE    HY19601   4.163   3.919  10.591 -0.7431  0.1171  1.3486
  173SOPE   O3119602   4.199   3.929  10.377 -0.3843  0.4882 -0.0766
  173SOPE   C3119603   4.187   3.796  10.363 -0.0432  0.4022  0.0776
  173SOPE   O3219604   4.132   3.723  10.443 -0.1641 -0.8587 -0.7226
  173SOPE   C3219605   4.238   3.757  10.223  0.8804 -0.0080  0.0669
  173SOPE   H2X19606   4.183   3.823  10.153  0.3454 -0.3396  0.1667
  173SOPE   H2Y19607   4.216   3.653  10.192 -2.9026  0.4735  0.5760
  173SOPE   C2319608   4.035   4.509  10.226  0.1261 -1.0132 -0.0598
  173SOPE   H3R19609   4.143   4.516  10.201  0.2087 -3.4899 -0.6759
  173SOPE   H3S19610   4.018   4.575  10.314 -0.5501 -1.3698  0.0829
  173SOPE   C2419611   3.948   4.560  10.112 -0.6253  0.4273  0.2241
  173SOPE   H4R19612   3.840   4.562  10.137  0.2098  1.8203  4.3928
  173SOPE   H4S19613   3.977   4.662  10.080 -1.1010 -0.2050 -2.5473
  173SOPE   C2519614   3.964   4.469   9.993  0.0027  0.3546 -0.5607
  173SOPE   H5R19615   4.069   4.464   9.955  0.3856  0.3379  0.4624
  173SOPE   H5S19616   3.934   4.366  10.020  0.5804 -0.2836 -2.1952
  173SOPE   C2619617   3.871   4.504   9.862  0.0114 -0.2022  0.1892
  173SOPE   H6R19618   3.782   4.565   9.888  0.7540  0.3700  1.5128
  173SOPE   H6S19619   3.936   4.569   9.799 -0.8153  1.6346  1.1739
  173SOPE   C2719620   3.835   4.377   9.797  0.9296  0.0589  0.0327
  173SOPE   H7R19621   3.906   4.298   9.829  0.6528  0.7131  2.4683
  173SOPE   H7S19622   3.735   4.338   9.824  1.8181 -3.3972 -1.1560
  173SOPE   C2819623   3.842   4.393   9.645  0.0916 -0.0496  0.1113
  173SOPE   H8R19624   3.768   4.469   9.612  0.7830  0.4398 -0.3304
  173SOPE   H8S19625   3.943   4.425   9.613 -0.1498  0.1290 -0.4929
  173SOPE   C2919626   3.816   4.264   9.576 -0.5358  0.1718 -0.2299
  173SOPE   H9119627   3.873   4.184   9.625 -0.4086  2.5754  4.0641
  173SOPE  C21019628   3.751   4.240   9.465 -0.0499 -0.2356  0.3977
  173SOPE  H10119629   3.746   4.134   9.436  0.6393  0.1589 -1.2412
  173SOPE  C21119630   3.679   4.330   9.366  0.4635 -0.5816 -0.5470
  173SOPE  H11R19631   3.698   4.433   9.401  1.2045 -1.1770  0.9111
  173SOPE  H11S19632   3.569   4.317   9.372 -0.1474  3.1891 -1.4885
  173SOPE  C21219633   3.701   4.304   9.217 -0.0648 -0.0549  0.0495
  173SOPE  H12R19634   3.811   4.298   9.209  0.1256 -1.0273  2.6597
  173SOPE  H12S19635   3.663   4.394   9.163 -2.2475 -1.1837 -0.4154
  173SOPE  C21319636   3.651   4.166   9.158  0.3604 -0.2841  0.6258
  173SOPE  H13R19637   3.611   4.104   9.241  0.4132 -0.1931  0.7201
  173SOPE  H13S19638   3.740   4.112   9.119  0.4469  0.0482  0.3588
  173SOPE  C21419639   3.543   4.191   9.051  0.0250 -0.3409  0.3391
  173SOPE  H14R19640   3.575   4.279   8.991  1.3232  0.4437  2.0634
  173SOPE  H14S19641   3.450   4.219   9.105  1.4691  1.5290  2.0608
  173SOPE  C21519642   3.509   4.064   8.970 -0.0739 -0.7917  0.5224
  173SOPE  H15R19643   3.482   3.973   9.029 -1.5587  0.2857  1.5808
  173SOPE  H15S19644   3.592   4.043   8.900 -2.8562 -1.5389 -2.8492
  173SOPE  C21619645   3.391   4.097   8.875 -0.2610 -0.1052 -0.4231
  173SOPE  H16R19646   3.411   4.191   8.819 -0.6546 -0.1458 -0.6348
  173SOPE  H16S19647   3.305   4.114   8.943 -0.0687 -0.5677 -0.0599
  173SOPE  C21719648   3.359   3.990   8.770  0.0247  0.2541  0.2770
  173SOPE  H17R19649   3.456   3.967   8.720  0.0916  3.0905 -1.0796
  173SOPE  H17S19650   3.289   4.029   8.693 -0.2932 -0.5257  0.1561
  173SOPE  C21819651   3.293   3.866   8.832  0.0681  0.9243  0.1581
  173SOPE  H18R19652   3.314   3.773   8.776  0.1678  0.1947  1.3799
  173SOPE  H18S19653   3.186   3.872   8.861 -0.2241  0.4598 -0.7952
  173SOPE  H18T19654   3.356   3.838   8.918 -0.9159 -0.6523  0.3963
  173SOPE   C3319655   4.392   3.789  10.203  0.9865  0.0572 -0.2265
  173SOPE   H3X19656   4.471   3.722  10.242  2.9251  3.0871  1.4953
  173SOPE   H3Y19657   4.408   3.889  10.248  1.1841  0.1580 -0.5230
  173SOPE   C3419658   4.434   3.815  10.060  0.0553 -0.9013  0.4986
  173SOPE   H4X19659   4.365   3.887  10.012  1.3560  0.3922  0.5134
  173SOPE   H4Y19660   4.430   3.719  10.004  1.0785 -2.0588  2.3126
  173SOPE   C3519661   4.576   3.876  10.047  0.2108 -0.1380  0.0742
  173SOPE   H5X19662   4.658   3.810  10.082  1.9129  1.7335 -0.2323
  173SOPE   H5Y19663   4.572   3.974  10.099 -2.6557 -1.0830  1.8997
  173SOPE   C3619664   4.604   3.912   9.898  0.0548 -0.2471  0.1351
  173SOPE   H6X19665   4.695   3.976   9.896 -1.4839  2.0272 -0.7286
  173SOPE   H6Y19666   4.524   3.969   9.846  0.9969  0.5723 -0.4626
  173SOPE   C3719667   4.639   3.786   9.820 -0.0216 -0.0339  1.2451
  173SOPE   H7X19668   4.550   3.719   9.815  0.0551 -0.1038  0.7978
  173SOPE   H7Y19669   4.719   3.726   9.869  1.5285  0.5244 -0.4749
  173SOPE   C3819670   4.700   3.807   9.678  0.1606 -0.3470  0.4026
  173SOPE   H8X19671   4.712   3.710   9.625  2.5932 -1.3428  2.5311
  173SOPE   H8Y19672   4.806   3.836   9.691  0.5658 -1.2671 -0.7275
  173SOPE   C3919673   4.633   3.905   9.574  0.3553 -0.0260 -0.1428
  173SOPE   H9X19674   4.623   4.004   9.624 -0.0351 -0.4742  0.6906
  173SOPE   H9Y19675   4.530   3.870   9.552  0.3755  0.1706 -0.5492
  173SOPE  C31019676   4.706   3.918   9.442  0.8934  0.6940 -0.0067
  173SOPE  H10X19677   4.689   3.820   9.392  0.0766  0.3158  0.9707
  173SOPE  H10Y19678   4.815   3.937   9.453  0.9428  0.4736 -0.1055
  173SOPE  C31119679   4.647   4.028   9.352 -0.1602  0.5495  0.1851
  173SOPE  H11X19680   4.670   4.126   9.399  1.8662  1.5070 -2.5676
  173SOPE  H11Y19681   4.539   4.016   9.328  0.6008 -0.4455 -3.3111
  173SOPE  C31219682   4.727   4.029   9.216  0.0848 -0.1175  0.3283
  173SOPE  H12X19683   4.724   3.926   9.177  1.4272  0.3529 -1.1316
  173SOPE  H12Y19684   4.830   4.052   9.251 -0.2584  1.8785  0.1746
  173SOPE  C31319685   4.673   4.134   9.120  0.1724 -0.4496  0.6226
  173SOPE  H13X19686   4.716   4.234   9.141  0.3346 -0.2906 -0.3837
  173SOPE  H13Y19687   4.563   4.144   9.117  0.1652 -0.4878  0.7716
  173SOPE  C31419688   4.718   4.111   8.978 -0.3421  0.6952  0.3242
  173SOPE  H14X19689   4.673   4.015   8.945 -0.3964  1.2000 -1.1467
  173SOPE  H14Y19690   4.827   4.100   8.960 -0.2118  3.6546 -1.5646
  173SOPE  C31519691   4.659   4.225   8.881 -0.3135 -0.6857  0.1375
  173SOPE  H15X19692   4.685   4.325   8.920 -0.9452 -0.2871 -0.4597
  173SOPE  H15Y19693   4.550   4.209   8.866 -0.5050  0.7722 -0.1266
  173SOPE  C31619694   4.727   4.215   8.740  0.6055 -0.2816  0.1416
  173SOPE  H16X19695   4.715   4.114   8.695  0.2558 -0.5577  0.8426
  173SOPE  H16Y19696   4.832   4.241   8.763 -0.2408  1.9926  1.6807
  173SOPE  C31719697   4.678   4.329   8.649  0.5714  0.1783 -0.1546
  173SOPE  H17X19698   4.730   4.310   8.552 -0.3967  0.6860 -0.7886
  173SOPE  H17Y19699   4.722   4.425   8.685 -0.1979  0.9195 -1.1367
  173SOPE  C31819700   4.529   4.346   8.624 -0.1860 -0.5833  0.5569
  173SOPE  H18X19701   4.503   4.436   8.564 -1.3564 -1.0776  0.2960
  173SOPE  H18Y19702   4.472   4.369   8.717 -0.1506 -0.1935  0.4851
  173SOPE  H18Z19703   4.484   4.250   8.590  1.2256 -1.2137  0.4107
  174SOPE     N19704   3.495   2.990  11.047  0.2815 -0.0165  0.2905
  174SOPE   HN119705   3.464   2.948  11.136  0.5031 -1.3875 -0.2427
  174SOPE   HN219706   3.512   3.092  11.055 -0.9338  0.2144  0.0748
  174SOPE   HN319707   3.415   2.977  10.982  0.4802 -1.1226  0.2335
  174SOPE   C1219708   3.604   2.907  10.999  0.0375 -0.0060 -0.0160
  174SOPE  H12A19709   3.672   2.894  11.086 -0.2638 -1.1743  0.0635
  174SOPE  H12B19710   3.646   2.959  10.910 -0.2641 -0.9926 -0.7599
  174SOPE   C1119711   3.548   2.769  10.957  0.4098  0.0957 -0.2563
  174SOPE  H11A19712   3.528   2.716  11.052 -2.5437 -0.2382 -0.9436
  174SOPE  H11B19713   3.632   2.707  10.919  0.0122  0.4580 -1.8312
  174SOPE     P19714   3.373   2.653  10.803 -0.0661  0.2875 -0.2399
  174SOPE   O1319715   3.235   2.690  10.773  0.5895 -0.2177  0.1099
  174SOPE   O1419716   3.401   2.530  10.881  0.0362  0.0053 -0.3706
  174SOPE   O1219717   3.430   2.769  10.881 -0.8045 -0.3332 -0.3905
  174SOPE   O1119718   3.456   2.647  10.670  0.7765  0.1734 -0.5589
  174SOPE    C119719   3.590   2.615  10.677 -0.4443 -0.2838  0.1117
  174SOPE    HA19720   3.623   2.557  10.766 -1.2843 -0.1951  0.4926
  174SOPE    HB19721   3.657   2.703  10.667 -1.0815  0.1435 -0.4243
  174SOPE    C219722   3.624   2.534  10.545 -0.1608  0.7718 -0.3021
  174SOPE    HS19723   3.721   2.480  10.548 -1.1351 -1.0440 -0.1881
  174SOPE   O2119724   3.609   2.616  10.427  0.1766 -0.3414  0.3344
  174SOPE   C2119725   3.683   2.575  10.326  0.7836 -1.2145 -0.7564
  174SOPE   O2219726   3.778   2.505  10.324  0.2342  0.6490  0.2302
  174SOPE   C2219727   3.631   2.644  10.202  0.7046  0.1904  0.2110
  174SOPE   H2R19728   3.660   2.751  10.201 -0.8060  0.6298 -1.5838
  174SOPE   H2S19729   3.520   2.643  10.205  0.6734  1.1809 -0.2320
  174SOPE    C319730   3.519   2.420  10.528 -0.3064  0.0199  0.4339
  174SOPE    HX19731   3.421   2.473  10.530 -0.8502 -0.8942 -0.5795
  174SOPE    HY19732   3.494   2.369  10.624 -2.1789  1.2519  0.6579
  174SOPE   O3119733   3.531   2.338  10.417 -0.0467 -1.0002  0.1162
  174SOPE   C3119734   3.582   2.220  10.442 -0.7982  0.1394  0.2133
  174SOPE   O3219735   3.592   2.164  10.550  0.4299 -0.2682  0.1150
  174SOPE   C3219736   3.631   2.166  10.308 -0.5484 -0.6644  0.9668
  174SOPE   H2X19737   3.712   2.095  10.333  1.6645  0.1412 -3.1340
  174SOPE   H2Y19738   3.686   2.243  10.250 -2.0341  0.5184  1.0783
  174SOPE   C2319739   3.668   2.569  10.071  0.1938  0.6830 -0.1624
  174SOPE   H3R19740   3.649   2.460  10.067 -0.7494  0.8609 -2.2070
  174SOPE   H3S19741   3.775   2.572  10.044  0.0980  0.6444 -0.5618
  174SOPE   C2419742   3.603   2.635   9.948  0.0778  0.3414 -0.3689
  174SOPE   H4R19743   3.500   2.674   9.965 -0.6936 -2.3932  2.2364
  174SOPE   H4S19744   3.663   2.725   9.928  1.4885 -0.3131  0.7726
  174SOPE   C2519745   3.615   2.550   9.820  0.8273  0.1504  0.5652
  174SOPE   H5R19746   3.716   2.505   9.811 -0.4914 -2.6699 -1.6439
  174SOPE   H5S19747   3.544   2.465   9.828 -1.0290  1.4516 -1.0667
  174SOPE   C2619748   3.594   2.635   9.690  0.2156 -0.0589  0.0228
  174SOPE   H6R19749   3.517   2.714   9.698 -0.1542 -0.4697  0.7024
  174SOPE   H6S19750   3.691   2.689   9.679 -0.2574  1.5706  3.0018
  174SOPE   C2719751   3.561   2.550   9.562  0.3400  0.5894 -0.6328
  174SOPE   H7R19752   3.653   2.488   9.561 -0.2037 -0.2422 -1.2408
  174SOPE   H7S19753   3.472   2.490   9.591  1.6593  0.0812  2.7509
  174SOPE   C2819754   3.542   2.634   9.433  0.0145 -0.8823 -0.5600
  174SOPE   H8R19755   3.637   2.679   9.395  0.4597 -1.2305  0.1281
  174SOPE   H8S19756   3.521   2.559   9.353  0.2221 -0.7591 -0.7324
  174SOPE   C2919757   3.424   2.728   9.442  0.7657  1.1279  0.0541
  174SOPE   H9119758   3.441   2.816   9.505 -0.5042  1.1465  0.3872
  174SOPE  C21019759   3.300   2.710   9.393  0.1329 -0.3983  0.8924
  174SOPE  H10119760   3.230   2.794   9.409  0.9246  0.7077 -0.9600
  174SOPE  C21119761   3.241   2.600   9.312  0.4710  0.4798 -0.3196
  174SOPE  H11R19762   3.140   2.573   9.348 -0.6477  1.1948 -2.6795
  174SOPE  H11S19763   3.306   2.511   9.321 -0.8535 -0.5397 -0.5385
  174SOPE  C21219764   3.206   2.642   9.165  0.4201 -0.3753 -0.2980
  174SOPE  H12R19765   3.132   2.724   9.176  0.7954  0.0411 -0.8225
  174SOPE  H12S19766   3.158   2.550   9.126  0.8144 -0.8082  0.2191
  174SOPE  C21319767   3.325   2.690   9.071 -0.1154  0.1764 -0.9176
  174SOPE  H13R19768   3.408   2.616   9.073  0.4054  0.7669 -0.4928
  174SOPE  H13S19769   3.352   2.783   9.124 -2.3313 -0.9707  2.5978
  174SOPE  C21419770   3.289   2.727   8.927  0.5548 -0.2371 -0.1911
  174SOPE  H14R19771   3.200   2.793   8.936  0.5359 -0.1415 -1.0242
  174SOPE  H14S19772   3.259   2.641   8.863 -1.5555  0.6970 -0.5577
  174SOPE  C21519773   3.406   2.796   8.854  0.0793 -0.3305  0.1326
  174SOPE  H15R19774   3.485   2.719   8.842  0.8107 -0.4428  4.1202
  174SOPE  H15S19775   3.433   2.882   8.920  0.0918  0.0559 -0.3676
  174SOPE  C21619776   3.378   2.855   8.717  0.3448 -0.1175 -0.2483
  174SOPE  H16R19777   3.310   2.942   8.724 -0.4880 -0.6716 -1.1495
  174SOPE  H16S19778   3.317   2.774   8.671 -0.0292 -1.0484  1.7361
  174SOPE  C21719779   3.504   2.869   8.630  0.1141  0.8939  0.1217
  174SOPE  H17R19780   3.555   2.771   8.618  0.4212  1.0705 -0.0365
  174SOPE  H17S19781   3.566   2.935   8.694  0.8466 -1.1567  1.6713
  174SOPE  C21819782   3.490   2.950   8.499 -0.8698 -0.0817 -0.1259
  174SOPE  H18R19783   3.582   2.941   8.437 -1.1075  0.0790 -0.5032
  174SOPE  H18S19784   3.456   3.051   8.530 -4.1700 -1.4243  1.0778
  174SOPE  H18T19785   3.410   2.904   8.436 -2.6485 -0.2567  2.1379
  174SOPE   C3319786   3.509   2.098  10.237 -0.1237 -0.3483  0.5837
  174SOPE   H3X19787   3.433   2.173  10.207  0.9065  0.7682  0.6472
  174SOPE   H3Y19788   3.457   2.019  10.295 -1.3353 -0.5774 -0.7716
  174SOPE   C3419789   3.548   2.034  10.107 -0.6289 -0.0750  0.8583
  174SOPE   H4X19790   3.461   1.979  10.066 -0.6974  0.4809  0.2192
  174SOPE   H4Y19791   3.636   1.967  10.119 -0.6414 -0.4467 -0.8364
  174SOPE   C3519792   3.599   2.126   9.994  0.0519 -0.1555 -0.3570
  174SOPE   H5X19793   3.695   2.168  10.030 -0.2166  0.2087 -0.0589
  174SOPE   H5Y19794   3.537   2.217   9.979  0.7083  0.4760  0.6189
  174SOPE   C3619795   3.604   2.056   9.857 -0.5648 -0.2529  0.2942
  174SOPE   H6X19796   3.508   2.000   9.846 -1.7428  1.4233  1.5271
  174SOPE   H6Y19797   3.684   1.980   9.863  0.0085  0.4004  1.1787
  174SOPE   C3719798   3.636   2.152   9.740 -0.1463 -0.2973  0.3644
  174SOPE   H7X19799   3.742   2.184   9.731  0.3978 -1.8299  0.8888
  174SOPE   H7Y19800   3.586   2.249   9.763 -0.0214 -0.1736  0.1122
  174SOPE   C3819801   3.590   2.089   9.612 -0.0158 -0.1168  0.4027
  174SOPE   H8X19802   3.479   2.089   9.617 -0.0264  0.4205  0.2401
  174SOPE   H8Y19803   3.624   1.984   9.608 -1.0225 -0.5341  1.8429
  174SOPE   C3919804   3.617   2.158   9.476  0.0975 -0.5853  0.2544
  174SOPE   H9X19805   3.726   2.175   9.460 -0.3153  2.5637  0.1400
  174SOPE   H9Y19806   3.573   2.260   9.470 -1.1433 -1.1156 -0.0041
  174SOPE  C31019807   3.566   2.068   9.365  0.5491  0.1610  0.1232
  174SOPE  H10X19808   3.456   2.084   9.371  0.5910  0.2918  0.6451
  174SOPE  H10Y19809   3.582   1.961   9.390  1.5143  0.5061  1.0511
  174SOPE  C31119810   3.626   2.093   9.221  0.1521  0.0352 -0.1971
  174SOPE  H11X19811   3.710   2.027   9.190  0.8197  0.9109 -0.2624
  174SOPE  H11Y19812   3.677   2.191   9.221  1.4294 -0.5639 -1.8791
  174SOPE  C31219813   3.524   2.088   9.103 -0.8166 -0.5471  0.7351
  174SOPE  H12X19814   3.432   2.143   9.133 -0.2249  0.5285  0.6347
  174SOPE  H12Y19815   3.497   1.982   9.084  1.1620 -0.8767 -0.5861
  174SOPE  C31319816   3.563   2.159   8.971  0.0361  0.6307 -0.5677
  174SOPE  H13X19817   3.648   2.094   8.939  0.3569  0.4554  0.5748
  174SOPE  H13Y19818   3.615   2.255   8.994 -1.6140  0.7060  3.7679
  174SOPE  C31419819   3.447   2.185   8.879 -0.2803  0.0211  0.8493
  174SOPE  H14X19820   3.370   2.247   8.930 -1.9031 -2.4858  1.6831
  174SOPE  H14Y19821   3.404   2.090   8.840  2.9748 -1.1761 -0.1203
  174SOPE  C31519822   3.491   2.275   8.762  0.0222  0.9613 -0.2045
  174SOPE  H15X19823   3.515   2.374   8.806 -0.4221  1.0164 -0.0788
  174SOPE  H15Y19824   3.413   2.299   8.687  0.9604  3.4261 -0.4832
  174SOPE  C31619825   3.608   2.218   8.682 -0.3429 -1.0275 -0.1629
  174SOPE  H16X19826   3.696   2.190   8.745  0.0977  0.0775 -0.2730
  174SOPE  H16Y19827   3.643   2.300   8.616 -2.4245  0.6639  0.7284
  174SOPE  C31719828   3.567   2.099   8.592  0.3277 -0.1918  0.6542
  174SOPE  H17X19829   3.459   2.101   8.568  0.2043 -0.1871  1.1885
  174SOPE  H17Y19830   3.584   2.003   8.645 -0.5965 -0.1910  0.9640
  174SOPE  C31819831   3.648   2.092   8.457 -0.1420  0.1257 -0.3020
  174SOPE  H18X19832   3.644   1.987   8.421  0.4292 -0.5586  1.5230
  174SOPE  H18Y19833   3.754   2.114   8.482  0.2641 -0.1494 -1.6900
  174SOPE  H18Z19834   3.599   2.159   8.382 -2.2744 -0.3547  0.5688
  175SOPE     N19835   6.060   3.597  10.463 -0.0662 -0.0931  0.1624
  175SOPE   HN119836   6.063   3.676  10.531 -1.3495 -0.6283  0.8752
  175SOPE   HN219837   6.075   3.512  10.520 -0.8423  0.2055  0.8320
  175SOPE   HN319838   6.133   3.605  10.390 -0.0383  1.5149  0.3246
  175SOPE   C1219839   5.920   3.586  10.398 -0.2087  0.9591  0.4870
  175SOPE  H12A19840   5.924   3.507  10.321  0.3683  1.6382 -0.2007
  175SOPE  H12B19841   5.905   3.675  10.333  0.1901 -0.5133 -1.7112
  175SOPE   C1119842   5.807   3.551  10.501  0.2109  0.1644 -0.1476
  175SOPE  H11A19843   5.723   3.523  10.434  0.9628 -1.2460 -0.5514
  175SOPE  H11B19844   5.787   3.644  10.558  0.0880 -0.1449  0.3267
  175SOPE     P19845   5.814   3.428  10.732 -0.1158 -0.1933  0.0607
  175SOPE   O1319846   5.691   3.504  10.772 -0.4705  0.3808 -0.7239
  175SOPE   O1419847   5.934   3.459  10.807 -0.2515 -0.0278  0.5592
  175SOPE   O1219848   5.845   3.444  10.577 -0.2873  0.2732 -0.3268
  175SOPE   O1119849   5.786   3.272  10.753 -0.0534  0.0779  0.1036
  175SOPE    C119850   5.872   3.179  10.691 -0.2409 -0.3631 -0.4222
  175SOPE    HA19851   5.876   3.086  10.752  1.4160 -0.5918 -0.8409
  175SOPE    HB19852   5.975   3.218  10.679 -0.0016 -0.6349  0.6284
  175SOPE    C219853   5.816   3.143  10.548 -0.3857  0.1191 -0.0333
  175SOPE    HS19854   5.796   3.238  10.496 -0.6081  1.1097  1.7857
  175SOPE   O2119855   5.698   3.069  10.561  0.2383  0.2091  0.2057
  175SOPE   C2119856   5.602   3.096  10.477 -0.1280  0.0516 -0.3954
  175SOPE   O2219857   5.594   3.194  10.405 -0.7067  0.1034 -0.0306
  175SOPE   C2219858   5.501   2.990  10.496 -0.2091 -0.1423 -0.5815
  175SOPE   H2R19859   5.464   3.015  10.598  1.6384  2.4977 -0.4339
  175SOPE   H2S19860   5.547   2.889  10.499 -0.4610 -0.2413  0.1090
  175SOPE    C319861   5.922   3.072  10.451  0.3673 -0.1290  0.1875
  175SOPE    HX19862   5.963   2.979  10.495  3.4833  0.5925 -0.8668
  175SOPE    HY19863   6.002   3.149  10.444 -0.1793  0.5668  1.2700
  175SOPE   O3119864   5.868   3.035  10.329 -0.0509 -0.0816 -0.2825
  175SOPE   C3119865   5.860   3.127  10.229 -0.2918 -0.4784  0.0303
  175SOPE   O3219866   5.917   3.232  10.224 -0.0661 -0.5999  0.1873
  175SOPE   C3219867   5.776   3.080  10.115 -0.7596  0.5209 -0.0769
  175SOPE   H2X19868   5.685   3.144  10.112 -1.1565 -0.0243  0.2673
  175SOPE   H2Y19869   5.747   2.974  10.127 -0.0303  0.1430 -1.4041
  175SOPE   C2319870   5.390   2.997  10.392  0.4100  0.4148 -0.6684
  175SOPE   H3R19871   5.367   3.102  10.363  0.0204 -0.0676 -2.1709
  175SOPE   H3S19872   5.297   2.956  10.435  1.2012 -0.4614  0.2787
  175SOPE   C2419873   5.428   2.913  10.270 -0.4200  0.5874  1.2880
  175SOPE   H4R19874   5.527   2.950  10.237 -0.1612 -0.2229  1.1337
  175SOPE   H4S19875   5.430   2.804  10.290  1.2815  0.0484 -1.3394
  175SOPE   C2519876   5.329   2.944  10.153 -0.2370 -0.4304 -0.0987
  175SOPE   H5R19877   5.308   2.850  10.097  2.5816 -0.5029 -1.1945
  175SOPE   H5S19878   5.233   2.986  10.190  0.2102  2.6944 -2.1293
  175SOPE   C2619879   5.395   3.044  10.052  0.4596 -0.1671  0.7709
  175SOPE   H6R19880   5.428   3.132  10.111 -0.1639  0.1891  0.5973
  175SOPE   H6S19881   5.480   2.982  10.014 -1.3945 -0.7751 -2.8201
  175SOPE   C2719882   5.308   3.086   9.930  0.5438  0.3739  0.7679
  175SOPE   H7R19883   5.266   3.002   9.870 -1.9262  1.9482  0.1694
  175SOPE   H7S19884   5.212   3.131   9.963  0.5025  0.0272  1.1379
  175SOPE   C2819885   5.376   3.177   9.833  0.0417 -0.5794  0.0496
  175SOPE   H8R19886   5.419   3.264   9.888 -0.4966 -0.2790  0.0047
  175SOPE   H8S19887   5.455   3.108   9.798  0.8293 -0.9799  2.4364
  175SOPE   C2919888   5.294   3.247   9.729  0.3235 -0.2587  0.4550
  175SOPE   H9119889   5.209   3.302   9.773  0.5256  0.5864 -0.1717
  175SOPE  C21019890   5.299   3.231   9.593  0.1081 -0.1683  0.8707
  175SOPE  H10119891   5.242   3.304   9.534  0.5563 -0.6708 -0.2041
  175SOPE  C21119892   5.390   3.140   9.525 -0.1405  0.1663  0.2725
  175SOPE  H11R19893   5.423   3.053   9.586  1.5741 -0.1111 -0.9702
  175SOPE  H11S19894   5.485   3.193   9.502  0.2875 -0.8622 -0.4315
  175SOPE  C21219895   5.338   3.083   9.383 -0.4254  0.4964 -0.4032
  175SOPE  H12R19896   5.248   3.029   9.419  1.2556 -0.5683  2.6052
  175SOPE  H12S19897   5.404   3.000   9.349 -0.7547 -0.7639  1.8037
  175SOPE  C21319898   5.326   3.187   9.280 -0.0151 -0.1408 -0.0679
  175SOPE  H13R19899   5.427   3.219   9.245 -0.6863 -1.3557 -3.5564
  175SOPE  H13S19900   5.264   3.275   9.310  1.0155  1.1803 -1.6030
  175SOPE  C21419901   5.259   3.135   9.150  0.2320 -0.2726  0.0906
  175SOPE  H14R19902   5.222   3.220   9.089  0.8733  1.3648  1.8897
  175SOPE  H14S19903   5.177   3.065   9.179  1.1656 -2.4359 -2.1133
  175SOPE  C21519904   5.361   3.051   9.073  0.4896  0.1553  0.3573
  175SOPE  H15R19905   5.410   2.976   9.138 -0.8982  0.1391  1.4300
  175SOPE  H15S19906   5.432   3.119   9.021 -1.0800  0.8126 -1.0420
  175SOPE  C21619907   5.293   2.993   8.957  0.4763  0.1929 -0.1727
  175SOPE  H16R19908   5.245   3.075   8.900  1.2397  1.4298  0.9196
  175SOPE  H16S19909   5.211   2.930   8.996  0.2440  0.6299  0.0475
  175SOPE  C21719910   5.386   2.907   8.871  0.3590 -0.3729 -0.0431
  175SOPE  H17R19911   5.327   2.850   8.797  1.6631 -1.8252 -0.0139
  175SOPE  H17S19912   5.426   2.836   8.947  0.4302  2.8706  3.2338
  175SOPE  C21819913   5.497   2.978   8.801 -0.7301  0.1269 -0.8407
  175SOPE  H18R19914   5.532   2.922   8.711 -0.1608 -3.0732  1.2036
  175SOPE  H18S19915   5.590   2.998   8.857 -1.1446 -0.1389 -0.0480
  175SOPE  H18T19916   5.454   3.064   8.746  0.1449 -0.8974 -3.2847
  175SOPE   C3319917   5.858   3.091   9.988 -0.1059  0.0459 -0.8170
  175SOPE   H3X19918   5.943   3.020   9.998 -1.2304 -1.1593  0.7507
  175SOPE   H3Y19919   5.899   3.194   9.981 -0.3991  0.4609  2.1217
  175SOPE   C3419920   5.779   3.068   9.860 -0.2081  0.2367  0.3873
  175SOPE   H4X19921   5.717   3.157   9.834  0.4376 -0.0591 -2.5397
  175SOPE   H4Y19922   5.712   2.982   9.878  0.3963 -0.3513 -0.1117
  175SOPE   C3519923   5.868   3.038   9.734 -0.0683  0.4453  0.1108
  175SOPE   H5X19924   5.887   2.929   9.737 -2.0017  0.0597 -0.1244
  175SOPE   H5Y19925   5.959   3.098   9.753  0.1837 -0.1295  0.7512
  175SOPE   C3619926   5.793   3.075   9.602 -0.1168 -0.4906  0.4332
  175SOPE   H6X19927   5.769   3.183   9.611 -1.5306 -0.8336  1.1268
  175SOPE   H6Y19928   5.695   3.023   9.601  0.0039 -0.7643  1.3662
  175SOPE   C3719929   5.871   3.037   9.480 -0.1546 -0.0460 -0.4892
  175SOPE   H7X19930   5.880   2.926   9.477 -1.7180 -0.2973  1.8036
  175SOPE   H7Y19931   5.970   3.088   9.479 -0.9225  1.6421  1.8183
  175SOPE   C3819932   5.807   3.077   9.345  0.9362 -0.2360 -0.3129
  175SOPE   H8X19933   5.707   3.031   9.332  0.9293 -0.6701  1.0786
  175SOPE   H8Y19934   5.863   3.037   9.257  1.2845  1.0574 -0.7020
  175SOPE   C3919935   5.788   3.226   9.318 -0.1464  0.7448 -0.4235
  175SOPE   H9X19936   5.871   3.278   9.372  0.9612 -1.1615 -0.1955
  175SOPE   H9Y19937   5.694   3.248   9.373 -0.3250 -2.2482  0.7020
  175SOPE  C31019938   5.762   3.255   9.172  0.2833  0.1550 -0.4482
  175SOPE  H10X19939   5.737   3.362   9.157 -0.9571 -0.1198 -0.4123
  175SOPE  H10Y19940   5.680   3.200   9.122  0.4394  2.2357 -3.2119
  175SOPE  C31119941   5.891   3.230   9.093  0.6512 -0.1007 -0.0114
  175SOPE  H11X19942   5.900   3.119   9.087 -0.2299 -0.3323  2.1079
  175SOPE  H11Y19943   5.974   3.278   9.149  1.4253  1.2577 -2.2052
  175SOPE  C31219944   5.901   3.292   8.955  0.0803 -0.1190  0.0714
  175SOPE  H12X19945   6.004   3.274   8.915 -0.1327  0.6658 -0.8863
  175SOPE  H12Y19946   5.892   3.401   8.974  0.5717 -0.2703  1.2895
  175SOPE  C31319947   5.817   3.241   8.845  0.5392 -0.2684 -0.6641
  175SOPE  H13X19948   5.710   3.244   8.874  1.1670 -1.6583  2.1911
  175SOPE  H13Y19949   5.842   3.134   8.832  0.7713 -0.2189 -0.6373
  175SOPE  C31419950   5.840   3.320   8.719  0.5505 -0.0127  0.1823
  175SOPE  H14X19951   5.948   3.318   8.691  0.4048  0.6728 -0.4732
  175SOPE  H14Y19952   5.816   3.427   8.740  2.7530  0.7106 -0.6629
  175SOPE  C31519953   5.758   3.266   8.601  0.6892 -0.4727 -0.1575
  175SOPE  H15X19954   5.655   3.309   8.601  0.8422 -0.0516 -1.7747
  175SOPE  H15Y19955   5.753   3.156   8.610 -0.6633 -0.2696  2.4823
  175SOPE  C31619956   5.811   3.314   8.467 -0.1628  0.3142 -0.1602
  175SOPE  H16X19957   5.909   3.266   8.450  0.2055  0.5864  1.1057
  175SOPE  H16Y19958   5.841   3.421   8.473 -3.8334  1.4471  0.3199
  175SOPE  C31719959   5.725   3.281   8.342 -0.1755 -0.1031 -0.5822
  175SOPE  H17X19960   5.674   3.188   8.372 -1.1547  0.6551  0.1755
  175SOPE  H17Y19961   5.786   3.267   8.250  1.9951  0.5809  0.6845
  175SOPE  C31819962   5.618   3.396   8.307 -0.0603  0.7566 -0.2185
  175SOPE  H18X19963   5.554   3.357   8.226  2.2981  0.9745 -2.3123
  175SOPE  H18Y19964   5.667   3.488   8.267  1.6802  0.2522  0.6494
  175SOPE  H18Z19965   5.554   3.415   8.396 -1.2252  1.6843 -1.2077
  176SOPE     N19966   5.621   3.205  10.991 -0.4863  0.1506  0.2468
  176SOPE   HN119967   5.578   3.295  10.959 -1.5710  0.3903  2.1826
  176SOPE   HN219968   5.612   3.196  11.094  1.1924 -0.4985  0.3544
  176SOPE   HN319969   5.721   3.186  10.973 -0.0723  0.7823  1.7124
  176SOPE   C1219970   5.547   3.090  10.924  0.0547 -0.3584  0.0397
  176SOPE  H12A19971   5.550   3.111  10.815 -1.8681 -1.6661 -0.3234
  176SOPE  H12B19972   5.442   3.096  10.961 -0.2138  0.8207 -0.8713
  176SOPE   C1119973   5.614   2.949  10.948 -0.9787 -0.1424 -0.1224
  176SOPE  H11A19974   5.566   2.887  10.870  0.3126 -0.9138 -0.3256
  176SOPE  H11B19975   5.578   2.912  11.047  3.8321 -0.2373  1.8651
  176SOPE     P19976   5.827   2.812  10.949  0.0403  0.3462 -0.4192
  176SOPE   O1319977   5.792   2.767  11.088 -0.2256 -0.8514  0.2285
  176SOPE   O1419978   5.969   2.838  10.928 -0.3700  0.0208  0.1574
  176SOPE   O1219979   5.752   2.948  10.929  0.1884  0.2272  0.3350
  176SOPE   O1119980   5.760   2.712  10.851 -0.7651  0.0175 -0.0806
  176SOPE    C119981   5.770   2.735  10.715  0.1709  0.5873 -0.1323
  176SOPE    HA19982   5.862   2.702  10.661  0.8314  2.8505 -0.4693
  176SOPE    HB19983   5.759   2.842  10.689  1.0265  0.1160 -2.6730
  176SOPE    C219984   5.672   2.639  10.647  0.6066  0.2307  0.2633
  176SOPE    HS19985   5.706   2.535  10.669 -0.3049 -0.7711 -2.6704
  176SOPE   O2119986   5.662   2.673  10.504  0.6412 -0.5464  0.2816
  176SOPE   C2119987   5.746   2.625  10.419 -0.2045  0.1044 -0.2016
  176SOPE   O2219988   5.828   2.541  10.438 -0.0214  0.2398 -0.3481
  176SOPE   C2219989   5.736   2.700  10.285  0.8250 -0.8004  0.3328
  176SOPE   H2R19990   5.837   2.697  10.239  0.0652 -0.3108 -1.4518
  176SOPE   H2S19991   5.698   2.803  10.303  0.1064 -1.0620  0.3617
  176SOPE    C319992   5.530   2.655  10.700 -0.9412 -0.4457 -0.2805
  176SOPE    HX19993   5.494   2.760  10.708  0.4772 -0.0438  1.5367
  176SOPE    HY19994   5.533   2.621  10.806 -2.1549  1.6080  0.4815
  176SOPE   O3119995   5.429   2.568  10.642  0.0626  0.1510  0.1579
  176SOPE   C3119996   5.316   2.615  10.604  0.2242 -0.2981  0.5326
  176SOPE   O3219997   5.285   2.734  10.601 -0.1484 -0.1004  0.4893
  176SOPE   C3219998   5.220   2.495  10.585 -0.2374 -0.4334 -0.2394
  176SOPE   H2X19999   5.178   2.487  10.687  1.2026 -0.4071  0.3768
  176SOPE   H2Y20000   5.275   2.399  10.570  2.3326  1.0336 -0.8413
  176SOPE   C2320001   5.642   2.638  10.178  0.1041  0.2476  0.5271
  176SOPE   H3R20002   5.537   2.652  10.211 -0.5111 -1.0288 -0.7659
  176SOPE   H3S20003   5.668   2.530  10.172 -0.0527  0.2294  0.1773
  176SOPE   C2420004   5.640   2.690  10.033  0.1921  0.2130 -0.2923
  176SOPE   H4R20005   5.646   2.801  10.029  1.2139  0.1530 -3.1936
  176SOPE   H4S20006   5.731   2.649   9.983  0.1742 -0.2790  0.0832
  176SOPE   C2520007   5.530   2.631   9.942 -0.3179 -0.6073 -0.1917
  176SOPE   H5R20008   5.513   2.530   9.984 -1.2181  0.0007  0.9859
  176SOPE   H5S20009   5.439   2.693   9.957  0.6026  0.4843  1.1240
  176SOPE   C2620010   5.573   2.614   9.795 -0.0754  0.8334  0.9914
  176SOPE   H6R20011   5.647   2.532   9.780 -0.5903  0.4229  0.6821
  176SOPE   H6S20012   5.489   2.567   9.740 -2.2966  0.9067  4.0512
  176SOPE   C2720013   5.633   2.736   9.720 -0.1878  0.2979 -0.4379
  176SOPE   H7R20014   5.563   2.822   9.718  0.3091  0.7709  0.8630
  176SOPE   H7S20015   5.726   2.763   9.775  0.0289 -0.9272 -0.1783
  176SOPE   C2820016   5.663   2.707   9.571 -0.0046 -0.8433 -0.9134
  176SOPE   H8R20017   5.716   2.798   9.538 -0.6089  0.1160  0.6804
  176SOPE   H8S20018   5.741   2.629   9.557  0.1122 -0.4588 -2.7382
  176SOPE   C2920019   5.548   2.679   9.479  0.9790 -0.5114  0.7598
  176SOPE   H9120020   5.460   2.743   9.498  1.5920  0.6375 -0.1777
  176SOPE  C21020021   5.528   2.579   9.395  0.4171  0.2045  0.0204
  176SOPE  H10120022   5.428   2.565   9.350  0.1456  0.6796  0.4676
  176SOPE  C21120023   5.628   2.469   9.358  0.3122  0.2450 -0.0707
  176SOPE  H11R20024   5.583   2.368   9.353  0.9532  0.0141 -1.5829
  176SOPE  H11S20025   5.698   2.461   9.444 -0.4279  1.9076  0.7412
  176SOPE  C21220026   5.707   2.502   9.229 -0.5186  0.1435  0.2107
  176SOPE  H12R20027   5.795   2.434   9.222 -0.0769  0.6668  0.5430
  176SOPE  H12S20028   5.744   2.607   9.229  1.0664 -0.3887  0.4224
  176SOPE  C21320029   5.623   2.487   9.099  0.3876 -0.2175 -0.6360
  176SOPE  H13R20030   5.543   2.564   9.094 -0.8892 -1.2946  1.6565
  176SOPE  H13S20031   5.560   2.396   9.100 -1.6296  1.1134  0.8268
  176SOPE  C21420032   5.705   2.486   8.969 -0.5373  0.9638  0.0943
  176SOPE  H14R20033   5.638   2.480   8.881 -0.1068 -0.4888 -0.1739
  176SOPE  H14S20034   5.770   2.396   8.960 -0.3576  1.2735 -2.1134
  176SOPE  C21520035   5.786   2.616   8.944  0.4902  0.0567 -0.7318
  176SOPE  H15R20036   5.795   2.674   9.038  1.0531 -1.7118  0.3525
  176SOPE  H15S20037   5.724   2.692   8.892  0.0227 -0.7846 -1.4326
  176SOPE  C21620038   5.923   2.593   8.880  0.2178  0.4501  0.3578
  176SOPE  H16R20039   5.902   2.521   8.797 -0.4999  1.5902 -0.4883
  176SOPE  H16S20040   5.988   2.546   8.956  0.4998  0.2207 -0.0185
  176SOPE  C21720041   5.986   2.712   8.809  0.0751 -0.9073 -0.1571
  176SOPE  H17R20042   5.913   2.774   8.751 -0.9956 -0.5768  1.4725
  176SOPE  H17S20043   6.058   2.672   8.735 -1.7384  1.7460 -3.6847
  176SOPE  C21820044   6.058   2.811   8.910 -0.0905  0.1426 -0.5700
  176SOPE  H18R20045   6.138   2.769   8.975  0.9101  2.9826  0.1780
  176SOPE  H18S20046   5.979   2.867   8.964 -0.1968 -0.5606  0.0223
  176SOPE  H18T20047   6.111   2.885   8.847  1.6618 -2.0587 -1.8399
  176SOPE   C3320048   5.118   2.510  10.479 -0.8759  0.2773 -0.3811
  176SOPE   H3X20049   5.063   2.606  10.484 -1.3849 -0.0963  2.5141
  176SOPE   H3Y20050   5.048   2.424  10.486  1.2672 -1.4319  1.4185
  176SOPE   C3420051   5.180   2.494  10.338  0.2037 -0.0315  1.0173
  176SOPE   H4X20052   5.169   2.389  10.305 -1.5585  0.7545 -1.1120
  176SOPE   H4Y20053   5.285   2.531  10.331  0.3446 -0.7034 -0.9267
  176SOPE   C3520054   5.106   2.580  10.230  0.2996  0.2204 -0.5737
  176SOPE   H5X20055   5.156   2.679  10.225  1.3619 -0.3541 -2.0312
  176SOPE   H5Y20056   5.001   2.601  10.262  0.0522  0.4735 -1.5398
  176SOPE   C3620057   5.120   2.526  10.093 -0.7348 -0.4737 -0.1987
  176SOPE   H6X20058   5.075   2.425  10.081  2.3172 -2.0276  0.4127
  176SOPE   H6Y20059   5.226   2.506  10.065 -1.2708 -2.0591 -1.2280
  176SOPE   C3720060   5.065   2.619   9.982 -0.3044  0.0657  0.1797
  176SOPE   H7X20061   5.107   2.722   9.982  0.1865 -0.1312  0.3142
  176SOPE   H7Y20062   4.957   2.637  10.003 -1.0478 -2.4617 -1.0616
  176SOPE   C3820063   5.085   2.559   9.843  0.3743  1.0840 -0.4593
  176SOPE   H8X20064   5.053   2.453   9.848  1.7296  0.6155 -1.0975
  176SOPE   H8Y20065   5.196   2.563   9.833  0.8481 -1.0231  2.3893
  176SOPE   C3920066   5.015   2.628   9.723  0.4934  0.5946 -0.0785
  176SOPE   H9X20067   5.018   2.737   9.745  3.2721  0.7471 -0.8716
  176SOPE   H9Y20068   4.908   2.600   9.721  0.6531 -0.0999  0.4876
  176SOPE  C31020069   5.097   2.612   9.590  0.5071  0.1710  0.6483
  176SOPE  H10X20070   5.110   2.504   9.568  2.0981  0.3596  0.5214
  176SOPE  H10Y20071   5.203   2.645   9.596  0.2577  0.8105  1.8451
  176SOPE  C31120072   5.015   2.675   9.480  0.6025 -0.3388  0.5958
  176SOPE  H11X20073   4.997   2.780   9.513  2.3300 -0.5057  2.2279
  176SOPE  H11Y20074   4.917   2.623   9.488  0.1820  0.4696  0.8616
  176SOPE  C31220075   5.081   2.671   9.349  0.2965  0.3380  1.1215
  176SOPE  H12X20076   5.124   2.574   9.317 -1.1971 -0.2088  0.7152
  176SOPE  H12Y20077   5.170   2.738   9.346  1.3180 -1.0026 -0.3292
  176SOPE  C31320078   4.981   2.698   9.240 -0.3175 -0.1357  0.1224
  176SOPE  H13X20079   4.936   2.793   9.278 -0.2330 -0.5673  1.3248
  176SOPE  H13Y20080   4.898   2.624   9.245  0.8576 -1.3678  2.6417
  176SOPE  C31420081   5.046   2.704   9.098  0.5771  0.4648  0.0108
  176SOPE  H14X20082   5.103   2.614   9.069  1.1194 -0.4352  3.4268
  176SOPE  H14Y20083   5.129   2.778   9.101  0.0607  1.0194  1.9500
  176SOPE  C31520084   4.955   2.759   8.989  0.3798  0.2361  0.0940
  176SOPE  H15X20085   4.945   2.869   8.995  0.6142  0.2188  0.9893
  176SOPE  H15Y20086   4.862   2.700   9.002  1.0934 -1.3869 -1.6515
  176SOPE  C31620087   4.990   2.738   8.839  0.1491  0.5113 -0.0130
  176SOPE  H16X20088   5.042   2.641   8.825 -1.7248 -0.5937  0.3607
  176SOPE  H16Y20089   5.069   2.812   8.815 -1.0049  1.5722 -0.6834
  176SOPE  C31720090   4.875   2.752   8.742  0.0919 -0.6289 -0.7363
  176SOPE  H17X20091   4.833   2.855   8.749  1.1871 -0.0621 -1.9577
  176SOPE  H17Y20092   4.796   2.681   8.773  0.0704 -1.6434 -2.9544
  176SOPE  C31820093   4.906   2.729   8.599 -0.0350 -0.6115  0.2139
  176SOPE  H18X20094   4.811   2.708   8.545  0.0307  2.2743 -1.2274
  176SOPE  H18Y20095   4.967   2.637   8.597  0.2235 -0.4436 -2.4989
  176SOPE  H18Z20096   4.966   2.815   8.562 -1.2824 -0.0781 -0.6376
  177SOPE     N20097   4.535   0.212  10.916 -0.1383  0.3357 -0.3328
  177SOPE   HN120098   4.533   0.269  10.828  2.3610  1.5258  0.3122
  177SOPE   HN220099   4.504   0.115  10.898 -0.8907  0.5884 -0.4715
  177SOPE   HN320100   4.458   0.249  10.976 -0.9491  3.0406 -2.7884
  177SOPE   C1220101   4.677   0.234  10.960 -0.9296 -0.0163 -0.3733
  177SOPE  H12A20102   4.743   0.228  10.871  1.0067  0.4627  0.9582
  177SOPE  H12B20103   4.696   0.150  11.031  0.8260 -1.1756 -2.1013
  177SOPE   C1120104   4.713   0.368  11.034 -0.3424 -0.5124  0.3507
  177SOPE  H11A20105   4.817   0.403  11.016 -0.9635  0.5646 -1.4121
  177SOPE  H11B20106   4.701   0.354  11.143  1.3516  2.2413  0.9801
  177SOPE     P20107   4.644   0.612  11.022  0.4412  0.1314  0.4357
  177SOPE   O1320108   4.789   0.643  10.998  0.2337  0.1385 -0.6398
  177SOPE   O1420109   4.586   0.641  11.152 -0.1688  0.5220 -0.2202
  177SOPE   O1220110   4.619   0.463  10.984 -0.3151 -0.0043  0.0177
  177SOPE   O1120111   4.556   0.681  10.914  0.5211  0.4363  0.3678
  177SOPE    C120112   4.593   0.730  10.785  0.0557 -0.1747  0.1666
  177SOPE    HA20113   4.700   0.757  10.775 -0.3394  1.7134  0.6223
  177SOPE    HB20114   4.535   0.823  10.766  2.1006  1.2272  0.4383
  177SOPE    C220115   4.562   0.624  10.678  0.3859  0.4514  0.1432
  177SOPE    HS20116   4.632   0.541  10.698  0.3590  0.8963  2.3018
  177SOPE   O2120117   4.560   0.673  10.539 -0.2474  0.4425  0.2269
  177SOPE   C2120118   4.679   0.685  10.480  1.4880 -0.2305 -0.2458
  177SOPE   O2220119   4.783   0.668  10.537  0.1816  0.2675 -0.7557
  177SOPE   C2220120   4.655   0.728  10.335  0.1476 -0.2582 -0.4456
  177SOPE   H2R20121   4.553   0.766  10.317  1.0959  3.7647  1.5590
  177SOPE   H2S20122   4.669   0.633  10.278 -0.6829  0.1605 -1.3798
  177SOPE    C320123   4.421   0.558  10.698  0.2541  1.0837 -0.1493
  177SOPE    HX20124   4.343   0.638  10.706 -1.2713 -0.5376  4.0025
  177SOPE    HY20125   4.400   0.511  10.797  0.1620  0.9085 -0.2519
  177SOPE   O3120126   4.392   0.464  10.591 -0.7531 -0.3233  0.0849
  177SOPE   C3120127   4.464   0.353  10.573 -0.6687 -0.4415  0.0527
  177SOPE   O3220128   4.546   0.309  10.652 -0.7791  0.1262  0.3977
  177SOPE   C3220129   4.422   0.277  10.450 -0.3051 -0.1816 -0.1282
  177SOPE   H2X20130   4.315   0.246  10.459 -0.4716  0.2391 -0.5995
  177SOPE   H2Y20131   4.481   0.183  10.454  0.0195  0.0634  1.9830
  177SOPE   C2320132   4.754   0.832  10.278  0.2551  0.4975 -0.6611
  177SOPE   H3R20133   4.849   0.776  10.272  0.0601  0.2349 -1.4636
  177SOPE   H3S20134   4.769   0.917  10.348 -0.8028  1.6215 -1.7443
  177SOPE   C2420135   4.730   0.876  10.137 -0.2522  0.2575 -1.1726
  177SOPE   H4R20136   4.735   0.788  10.068  0.0380 -1.5084  0.9964
  177SOPE   H4S20137   4.625   0.912  10.138 -1.7275 -3.4992 -0.5003
  177SOPE   C2520138   4.823   0.993  10.097 -0.0019 -0.0345  0.0087
  177SOPE   H5R20139   4.837   1.049  10.192  1.4545  1.3289 -0.9419
  177SOPE   H5S20140   4.921   0.955  10.063 -0.6151  1.6790 -4.3004
  177SOPE   C2620141   4.781   1.086   9.978  1.0866  0.6461  0.2032
  177SOPE   H6R20142   4.685   1.127  10.015  1.0105 -1.5057  2.7224
  177SOPE   H6S20143   4.855   1.167   9.964  1.1307  0.5230 -0.3225
  177SOPE   C2720144   4.736   1.018   9.841  0.0998  0.3704  0.7239
  177SOPE   H7R20145   4.648   0.952   9.848  1.5339 -1.5877  1.2581
  177SOPE   H7S20146   4.714   1.095   9.764 -0.2492 -0.7429 -0.3083
  177SOPE   C2820147   4.851   0.919   9.788  0.4903 -0.7754 -0.0319
  177SOPE   H8R20148   4.872   0.839   9.862 -2.4984 -1.1790  0.5017
  177SOPE   H8S20149   4.797   0.861   9.710 -0.5369 -1.6463  1.2803
  177SOPE   C2920150   4.977   0.984   9.739  0.4764 -0.6275  0.6285
  177SOPE   H9120151   5.038   1.023   9.821 -0.7876  4.1851 -0.3927
  177SOPE  C21020152   5.028   0.991   9.615  0.8618 -1.0255  0.6777
  177SOPE  H10120153   5.126   1.037   9.597  0.0226  0.2322 -1.0375
  177SOPE  C21120154   4.974   0.928   9.490  0.6552 -0.0041  0.3727
  177SOPE  H11R20155   4.864   0.939   9.477  0.5393 -2.5741 -1.6775
  177SOPE  H11S20156   4.983   0.818   9.493  1.3959  0.0334 -0.2035
  177SOPE  C21220157   5.049   0.961   9.365  0.0859 -0.0152  0.2261
  177SOPE  H12R20158   5.147   0.910   9.354 -0.8891 -1.7360 -0.9801
  177SOPE  H12S20159   5.073   1.069   9.355  1.4558 -0.2836  0.3512
  177SOPE  C21320160   4.988   0.927   9.228 -0.2812 -0.5346  0.0881
  177SOPE  H13R20161   4.879   0.906   9.227 -0.3602 -0.1578  0.6189
  177SOPE  H13S20162   5.026   0.822   9.224 -1.1203 -1.1963  4.3240
  177SOPE  C21420163   5.039   1.021   9.120 -0.5403  0.0756 -0.3361
  177SOPE  H14R20164   5.150   1.024   9.128 -0.3726 -0.8781 -1.9171
  177SOPE  H14S20165   4.997   1.120   9.149 -0.6366 -0.4241  1.3291
  177SOPE  C21520166   5.016   0.975   8.972 -0.7199  0.5812  0.0478
  177SOPE  H15R20167   5.072   1.040   8.901  1.2980 -1.5489 -0.4523
  177SOPE  H15S20168   4.908   0.978   8.949 -0.9913 -1.3657  0.8663
  177SOPE  C21620169   5.064   0.831   8.946  0.2365 -0.0726 -0.4064
  177SOPE  H16R20170   5.006   0.756   9.004 -0.2254  0.4264 -0.2149
  177SOPE  H16S20171   5.174   0.822   8.963  0.1765 -1.7151 -0.6998
  177SOPE  C21720172   5.049   0.796   8.799  0.6153  0.9221 -0.1514
  177SOPE  H17R20173   5.102   0.865   8.731 -1.0201  2.1315 -0.2706
  177SOPE  H17S20174   4.941   0.808   8.773  0.3934  0.7056  0.6258
  177SOPE  C21820175   5.096   0.644   8.784 -0.0058 -0.6518  0.2751
  177SOPE  H18R20176   5.187   0.620   8.843  0.1389 -3.5150 -0.9793
  177SOPE  H18S20177   5.107   0.627   8.675  0.4461  0.9389  0.0431
  177SOPE  H18T20178   5.012   0.581   8.819 -0.9533  0.0068 -0.7702
  177SOPE   C3320179   4.450   0.355  10.319  0.6193  0.1640  0.8186
  177SOPE   H3X20180   4.518   0.442  10.332  2.0978 -0.1713 -3.3261
  177SOPE   H3Y20181   4.351   0.385  10.278  0.1737 -2.7925 -0.5150
  177SOPE   C3420182   4.524   0.274  10.215  0.5009 -0.7390  0.2604
  177SOPE   H4X20183   4.456   0.200  10.168  2.2007 -1.5941 -0.9394
  177SOPE   H4Y20184   4.597   0.215  10.276  0.9029  1.6805  2.2894
  177SOPE   C3520185   4.589   0.372  10.112  0.0448 -0.3304  1.0034
  177SOPE   H5X20186   4.659   0.303  10.062  0.0614 -0.8866  1.7695
  177SOPE   H5Y20187   4.648   0.457  10.152 -0.4695  1.3880 -1.6501
  177SOPE   C3620188   4.505   0.410   9.982  0.3610  0.6743  0.6373
  177SOPE   H6X20189   4.428   0.487  10.006 -0.8662 -0.0508 -0.8076
  177SOPE   H6Y20190   4.462   0.319   9.935  1.1497  0.1946  0.8367
  177SOPE   C3720191   4.589   0.469   9.871  0.6782 -0.3103 -0.1226
  177SOPE   H7X20192   4.644   0.382   9.829  0.6307 -0.1158 -0.5983
  177SOPE   H7Y20193   4.663   0.541   9.913  0.8951 -0.3533 -0.4219
  177SOPE   C3820194   4.503   0.525   9.758  0.0296 -0.3958  0.2447
  177SOPE   H8X20195   4.429   0.594   9.803  1.9996  1.9486  0.0544
  177SOPE   H8Y20196   4.450   0.444   9.703  1.4295 -0.8007 -0.5611
  177SOPE   C3920197   4.585   0.591   9.648 -0.1212 -0.1934  0.9084
  177SOPE   H9X20198   4.665   0.524   9.611  0.0125  1.6057 -2.4684
  177SOPE   H9Y20199   4.632   0.682   9.691 -1.1106 -0.0463  1.7303
  177SOPE  C31020200   4.505   0.639   9.526  0.1827 -0.0184  0.0223
  177SOPE  H10X20201   4.428   0.710   9.562  1.3275  0.3746  1.8303
  177SOPE  H10Y20202   4.451   0.552   9.483 -1.0140  0.1435  1.1386
  177SOPE  C31120203   4.586   0.709   9.421 -0.2830 -0.3955  0.4633
  177SOPE  H11X20204   4.656   0.631   9.381  0.1807  0.1501  0.1925
  177SOPE  H11Y20205   4.638   0.794   9.470 -0.4545 -0.2756  0.4346
  177SOPE  C31220206   4.504   0.765   9.305  0.6027  0.6284  0.2823
  177SOPE  H12X20207   4.415   0.797   9.363  1.0455  0.6114  0.9773
  177SOPE  H12Y20208   4.471   0.672   9.254 -0.4646  1.0304  0.1930
  177SOPE  C31320209   4.553   0.881   9.220 -0.0533  0.5628 -0.3382
  177SOPE  H13X20210   4.474   0.912   9.149  1.2625  0.0134 -2.1000
  177SOPE  H13Y20211   4.636   0.848   9.154 -0.8418  0.2686 -1.1945
  177SOPE  C31420212   4.609   1.001   9.301 -0.2165 -0.1773  0.3832
  177SOPE  H14X20213   4.699   0.969   9.357 -0.2412 -1.3023 -0.1900
  177SOPE  H14Y20214   4.536   1.025   9.381 -0.1014 -0.7903  0.6739
  177SOPE  C31520215   4.634   1.125   9.217 -0.5114 -0.5488 -0.3685
  177SOPE  H15X20216   4.545   1.140   9.151  0.4418 -2.5981 -2.2162
  177SOPE  H15Y20217   4.718   1.110   9.146  0.4105  0.7124  0.4083
  177SOPE  C31620218   4.641   1.249   9.303  0.3103  0.0225  0.1434
  177SOPE  H16X20219   4.547   1.272   9.358  0.2861  1.7849 -0.5659
  177SOPE  H16Y20220   4.647   1.337   9.236  2.4862  0.8699  1.3486
  177SOPE  C31720221   4.762   1.254   9.389 -0.1142  0.4269 -0.0008
  177SOPE  H17X20222   4.851   1.235   9.325  0.8099 -0.3461  1.4640
  177SOPE  H17Y20223   4.772   1.169   9.459  1.8013 -1.9981 -2.9610
  177SOPE  C31820224   4.774   1.388   9.465  0.0755 -0.1032 -0.7505
  177SOPE  H18X20225   4.876   1.396   9.508  0.5462 -0.9427 -1.6646
  177SOPE  H18Y20226   4.704   1.396   9.551  1.2143  3.8135 -0.0196
  177SOPE  H18Z20227   4.764   1.481   9.405 -0.2009  0.4397  0.1100
  178SOPE     N20228   0.323   5.824  10.853  0.1837 -0.5111 -0.3926
  178SOPE   HN120229   0.225   5.855  10.872  0.5399  0.0750  0.5658
  178SOPE   HN220230   0.329   5.723  10.873 -0.6192 -0.2966  1.0928
  178SOPE   HN320231   0.392   5.873  10.914 -0.7552 -0.9567  1.0888
  178SOPE   C1220232   0.352   5.839  10.712 -0.5551  0.0107  0.0920
  178SOPE  H12A20233   0.360   5.946  10.681  0.3759 -0.7043 -2.3066
  178SOPE  H12B20234   0.269   5.794  10.654  1.0631 -0.8226 -1.6910
  178SOPE   C1120235   0.490   5.783  10.683 -0.3114 -0.3030  0.3564
  178SOPE  H11A20236   0.509   5.805  10.576  0.2711  1.3651  0.7643
  178SOPE  H11B20237   0.477   5.674  10.701 -0.4487  0.0045  2.3477
  178SOPE     P20238   0.736   5.782  10.787 -0.1352  0.1770 -0.4429
  178SOPE   O1320239   0.736   5.677  10.893 -0.7884  0.1635 -0.5483
  178SOPE   O1420240   0.830   5.900  10.793 -0.7107  0.1949 -0.0035
  178SOPE   O1220241   0.588   5.834  10.771 -0.4661 -0.1704  0.3429
  178SOPE   O1120242   0.769   5.707  10.656  0.5668 -0.1107 -0.3934
  178SOPE    C120243   0.811   5.781  10.542  0.2513  0.0525  0.0570
  178SOPE    HA20244   0.906   5.835  10.565  0.0537  0.8084 -0.8391
  178SOPE    HB20245   0.739   5.858  10.508  1.3083  0.2765 -1.8047
  178SOPE    C220246   0.837   5.693  10.422  0.0641 -0.8522  0.1320
  178SOPE    HS20247   0.941   5.655  10.428  0.9690  1.3662 -0.5740
  178SOPE   O2120248   0.832   5.774  10.301  0.0746 -0.1804 -0.9784
  178SOPE   C2120249   0.943   5.839  10.268  0.8866  0.3288 -0.0760
  178SOPE   O2220250   1.046   5.834  10.330  0.4984 -0.3042 -0.2286
  178SOPE   C2220251   0.921   5.917  10.143 -0.0275 -0.5684  0.1701
  178SOPE   H2R20252   0.827   5.972  10.163  0.1187 -0.0597 -0.4767
  178SOPE   H2S20253   0.903   5.842  10.062  0.8819 -0.9632  0.3171
  178SOPE    C320254   0.733   5.577  10.408 -0.2232  0.3968 -0.9190
  178SOPE    HX20255   0.633   5.625  10.413 -1.1128 -1.4747  1.6497
  178SOPE    HY20256   0.729   5.511  10.498  0.7804  0.3869 -0.8743
  178SOPE   O3120257   0.739   5.521  10.282 -0.0595  0.0159 -0.4158
  178SOPE   C3120258   0.839   5.442  10.256 -0.4149  0.3063 -0.5971
  178SOPE   O3220259   0.942   5.432  10.321  0.3953 -0.1174 -0.6610
  178SOPE   C3220260   0.819   5.365  10.123 -0.1790  0.1221  0.1079
  178SOPE   H2X20261   0.720   5.401  10.087 -0.7967 -1.5556  0.0634
  178SOPE   H2Y20262   0.807   5.259  10.154  1.1703 -0.3602 -0.9328
  178SOPE   C2320263   1.028   6.019  10.108 -0.1403 -0.6379  0.1449
  178SOPE   H3R20264   1.125   5.966  10.121 -1.2302 -2.7373  0.1801
  178SOPE   H3S20265   1.031   6.103  10.180 -0.2429  0.5819 -1.2336
  178SOPE   C2420266   1.007   6.085   9.972 -0.4699 -0.9542  0.8161
  178SOPE   H4R20267   1.025   5.999   9.904 -2.2959 -0.7853  0.0403
  178SOPE   H4S20268   0.902   6.117   9.958  0.2892  1.0505 -0.7246
  178SOPE   C2520269   1.114   6.188   9.947  0.4481  0.8284 -0.1539
  178SOPE   H5R20270   1.096   6.274  10.014 -1.0296 -0.9627  1.8930
  178SOPE   H5S20271   1.220   6.157   9.955 -0.1696 -1.7884 -0.9971
  178SOPE   C2620272   1.095   6.254   9.800 -0.3438 -0.1326  0.2714
  178SOPE   H6R20273   1.123   6.168   9.735 -0.1626 -0.9829  1.4235
  178SOPE   H6S20274   0.995   6.294   9.773 -0.4361  0.9685  2.0775
  178SOPE   C2720275   1.196   6.365   9.794 -0.0287 -0.2610 -0.0280
  178SOPE   H7R20276   1.208   6.424   9.887 -1.2482  1.2162 -0.7607
  178SOPE   H7S20277   1.293   6.314   9.778  0.5061  0.7255 -0.0210
  178SOPE   C2820278   1.173   6.487   9.695 -0.2257  1.1357  0.5587
  178SOPE   H8R20279   1.132   6.438   9.605  0.3828 -0.1100  0.9412
  178SOPE   H8S20280   1.091   6.550   9.735 -1.9977 -1.1456  0.7155
  178SOPE   C2920281   1.294   6.567   9.642 -0.2686 -1.1417 -0.9198
  178SOPE   H9120282   1.321   6.665   9.684  3.4296 -1.2234 -2.6666
  178SOPE  C21020283   1.384   6.516   9.555 -0.2413 -0.1002  0.2461
  178SOPE  H10120284   1.461   6.582   9.512 -1.2780  1.3085  0.4911
  178SOPE  C21120285   1.384   6.380   9.490  0.0437  0.5466  0.0789
  178SOPE  H11R20286   1.310   6.312   9.538 -0.5021 -0.6021 -2.2509
  178SOPE  H11S20287   1.483   6.335   9.512 -0.3474 -0.4995 -0.2753
  178SOPE  C21220288   1.360   6.383   9.332  0.3810 -0.3779 -0.3823
  178SOPE  H12R20289   1.431   6.445   9.272 -0.7155 -0.3297 -1.6798
  178SOPE  H12S20290   1.263   6.437   9.329  0.7880  0.7903  2.9587
  178SOPE  C21320291   1.344   6.242   9.269  0.6325 -0.2528 -0.2484
  178SOPE  H13R20292   1.282   6.177   9.333 -0.6537  2.2008  1.1294
  178SOPE  H13S20293   1.445   6.199   9.287  0.8888  0.2017 -0.5868
  178SOPE  C21420294   1.299   6.222   9.121 -0.3280 -0.2945  0.2642
  178SOPE  H14R20295   1.198   6.265   9.105 -0.0821 -0.4195 -2.0284
  178SOPE  H14S20296   1.286   6.113   9.100 -1.4898 -0.1313  0.0664
  178SOPE  C21520297   1.403   6.265   9.019 -0.1298 -0.0289 -0.1458
  178SOPE  H15R20298   1.417   6.374   9.034  0.3295 -0.1158  0.0529
  178SOPE  H15S20299   1.380   6.256   8.910  0.1521  0.3277 -0.2354
  178SOPE  C21620300   1.544   6.204   9.032  0.2134  0.6843  0.0057
  178SOPE  H16R20301   1.558   6.160   9.133 -0.1149  0.3440 -0.0922
  178SOPE  H16S20302   1.618   6.286   9.020  1.0729 -0.1297 -0.3734
  178SOPE  C21720303   1.571   6.099   8.923 -0.2401  0.0243  0.1676
  178SOPE  H17R20304   1.528   6.134   8.827  0.7383 -1.0797 -0.6995
  178SOPE  H17S20305   1.514   6.009   8.954 -0.9003  0.4702  0.2731
  178SOPE  C21820306   1.723   6.066   8.922 -0.2168  0.3835  0.3983
  178SOPE  H18R20307   1.739   5.976   8.859 -2.8132  1.2301 -1.6281
  178SOPE  H18S20308   1.758   6.052   9.027 -0.2370  0.3450  0.4002
  178SOPE  H18T20309   1.780   6.139   8.861 -1.5316  0.5822 -0.6182
  178SOPE   C3320310   0.927   5.375  10.011 -0.1556 -0.0900  0.4493
  178SOPE   H3X20311   1.007   5.306  10.045  0.5719  0.9970  1.0008
  178SOPE   H3Y20312   0.969   5.478  10.011 -0.8453  0.2143  1.9437
  178SOPE   C3420313   0.862   5.331   9.874 -0.4526  0.3004  0.1370
  178SOPE   H4X20314   0.778   5.394   9.840  0.2377  1.3063  0.2333
  178SOPE   H4Y20315   0.832   5.224   9.881  0.6283  0.0177  0.6622
  178SOPE   C3520316   0.962   5.334   9.764 -1.1127  0.3572  0.8633
  178SOPE   H5X20317   0.934   5.272   9.677 -0.0938 -1.0422  1.4959
  178SOPE   H5Y20318   1.054   5.281   9.795 -2.1520 -2.5963 -0.7027
  178SOPE   C3620319   1.002   5.476   9.718 -0.1567 -0.0478 -0.1483
  178SOPE   H6X20320   1.025   5.532   9.811  1.5135  0.6279 -0.9372
  178SOPE   H6Y20321   0.915   5.525   9.668  0.0773  0.1571 -0.3518
  178SOPE   C3720322   1.124   5.499   9.624  0.0040 -0.0693  0.2444
  178SOPE   H7X20323   1.218   5.460   9.668  0.6357  0.6286 -0.4531
  178SOPE   H7Y20324   1.149   5.606   9.614  1.4175 -0.5041 -1.5012
  178SOPE   C3820325   1.113   5.425   9.490 -0.2971  0.3774  0.5090
  178SOPE   H8X20326   1.079   5.319   9.492  0.9744 -0.1929 -2.3288
  178SOPE   H8Y20327   1.217   5.426   9.451 -0.1994  0.6372  0.7828
  178SOPE   C3920328   1.018   5.488   9.392  0.1183  0.8581  0.4241
  178SOPE   H9X20329   1.031   5.598   9.379 -0.6538  0.8317 -0.6918
  178SOPE   H9Y20330   0.911   5.477   9.419 -0.0070  3.5442  1.3690
  178SOPE  C31020331   1.033   5.439   9.243  0.4702 -0.1610  0.1418
  178SOPE  H10X20332   0.974   5.348   9.220  0.2077 -0.4650  1.8901
  178SOPE  H10Y20333   1.141   5.420   9.224  0.1731 -0.4196 -1.3826
  178SOPE  C31120334   1.012   5.559   9.141  0.7123  0.1322 -0.6459
  178SOPE  H11X20335   1.105   5.619   9.151  0.9674 -0.5982  2.0124
  178SOPE  H11Y20336   0.923   5.619   9.170  1.1686  0.4082  0.1979
  178SOPE  C31220337   0.961   5.520   8.998 -1.2617 -0.0272  0.0574
  178SOPE  H12X20338   0.914   5.611   8.954  0.3494  0.9159  0.1820
  178SOPE  H12Y20339   0.880   5.445   9.006 -1.6165  0.0736 -1.9092
  178SOPE  C31320340   1.082   5.468   8.918 -0.5003  0.0115 -0.0196
  178SOPE  H13X20341   1.041   5.410   8.832 -0.4723  0.5578 -0.4158
  178SOPE  H13Y20342   1.141   5.399   8.982  0.5832  0.6187 -0.3286
  178SOPE  C31420343   1.180   5.566   8.866 -0.3973  0.9061  0.2130
  178SOPE  H14X20344   1.204   5.640   8.945 -0.0305  0.6012  0.3913
  178SOPE  H14Y20345   1.138   5.617   8.777  0.4233 -2.8097 -2.5418
  178SOPE  C31520346   1.310   5.486   8.813 -0.3433 -0.3571 -0.5818
  178SOPE  H15X20347   1.269   5.418   8.735 -2.8768  0.2784  0.1072
  178SOPE  H15Y20348   1.358   5.425   8.893 -0.8073 -0.6292 -0.5072
  178SOPE  C31620349   1.414   5.560   8.734  0.5087 -0.0757  0.5711
  178SOPE  H16X20350   1.432   5.656   8.786  2.4709  0.1759 -0.4991
  178SOPE  H16Y20351   1.361   5.593   8.642  0.2296  2.8875  1.7144
  178SOPE  C31720352   1.543   5.480   8.711  0.4309  0.0900  0.2527
  178SOPE  H17X20353   1.591   5.511   8.615  0.3409  0.4644  0.3285
  178SOPE  H17Y20354   1.521   5.372   8.696 -2.1448  0.9030 -2.9837
  178SOPE  C31820355   1.646   5.507   8.817  0.0109 -0.5997  0.2119
  178SOPE  H18X20356   1.671   5.615   8.827 -2.3163 -0.1589  2.2686
  178SOPE  H18Y20357   1.740   5.457   8.785  1.6751  2.6261 -0.3421
  178SOPE  H18Z20358   1.622   5.460   8.915 -0.0486 -0.7878  0.1077
  179SOPE     N20359   0.156   0.058   6.745 -0.2974  0.6862  0.1613
  179SOPE   HN120360   0.114  -0.031   6.780  3.0559 -0.9026  0.6316
  179SOPE   HN220361   0.126   0.068   6.646 -1.4420  6.2326  0.7680
  179SOPE   HN320362   0.259   0.045   6.748 -0.0188  1.3117 -2.9271
  179SOPE   C1220363   0.113   0.178   6.819 -0.1249 -0.0245 -0.0919
  179SOPE  H12A20364   0.136   0.164   6.926  0.1425  0.5944 -0.0588
  179SOPE  H12B20365   0.004   0.193   6.809 -0.0390  0.5530 -0.2205
  179SOPE   C1120366   0.174   0.311   6.756  0.6529 -0.0430 -0.0232
  179SOPE  H11A20367   0.130   0.390   6.821  0.4714 -0.4216  0.3173
  179SOPE  H11B20368   0.137   0.320   6.651  0.3633  3.4093  0.2711
  179SOPE     P20369   0.414   0.416   6.684 -0.0838  0.3099  0.2359
  179SOPE   O1320370   0.349   0.451   6.554  0.5351 -0.8538  0.2570
  179SOPE   O1420371   0.551   0.361   6.683  0.0231 -0.1256 -0.6463
  179SOPE   O1220372   0.317   0.311   6.760 -0.1703  0.0996  0.2422
  179SOPE   O1120373   0.422   0.541   6.780 -0.1608  0.5068  0.3105
  179SOPE    C120374   0.392   0.529   6.921  0.7867  0.7313  0.4459
  179SOPE    HA20375   0.449   0.448   6.970  0.9096  0.7364  0.3106
  179SOPE    HB20376   0.283   0.515   6.937  0.4631  1.6994 -0.7994
  179SOPE    C220377   0.431   0.658   6.986 -0.7225 -0.1090 -0.0827
  179SOPE    HS20378   0.541   0.658   6.976 -0.6035  0.3075  1.0975
  179SOPE   O2120379   0.398   0.647   7.129  0.3264 -0.1040  0.9863
  179SOPE   C2120380   0.488   0.710   7.203  0.2634  0.9290  0.0063
  179SOPE   O2220381   0.587   0.760   7.161 -0.8825 -0.6264 -0.0312
  179SOPE   C2220382   0.457   0.689   7.352 -0.0210 -0.2706  0.0034
  179SOPE   H2R20383   0.533   0.619   7.394  0.7676 -0.4086 -1.5868
  179SOPE   H2S20384   0.361   0.640   7.380  0.7793 -2.1626 -0.4273
  179SOPE    C320385   0.365   0.789   6.927 -0.0735  0.3397 -0.1329
  179SOPE    HX20386   0.258   0.782   6.955 -0.4757  1.3313 -1.3125
  179SOPE    HY20387   0.380   0.787   6.817  0.7963  0.4942 -0.0208
  179SOPE   O3120388   0.414   0.907   6.988 -0.3329 -0.3952 -0.5468
  179SOPE   C3120389   0.402   1.010   6.908 -0.5607  0.9219 -0.5210
  179SOPE   O3220390   0.364   1.013   6.793  0.1458 -0.7818  0.0384
  179SOPE   C3220391   0.463   1.127   6.982  0.2422  0.5387 -0.3222
  179SOPE   H2X20392   0.571   1.103   6.993  0.5301  2.0930  0.5889
  179SOPE   H2Y20393   0.413   1.127   7.081 -1.5827 -0.1901 -1.2080
  179SOPE   C2320394   0.469   0.818   7.441  0.4267 -0.3485  0.1928
  179SOPE   H3R20395   0.450   0.802   7.550  0.4974  0.3888  0.3189
  179SOPE   H3S20396   0.389   0.885   7.405 -0.5302 -0.9487  1.1459
  179SOPE   C2420397   0.591   0.901   7.429 -1.1095  0.8871  0.4603
  179SOPE   H4R20398   0.674   0.842   7.473 -1.8382  0.4675  1.2982
  179SOPE   H4S20399   0.612   0.939   7.326 -0.8258 -0.6377 -0.0615
  179SOPE   C2520400   0.581   1.030   7.497 -0.1811 -0.0234  0.5656
  179SOPE   H5R20401   0.477   1.071   7.495 -0.2738 -0.2079  1.2341
  179SOPE   H5S20402   0.594   1.008   7.605  0.9739 -0.7712  0.2840
  179SOPE   C2620403   0.685   1.138   7.453 -0.0715  0.3331  0.0591
  179SOPE   H6R20404   0.781   1.086   7.431 -1.3440 -1.1757 -2.4114
  179SOPE   H6S20405   0.638   1.175   7.360  2.1145  0.0076 -1.2403
  179SOPE   C2720406   0.715   1.258   7.546  0.7877  0.3296 -0.8361
  179SOPE   H7R20407   0.762   1.339   7.487  2.4162 -0.7589 -1.1026
  179SOPE   H7S20408   0.613   1.297   7.568 -0.3505 -1.3276 -2.8283
  179SOPE   C2820409   0.779   1.218   7.683  0.0731  0.2292  0.3121
  179SOPE   H8R20410   0.722   1.143   7.742 -0.7967 -1.1479 -2.1470
  179SOPE   H8S20411   0.869   1.163   7.650 -1.7623 -1.3788 -2.3774
  179SOPE   C2920412   0.824   1.339   7.766  0.5570  0.4872 -0.8437
  179SOPE   H9120413   0.912   1.395   7.731  0.4037  0.0563 -1.9440
  179SOPE  C21020414   0.750   1.386   7.867  0.6539 -0.3353  0.4275
  179SOPE  H10120415   0.781   1.480   7.916  2.4526 -0.8947  0.4454
  179SOPE  C21120416   0.616   1.330   7.912 -0.0949 -0.6053 -0.6031
  179SOPE  H11R20417   0.620   1.220   7.926 -2.2892 -0.5966  0.6160
  179SOPE  H11S20418   0.539   1.368   7.842 -1.9284 -1.2247  0.9713
  179SOPE  C21220419   0.572   1.382   8.058  0.1928  0.3768  1.6452
  179SOPE  H12R20420   0.469   1.340   8.061  1.0016 -1.7189  1.2061
  179SOPE  H12S20421   0.553   1.491   8.070 -1.3076  0.1656  1.4528
  179SOPE  C21320422   0.652   1.330   8.177  0.1491  0.4414  0.0177
  179SOPE  H13R20423   0.757   1.364   8.165  0.2952  0.1172  0.3525
  179SOPE  H13S20424   0.640   1.219   8.171 -2.6246  0.6303  0.4753
  179SOPE  C21420425   0.591   1.360   8.313  0.0718 -0.2282 -0.1709
  179SOPE  H14R20426   0.492   1.310   8.320  0.5269 -1.1376 -0.0592
  179SOPE  H14S20427   0.591   1.471   8.315  2.2830 -0.1203 -1.9870
  179SOPE  C21520428   0.666   1.287   8.428  0.3397 -0.3147  0.7809
  179SOPE  H15R20429   0.772   1.317   8.420  0.2207 -0.2321 -0.6561
  179SOPE  H15S20430   0.645   1.178   8.416 -0.2805 -0.4834  2.8528
  179SOPE  C21620431   0.614   1.335   8.559 -0.4482 -0.0116 -0.1715
  179SOPE  H16R20432   0.506   1.311   8.555 -0.2235 -0.9246 -2.2166
  179SOPE  H16S20433   0.635   1.441   8.584 -2.1895 -0.6106  5.0814
  179SOPE  C21720434   0.686   1.263   8.672  0.0058 -0.6858  0.5773
  179SOPE  H17R20435   0.797   1.266   8.667 -0.0123  0.0655  0.5205
  179SOPE  H17S20436   0.655   1.157   8.672 -1.3017 -0.3348 -1.2068
  179SOPE  C21820437   0.640   1.328   8.806 -0.2812  0.5010  1.0311
  179SOPE  H18R20438   0.699   1.423   8.808  0.6999 -0.0409 -0.4682
  179SOPE  H18S20439   0.669   1.276   8.899 -0.0220 -0.2763  0.5210
  179SOPE  H18T20440   0.532   1.353   8.809 -0.2505  1.6865 -2.5502
  179SOPE   C3320441   0.453   1.258   6.909 -0.0505  0.6991 -0.2101
  179SOPE   H3X20442   0.351   1.297   6.932 -0.7066 -1.4634  0.7912
  179SOPE   H3Y20443   0.449   1.237   6.800 -2.8855 -1.2356  0.1617
  179SOPE   C3420444   0.560   1.360   6.951  1.2269 -0.3827  0.3363
  179SOPE   H4X20445   0.536   1.457   6.902 -2.0252 -0.8326  0.7996
  179SOPE   H4Y20446   0.657   1.326   6.910  0.6776  0.0066 -1.3869
  179SOPE   C3520447   0.575   1.372   7.096  0.0629 -0.4361 -0.1189
  179SOPE   H5X20448   0.625   1.282   7.137 -0.8495  0.0996  2.3188
  179SOPE   H5Y20449   0.474   1.382   7.139  0.2073 -2.7647  0.8990
  179SOPE   C3620450   0.666   1.494   7.127 -0.0953  0.1012 -0.5239
  179SOPE   H6X20451   0.623   1.581   7.073 -0.9787 -0.0618 -0.1116
  179SOPE   H6Y20452   0.773   1.490   7.098 -0.4993  0.2070 -2.1054
  179SOPE   C3720453   0.652   1.521   7.283  0.5127 -0.1079 -0.6778
  179SOPE   H7X20454   0.700   1.449   7.352  0.6537  0.8522  0.2553
  179SOPE   H7Y20455   0.542   1.511   7.297  0.3759  1.3038 -0.6050
  179SOPE   C3820456   0.706   1.662   7.310  0.5927  0.6244 -0.0045
  179SOPE   H8X20457   0.683   1.722   7.219  0.8318  1.8703  0.7402
  179SOPE   H8Y20458   0.813   1.673   7.335  0.8311 -2.2410  0.5960
  179SOPE   C3920459   0.628   1.731   7.422 -0.0827  0.3034 -0.1999
  179SOPE   H9X20460   0.524   1.752   7.392  0.2579 -0.9669 -2.5269
  179SOPE   H9Y20461   0.686   1.825   7.433  0.4374  0.2945 -2.3376
  179SOPE  C31020462   0.623   1.648   7.555 -0.1674 -0.3136 -0.1949
  179SOPE  H10X20463   0.731   1.632   7.581 -0.5251  0.0322  1.6595
  179SOPE  H10Y20464   0.570   1.552   7.538  0.3279 -0.7197  0.4829
  179SOPE  C31120465   0.562   1.719   7.676 -0.1734 -0.2849  0.1497
  179SOPE  H11X20466   0.561   1.649   7.762 -2.5263 -0.2987  0.1912
  179SOPE  H11Y20467   0.453   1.741   7.673 -0.3831 -1.2307  0.3536
  179SOPE  C31220468   0.641   1.843   7.719  0.3179  0.3719 -0.2939
  179SOPE  H12X20469   0.644   1.924   7.642 -2.7820 -0.7761 -1.7711
  179SOPE  H12Y20470   0.742   1.810   7.751 -0.4052 -1.5118  0.1521
  179SOPE  C31320471   0.584   1.902   7.851 -0.7373 -0.1050  0.7571
  179SOPE  H13X20472   0.475   1.917   7.839 -0.9547 -0.1035  2.4781
  179SOPE  H13Y20473   0.630   2.003   7.864 -1.1844  0.4750 -1.6965
  179SOPE  C31420474   0.614   1.806   7.970  0.4829 -0.5388 -0.0617
  179SOPE  H14X20475   0.721   1.778   7.960  0.3646 -0.5923 -1.4298
  179SOPE  H14Y20476   0.560   1.712   7.947 -0.4955  0.7905 -4.1177
  179SOPE  C31520477   0.596   1.873   8.102  0.3614  0.2981  0.1706
  179SOPE  H15X20478   0.494   1.902   8.134  0.1681 -1.1904  1.0101
  179SOPE  H15Y20479   0.665   1.960   8.109  1.1135 -0.2167 -0.6429
  179SOPE  C31620480   0.644   1.780   8.215 -0.0513  0.5332 -0.4603
  179SOPE  H16X20481   0.752   1.754   8.224 -0.1945 -0.5805 -1.6448
  179SOPE  H16Y20482   0.593   1.682   8.204 -1.9514  1.3702  0.5133
  179SOPE  C31720483   0.602   1.833   8.359 -0.3019 -0.1952 -0.0306
  179SOPE  H17X20484   0.501   1.879   8.352  1.0054  2.8014 -1.1350
  179SOPE  H17Y20485   0.667   1.916   8.393  0.1047  0.1386 -1.5581
  179SOPE  C31820486   0.600   1.718   8.453 -0.7221 -0.0474 -0.0712
  179SOPE  H18X20487   0.695   1.663   8.433 -0.3348  0.3958  0.5334
  179SOPE  H18Y20488   0.501   1.670   8.437 -0.6424  0.4535 -2.3893
  179SOPE  H18Z20489   0.595   1.750   8.559  1.0835  0.8021 -0.2117
  180SOPE     N20490   5.150   5.857   6.253  0.6627 -0.5465 -0.4148
  180SOPE   HN120491   5.128   5.954   6.283  0.9625 -0.3623 -0.7792
  180SOPE   HN220492   5.156   5.875   6.151 -2.3191  0.3607 -0.5299
  180SOPE   HN320493   5.068   5.797   6.275  0.7330 -0.3473  0.4324
  180SOPE   C1220494   5.276   5.789   6.307 -0.0370 -0.4067 -0.3505
  180SOPE  H12A20495   5.290   5.682   6.280  2.5602 -0.2618  0.1488
  180SOPE  H12B20496   5.269   5.800   6.417  1.6628  0.5953 -0.3055
  180SOPE   C1120497   5.401   5.866   6.261 -0.4528  0.3664 -0.4717
  180SOPE  H11A20498   5.405   5.884   6.151 -1.4077  0.7199 -0.4556
  180SOPE  H11B20499   5.486   5.804   6.296 -0.7630  0.8987  1.3247
  180SOPE     P20500   5.543   6.072   6.333  0.5180  0.0477  0.0307
  180SOPE   O1320501   5.501   6.214   6.324  0.1305  0.0793 -0.6872
  180SOPE   O1420502   5.642   6.023   6.232 -0.2576 -0.1854 -0.0294
  180SOPE   O1220503   5.418   5.984   6.331  0.4226  0.6813 -0.3624
  180SOPE   O1120504   5.601   6.065   6.480 -0.0289  0.4053  0.3691
  180SOPE    C120505   5.718   5.983   6.506  0.2071 -0.6439 -0.3500
  180SOPE    HA20506   5.784   6.031   6.581 -1.5725  1.4882 -0.0477
  180SOPE    HB20507   5.782   5.969   6.416  0.3361 -1.2192 -0.1710
  180SOPE    C220508   5.692   5.847   6.572  0.8071  0.2584  0.8021
  180SOPE    HS20509   5.621   5.795   6.505  1.4580  0.6905 -0.2662
  180SOPE   O2120510   5.648   5.872   6.707  0.1429  0.0485  0.2613
  180SOPE   C2120511   5.528   5.885   6.732  0.0051 -0.3962  0.5776
  180SOPE   O2220512   5.426   5.881   6.660 -0.0097  0.3107 -0.3330
  180SOPE   C2220513   5.514   5.920   6.885 -0.0201  1.2909  0.4398
  180SOPE   H2R20514   5.598   5.989   6.908 -0.1124  1.5362  0.0454
  180SOPE   H2S20515   5.525   5.818   6.929  1.1695  0.4664 -1.6273
  180SOPE    C320516   5.823   5.768   6.562 -0.0707  1.6214 -0.2265
  180SOPE    HX20517   5.907   5.825   6.608  0.3264  0.9307 -0.0803
  180SOPE    HY20518   5.849   5.755   6.455 -3.3223 -0.0640 -0.9626
  180SOPE   O3120519   5.816   5.635   6.624 -0.1623 -0.2868 -0.6112
  180SOPE   C3120520   5.760   5.542   6.553 -0.1091  0.2626 -0.4378
  180SOPE   O3220521   5.718   5.548   6.437  0.3113  0.2596  0.3406
  180SOPE   C3220522   5.747   5.416   6.640 -0.5626  1.2049  0.6070
  180SOPE   H2X20523   5.786   5.439   6.741 -0.2830 -0.6240  0.9535
  180SOPE   H2Y20524   5.810   5.341   6.588 -0.9492  1.3249 -0.0474
  180SOPE   C2320525   5.378   5.983   6.930  0.0768 -0.8338  0.1861
  180SOPE   H3R20526   5.294   5.949   6.866 -0.2289  0.0803  0.0926
  180SOPE   H3S20527   5.401   6.091   6.915  1.8195 -0.9005  1.8771
  180SOPE   C2420528   5.337   5.946   7.070  0.3819  0.1064  0.2984
  180SOPE   H4R20529   5.233   5.984   7.083  0.0565 -0.5959 -0.1714
  180SOPE   H4S20530   5.327   5.837   7.084 -0.1314  0.0593 -0.3870
  180SOPE   C2520531   5.435   6.008   7.173 -0.1565  0.2150  0.1990
  180SOPE   H5R20532   5.531   5.953   7.163 -0.1842  0.1250  0.4258
  180SOPE   H5S20533   5.467   6.113   7.154  0.1231 -0.2017 -1.7649
  180SOPE   C2620534   5.387   6.004   7.314 -0.0518 -0.4718  0.8672
  180SOPE   H6R20535   5.281   6.039   7.315  0.6326  2.0062  3.9443
  180SOPE   H6S20536   5.374   5.903   7.360 -1.5126 -0.4727  0.5128
  180SOPE   C2720537   5.467   6.104   7.402 -0.0124 -0.0959 -0.1123
  180SOPE   H7R20538   5.564   6.056   7.426 -0.1337  0.3621  1.4360
  180SOPE   H7S20539   5.491   6.197   7.346 -0.8681  0.9353  1.1553
  180SOPE   C2820540   5.409   6.131   7.539 -0.0682  0.0324  0.0356
  180SOPE   H8R20541   5.312   6.184   7.529 -0.5037 -0.4910  1.2674
  180SOPE   H8S20542   5.391   6.034   7.589  1.0771 -1.2872 -1.9608
  180SOPE   C2920543   5.497   6.218   7.619 -0.1523 -0.4031  0.6648
  180SOPE   H9120544   5.518   6.315   7.572 -0.4500 -0.6035  0.1147
  180SOPE  C21020545   5.558   6.188   7.733 -0.3706 -0.6717  0.7274
  180SOPE  H10120546   5.603   6.278   7.778 -0.9498  1.4741 -2.6483
  180SOPE  C21120547   5.538   6.061   7.811 -0.3746  0.2382 -0.7211
  180SOPE  H11R20548   5.637   6.011   7.814  0.7547  2.3908  0.7110
  180SOPE  H11S20549   5.468   5.988   7.764 -0.2939 -0.7858  0.7054
  180SOPE  C21220550   5.496   6.086   7.960 -0.2770 -0.1158 -0.0948
  180SOPE  H12R20551   5.446   6.000   8.008  1.4988 -0.9409  0.3802
  180SOPE  H12S20552   5.414   6.159   7.943  0.7139  1.0871  0.0828
  180SOPE  C21320553   5.607   6.127   8.055 -0.2243  0.3187  0.1533
  180SOPE  H13R20554   5.663   6.213   8.013 -1.1681 -0.1053 -2.0938
  180SOPE  H13S20555   5.678   6.043   8.039  0.1299  1.0236 -2.2990
  180SOPE  C21420556   5.552   6.142   8.199 -0.0761  0.5803  0.8029
  180SOPE  H14R20557   5.524   6.039   8.228 -2.1124  0.6747 -0.6217
  180SOPE  H14S20558   5.461   6.205   8.191 -1.4882 -1.0756  2.5950
  180SOPE  C21520559   5.650   6.201   8.299 -0.0875 -0.1060  0.0635
  180SOPE  H15R20560   5.670   6.300   8.253  2.1160 -0.6274 -0.1926
  180SOPE  H15S20561   5.744   6.143   8.302  1.4735  2.2256 -0.6850
  180SOPE  C21620562   5.582   6.236   8.436 -0.1885  0.0933  0.3199
  180SOPE  H16R20563   5.553   6.149   8.499  1.0292 -0.5549  0.0143
  180SOPE  H16S20564   5.484   6.285   8.416 -0.2289 -0.7023 -1.6731
  180SOPE  C21720565   5.669   6.323   8.527  0.4687  0.2569  1.1690
  180SOPE  H17R20566   5.697   6.401   8.454 -0.5920 -0.8388 -0.4727
  180SOPE  H17S20567   5.769   6.287   8.559  0.2319  0.8039  2.6094
  180SOPE  C21820568   5.596   6.395   8.640  0.4505  0.5109  0.1527
  180SOPE  H18R20569   5.520   6.460   8.591 -0.4171 -0.5226  0.0874
  180SOPE  H18S20570   5.671   6.456   8.695  1.3861 -1.0497  0.6631
  180SOPE  H18T20571   5.530   6.326   8.697  0.0007 -0.2516 -1.2434
  180SOPE   C3320572   5.598   5.361   6.638 -0.4660 -0.0804  0.2800
  180SOPE   H3X20573   5.609   5.274   6.707  0.7740  0.4575  0.7821
  180SOPE   H3Y20574   5.567   5.324   6.538 -0.8677  1.3571 -0.1488
  180SOPE   C3420575   5.496   5.468   6.673  0.3242 -0.3422  0.0777
  180SOPE   H4X20576   5.400   5.423   6.641  1.4503 -0.7718 -3.0330
  180SOPE   H4Y20577   5.519   5.557   6.611  1.1830 -0.3449  0.3760
  180SOPE   C3520578   5.490   5.504   6.825  0.2607  0.3101  0.4955
  180SOPE   H5X20579   5.428   5.594   6.845  1.0783  1.1676 -0.7056
  180SOPE   H5Y20580   5.591   5.540   6.851  0.1096 -0.3862  2.1938
  180SOPE   C3620581   5.468   5.387   6.919 -0.6941  0.3204 -0.3691
  180SOPE   H6X20582   5.522   5.297   6.883 -0.1290  0.7614 -0.6455
  180SOPE   H6Y20583   5.358   5.369   6.921 -0.9866  1.6249 -2.0834
  180SOPE   C3720584   5.496   5.424   7.069 -0.1008 -0.1201  0.1610
  180SOPE   H7X20585   5.607   5.433   7.077  0.1305 -2.1736 -0.1583
  180SOPE   H7Y20586   5.464   5.338   7.131 -2.3692 -2.1691 -3.5570
  180SOPE   C3820587   5.415   5.547   7.109  0.5433 -0.1196  0.1103
  180SOPE   H8X20588   5.309   5.519   7.090 -0.3705  2.2803  1.2633
  180SOPE   H8Y20589   5.439   5.639   7.052 -1.0048 -1.0112 -2.1233
  180SOPE   C3920590   5.415   5.584   7.262 -0.4818  0.7965  0.5727
  180SOPE   H9X20591   5.403   5.480   7.300 -3.0508  0.3610 -1.1653
  180SOPE   H9Y20592   5.333   5.654   7.290  0.0221  1.6818 -0.1346
  180SOPE  C31020593   5.545   5.628   7.317 -0.7493 -0.4575 -0.2053
  180SOPE  H10X20594   5.575   5.726   7.274 -1.3993 -0.2302 -0.1541
  180SOPE  H10Y20595   5.625   5.555   7.291  1.9512  2.0968  0.3727
  180SOPE  C31120596   5.531   5.641   7.475  0.3823  0.6222 -0.5870
  180SOPE  H11X20597   5.514   5.537   7.510  1.4042  0.2337 -1.1843
  180SOPE  H11Y20598   5.448   5.708   7.506 -0.0517  0.2532 -0.9200
  180SOPE  C31220599   5.657   5.698   7.537  1.1177  0.1620  0.8416
  180SOPE  H12X20600   5.681   5.801   7.503 -3.4747  1.1554  0.0655
  180SOPE  H12Y20601   5.739   5.637   7.492  1.5751  1.0745  0.3905
  180SOPE  C31320602   5.643   5.682   7.691  0.4857 -0.6622 -0.4947
  180SOPE  H13X20603   5.643   5.574   7.717 -1.5721 -0.2077  1.7871
  180SOPE  H13Y20604   5.552   5.729   7.733  0.9835  0.6864 -0.8623
  180SOPE  C31420605   5.759   5.739   7.775 -0.6503  0.5430 -0.5531
  180SOPE  H14X20606   5.757   5.850   7.766  1.2280  0.6927  0.4144
  180SOPE  H14Y20607   5.855   5.703   7.733 -1.5816 -2.6544 -0.1804
  180SOPE  C31520608   5.740   5.705   7.922  0.2188 -0.0725 -0.2059
  180SOPE  H15X20609   5.745   5.599   7.955 -0.5603 -0.1224 -0.2387
  180SOPE  H15Y20610   5.634   5.725   7.949  1.0201  2.7862  1.1538
  180SOPE  C31620611   5.842   5.768   8.017 -0.3807 -0.0363  0.2645
  180SOPE  H16X20612   5.809   5.869   8.050  0.1771 -0.2493  1.5467
  180SOPE  H16Y20613   5.932   5.775   7.951  0.4427 -1.8216  1.1393
  180SOPE  C31720614   5.881   5.676   8.127 -0.4063  0.4676  0.5482
  180SOPE  H17X20615   5.896   5.573   8.087 -1.9527  0.8341 -1.1229
  180SOPE  H17Y20616   5.790   5.676   8.190 -1.0527  1.7932 -0.3316
  180SOPE  C31820617   5.997   5.739   8.202 -0.3234  0.0009 -0.5333
  180SOPE  H18X20618   5.977   5.839   8.245  0.4339  0.5036 -1.3037
  180SOPE  H18Y20619   6.094   5.750   8.148  0.5074  0.2860  0.9444
  180SOPE  H18Z20620   6.012   5.673   8.290  1.5403  1.2527  0.1527
  181SOPE     N20621   3.967   5.226   6.198 -0.0457  0.4892 -1.0007
  181SOPE   HN120622   3.918   5.302   6.146 -3.8789 -0.5345  0.7572
  181SOPE   HN220623   4.057   5.196   6.155  0.0217 -2.1247  0.7021
  181SOPE   HN320624   3.910   5.139   6.206  0.1303  0.2894 -1.8073
  181SOPE   C1220625   3.994   5.272   6.338 -0.0547  0.2757  0.2152
  181SOPE  H12A20626   4.049   5.189   6.387  0.3145 -0.9269 -2.0907
  181SOPE  H12B20627   3.895   5.286   6.387  0.7282  1.8031  1.4608
  181SOPE   C1120628   4.069   5.407   6.326 -1.0947  0.0025 -0.0308
  181SOPE  H11A20629   4.159   5.402   6.262 -1.2285 -2.6336 -0.1228
  181SOPE  H11B20630   4.098   5.446   6.426  0.5069  0.6089 -0.7031
  181SOPE     P20631   3.961   5.647   6.287 -0.1257  0.3018  0.1022
  181SOPE   O1320632   3.848   5.699   6.210  0.2715  0.4308 -0.0863
  181SOPE   O1420633   4.092   5.693   6.247 -0.5486 -0.2821 -0.0494
  181SOPE   O1220634   3.971   5.495   6.267 -0.1749  0.3434  0.0449
  181SOPE   O1120635   3.944   5.672   6.443  0.0496  0.1332 -0.2515
  181SOPE    C120636   3.841   5.593   6.507 -0.3151  1.4802 -0.1333
  181SOPE    HA20637   3.876   5.564   6.609  0.1629 -1.9785 -1.1311
  181SOPE    HB20638   3.812   5.497   6.460  0.6841  0.6329  0.9191
  181SOPE    C220639   3.714   5.674   6.524 -0.0163  0.8092  0.3456
  181SOPE    HS20640   3.685   5.717   6.425 -1.3568 -0.5604  0.1214
  181SOPE   O2120641   3.736   5.769   6.633  0.3723  0.1473  0.1361
  181SOPE   C2120642   3.777   5.888   6.615 -0.2313  0.1240  1.0006
  181SOPE   O2220643   3.765   5.949   6.507 -0.2392  0.3004  0.1581
  181SOPE   C2220644   3.817   5.951   6.747  0.4919 -0.3876 -0.4052
  181SOPE   H2R20645   3.803   6.061   6.741  1.8785 -0.1009  0.7939
  181SOPE   H2S20646   3.928   5.948   6.752  0.5425 -1.6270 -1.6567
  181SOPE    C320647   3.601   5.582   6.561 -0.2549 -0.2236 -0.1391
  181SOPE    HX20648   3.585   5.510   6.478 -1.0758  0.5287 -0.6451
  181SOPE    HY20649   3.511   5.646   6.570  0.3959  1.0329 -2.0538
  181SOPE   O3120650   3.621   5.507   6.684  0.3517 -0.1331 -0.2183
  181SOPE   C3120651   3.574   5.575   6.793 -0.8185 -0.8439  0.5509
  181SOPE   O3220652   3.481   5.655   6.786 -0.0288 -0.4554 -0.0868
  181SOPE   C3220653   3.635   5.525   6.916 -0.4461 -0.3693  0.6598
  181SOPE   H2X20654   3.744   5.547   6.920 -0.7329  1.0503  1.6274
  181SOPE   H2Y20655   3.618   5.416   6.919 -1.9333 -0.1518  0.8662
  181SOPE   C2320656   3.744   5.878   6.861  0.0225 -0.5702 -1.2057
  181SOPE   H3R20657   3.792   5.778   6.870  0.4379 -0.3007 -0.2410
  181SOPE   H3S20658   3.635   5.873   6.839 -0.2394 -0.5504 -0.0103
  181SOPE   C2420659   3.768   5.958   6.991  0.3177 -0.8500 -0.4045
  181SOPE   H4R20660   3.777   6.066   6.966 -3.8077 -0.1281  0.3857
  181SOPE   H4S20661   3.681   5.953   7.060  0.4228  0.0644 -0.1905
  181SOPE   C2520662   3.879   5.900   7.073  0.7429 -0.1895  0.1471
  181SOPE   H5R20663   3.873   5.790   7.075 -2.0988 -0.1157  0.4949
  181SOPE   H5S20664   3.969   5.936   7.018 -0.8636  0.9228 -1.9207
  181SOPE   C2620665   3.880   5.955   7.221  0.0286 -0.1701 -0.1104
  181SOPE   H6R20666   3.787   5.928   7.276  0.2088  2.2205  1.5467
  181SOPE   H6S20667   3.968   5.902   7.262  0.6245 -0.3494 -1.5708
  181SOPE   C2720668   3.889   6.110   7.223  0.0158 -0.5177  0.1880
  181SOPE   H7R20669   3.985   6.127   7.170  0.1357 -2.3443 -0.2414
  181SOPE   H7S20670   3.809   6.155   7.160  1.0765 -0.9941 -1.5598
  181SOPE   C2820671   3.891   6.173   7.361  0.3872 -0.3025  0.8053
  181SOPE   H8R20672   3.890   6.284   7.353  4.1874 -0.0372  2.2526
  181SOPE   H8S20673   3.791   6.155   7.407  0.8074 -0.0726  1.8342
  181SOPE   C2920674   4.001   6.132   7.453  0.3517 -0.1098  0.9732
  181SOPE   H9120675   4.087   6.200   7.445  0.0575  0.0636 -1.7967
  181SOPE  C21020676   4.007   6.036   7.547  0.5581  0.6927 -0.2440
  181SOPE  H10120677   4.100   6.015   7.602 -0.2112 -3.7015 -0.2722
  181SOPE  C21120678   3.895   5.930   7.576  0.1960  0.0846  0.1556
  181SOPE  H11R20679   3.937   5.829   7.590 -0.9840 -0.0372  4.0009
  181SOPE  H11S20680   3.819   5.925   7.495  0.7735 -0.7955 -0.3312
  181SOPE  C21220681   3.806   5.962   7.702 -0.1807 -0.3578  0.5065
  181SOPE  H12R20682   3.717   5.897   7.708 -0.1678 -0.5503 -0.9918
  181SOPE  H12S20683   3.772   6.067   7.691  0.0467 -0.5022 -2.5502
  181SOPE  C21320684   3.892   5.946   7.829 -0.4921 -0.0883  0.2019
  181SOPE  H13R20685   3.975   6.019   7.825  0.1330 -0.7795  0.3137
  181SOPE  H13S20686   3.937   5.844   7.823  0.3935  0.2488  0.8595
  181SOPE  C21420687   3.812   5.969   7.958 -0.4192  0.8482 -0.3493
  181SOPE  H14R20688   3.727   5.898   7.948  1.0417 -0.8758 -0.9715
  181SOPE  H14S20689   3.765   6.070   7.965 -2.3116 -0.1110  3.0754
  181SOPE  C21520690   3.904   5.954   8.080 -1.0546  0.0560 -0.0777
  181SOPE  H15R20691   3.981   6.033   8.069  2.2694 -2.8944 -0.0927
  181SOPE  H15S20692   3.967   5.862   8.082  1.5873  1.7570  1.1490
  181SOPE  C21620693   3.832   5.987   8.217  0.1377 -0.3296 -0.0295
  181SOPE  H16R20694   3.771   6.078   8.201  0.1728 -0.2980  0.0154
  181SOPE  H16S20695   3.908   6.013   8.294 -0.8008  0.4926  0.6408
  181SOPE  C21720696   3.741   5.868   8.260  0.1527 -0.1691 -0.2043
  181SOPE  H17R20697   3.807   5.783   8.288  1.3825  0.3717 -1.3815
  181SOPE  H17S20698   3.693   5.841   8.163 -0.8040  1.3734 -0.1914
  181SOPE  C21820699   3.629   5.894   8.358 -0.1718 -0.3396 -0.7304
  181SOPE  H18R20700   3.543   5.954   8.321 -0.7534  0.3245  1.5297
  181SOPE  H18S20701   3.663   5.951   8.447  0.1263  0.0766 -1.1073
  181SOPE  H18T20702   3.585   5.799   8.396  0.6085 -0.6024 -0.4730
  181SOPE   C3320703   3.573   5.595   7.039 -0.2372 -0.2840  0.3999
  181SOPE   H3X20704   3.466   5.572   7.054 -0.9523  2.3662 -0.0613
  181SOPE   H3Y20705   3.580   5.706   7.045  0.4171 -0.3328  0.7335
  181SOPE   C3420706   3.639   5.554   7.173 -0.6680  0.2961 -0.1573
  181SOPE   H4X20707   3.747   5.579   7.167 -1.0903  2.4939  0.3417
  181SOPE   H4Y20708   3.638   5.443   7.174 -1.1613  0.2820 -1.2201
  181SOPE   C3520709   3.590   5.627   7.297  0.8752 -0.1815 -0.0302
  181SOPE   H5X20710   3.481   5.645   7.292  0.9943  0.4264 -0.7123
  181SOPE   H5Y20711   3.626   5.732   7.312 -1.8992  0.5760  2.0796
  181SOPE   C3620712   3.619   5.549   7.425  0.5302 -0.5822  0.0500
  181SOPE   H6X20713   3.729   5.534   7.430  0.8979  1.1540 -1.8442
  181SOPE   H6Y20714   3.580   5.446   7.409 -1.1087  0.4738 -4.1517
  181SOPE   C3720715   3.553   5.621   7.542  0.2425 -0.1827 -0.6067
  181SOPE   H7X20716   3.449   5.650   7.519 -0.2276  0.2641  1.7994
  181SOPE   H7Y20717   3.614   5.712   7.564  1.6004 -0.9105 -1.2183
  181SOPE   C3820718   3.542   5.522   7.654 -0.2529  0.1680 -0.1269
  181SOPE   H8X20719   3.648   5.495   7.669 -0.6175 -0.2469  1.9234
  181SOPE   H8Y20720   3.484   5.434   7.619  1.3363 -0.8256 -0.3274
  181SOPE   C3920721   3.493   5.574   7.794  0.1507 -0.2941  0.1701
  181SOPE   H9X20722   3.384   5.556   7.795  0.0514 -0.0204 -1.6635
  181SOPE   H9Y20723   3.518   5.682   7.798 -0.4432 -0.1518  0.1273
  181SOPE  C31020724   3.566   5.501   7.907  0.4228 -0.6155 -0.1370
  181SOPE  H10X20725   3.658   5.443   7.886  0.3557 -1.0778  0.7883
  181SOPE  H10Y20726   3.489   5.425   7.932 -0.6967 -0.0293 -1.6742
  181SOPE  C31120727   3.599   5.594   8.021 -0.4001 -0.5941 -0.1887
  181SOPE  H11X20728   3.511   5.654   8.051  0.4908  0.6037  0.0835
  181SOPE  H11Y20729   3.668   5.675   7.990  0.1680 -1.4768 -1.3239
  181SOPE  C31220730   3.647   5.532   8.152 -0.4746 -0.0832 -0.8308
  181SOPE  H12X20731   3.576   5.452   8.182  1.0971 -0.9951  0.6807
  181SOPE  H12Y20732   3.642   5.607   8.235  2.2108 -1.7034  0.9509
  181SOPE  C31320733   3.795   5.480   8.142  0.0918  0.2106  0.6471
  181SOPE  H13X20734   3.859   5.570   8.128  0.0640 -0.0698 -1.5868
  181SOPE  H13Y20735   3.824   5.420   8.053 -1.4247 -0.1824  0.3822
  181SOPE  C31420736   3.839   5.402   8.261  0.1734  0.4701 -0.2453
  181SOPE  H14X20737   3.924   5.333   8.241 -2.0819 -3.0169  1.0802
  181SOPE  H14Y20738   3.757   5.330   8.285  1.8709 -1.5036 -0.0519
  181SOPE  C31520739   3.860   5.488   8.381  0.9476  0.1954 -0.8705
  181SOPE  H15X20740   3.775   5.556   8.403  0.1355 -1.1375  0.3059
  181SOPE  H15Y20741   3.950   5.552   8.377  1.5790 -0.5506  0.5056
  181SOPE  C31620742   3.865   5.406   8.511  0.3528  0.2829  0.5892
  181SOPE  H16X20743   3.947   5.333   8.496 -1.3716 -1.3792 -1.4846
  181SOPE  H16Y20744   3.771   5.348   8.524  1.0365 -0.6834  1.3917
  181SOPE  C31720745   3.892   5.495   8.633 -0.3914  0.3746  0.0497
  181SOPE  H17X20746   3.803   5.548   8.674 -1.3351 -2.1050  1.3965
  181SOPE  H17Y20747   3.970   5.569   8.603  2.7824 -2.5162  0.5367
  181SOPE  C31820748   3.961   5.410   8.744 -0.7612  0.3891 -0.6969
  181SOPE  H18X20749   3.884   5.342   8.786 -0.6548  0.1014 -0.9645
  181SOPE  H18Y20750   4.004   5.476   8.823  0.5793 -2.1188  0.8304
  181SOPE  H18Z20751   4.044   5.344   8.710  0.3879  0.9753  0.8350
  182SOPE     N20752   4.825   5.173   6.294 -0.0381  0.7848 -0.5712
  182SOPE   HN120753   4.840   5.092   6.231  2.4002 -0.5114  1.4612
  182SOPE   HN220754   4.921   5.211   6.305  0.6463 -0.7356 -0.9293
  182SOPE   HN320755   4.797   5.136   6.388  0.9961 -3.0806 -1.5846
  182SOPE   C1220756   4.730   5.279   6.240  0.2571 -0.4363  0.2939
  182SOPE  H12A20757   4.629   5.234   6.243  0.4061 -0.9286 -1.3013
  182SOPE  H12B20758   4.755   5.281   6.132  0.8983 -0.3348  0.4392
  182SOPE   C1120759   4.749   5.416   6.308  0.5786  0.0779  0.0788
  182SOPE  H11A20760   4.699   5.428   6.406  0.4933 -1.3942  0.2349
  182SOPE  H11B20761   4.697   5.489   6.242 -2.3581 -0.5791  1.5114
  182SOPE     P20762   4.980   5.506   6.212  0.2750  0.2286 -0.0513
  182SOPE   O1320763   4.916   5.490   6.079 -0.2635  0.2093  0.2067
  182SOPE   O1420764   5.116   5.449   6.230  0.1463  0.2724  0.3146
  182SOPE   O1220765   4.891   5.440   6.316 -0.3270  0.4917 -0.8038
  182SOPE   O1120766   4.981   5.657   6.263  0.0067  0.2258 -0.0563
  182SOPE    C120767   4.874   5.718   6.335 -0.4082  0.7792  0.4171
  182SOPE    HA20768   4.779   5.661   6.330  0.5777 -0.8294 -1.2177
  182SOPE    HB20769   4.851   5.823   6.306  0.2262  0.2535 -2.3484
  182SOPE    C220770   4.900   5.727   6.493 -0.3425 -0.1795 -0.4063
  182SOPE    HS20771   4.985   5.797   6.503 -1.0631  0.7383 -0.5342
  182SOPE   O2120772   4.934   5.600   6.543  0.4746  0.1157  0.1318
  182SOPE   C2120773   5.057   5.562   6.545 -0.1758  0.3805  0.7904
  182SOPE   O2220774   5.160   5.622   6.515 -0.8381 -0.1591 -0.1520
  182SOPE   C2220775   5.057   5.423   6.611 -0.8939  0.2735 -0.2423
  182SOPE   H2R20776   5.150   5.374   6.574 -0.6650  0.5286 -0.0076
  182SOPE   H2S20777   4.965   5.370   6.578 -0.1302 -0.5764 -1.0756
  182SOPE    C320778   4.773   5.786   6.561  0.7867  0.1358 -0.2575
  182SOPE    HX20779   4.695   5.707   6.555  0.2671  0.6956 -1.2329
  182SOPE    HY20780   4.742   5.875   6.502 -1.9344 -1.0026 -0.7225
  182SOPE   O3120781   4.799   5.798   6.703  0.7267  0.0560 -0.4199
  182SOPE   C3120782   4.778   5.921   6.759  0.3732  0.0559 -0.2184
  182SOPE   O3220783   4.724   6.017   6.713  0.0717  0.0265 -0.0821
  182SOPE   C3220784   4.855   5.932   6.889  0.6510 -0.1349  0.1634
  182SOPE   H2X20785   4.951   5.882   6.868  1.1536  0.6453  0.5440
  182SOPE   H2Y20786   4.793   5.877   6.963 -1.5641 -1.8783 -2.7533
  182SOPE   C2320787   5.065   5.430   6.767  0.6522  0.4847 -0.5427
  182SOPE   H3R20788   5.172   5.437   6.796  0.5537 -1.9843  0.6922
  182SOPE   H3S20789   5.036   5.328   6.801 -0.8194  0.4802 -1.7095
  182SOPE   C2420790   4.995   5.545   6.839 -0.2484  0.0877  0.8008
  182SOPE   H4R20791   5.029   5.640   6.794 -2.7159 -0.0268 -1.5805
  182SOPE   H4S20792   4.886   5.547   6.815 -0.3742 -1.3190  1.1817
  182SOPE   C2520793   5.028   5.531   6.991  0.0692 -0.3514  1.0559
  182SOPE   H5R20794   4.988   5.435   7.029 -1.2787  0.3990  1.6167
  182SOPE   H5S20795   5.137   5.535   7.013  0.4567  3.7818 -0.7163
  182SOPE   C2620796   4.965   5.632   7.081  0.2068  0.3978  0.1616
  182SOPE   H6R20797   5.006   5.731   7.053 -0.1589  0.8518  1.2138
  182SOPE   H6S20798   4.855   5.634   7.068 -0.0722  0.9531  2.3218
  182SOPE   C2720799   4.997   5.614   7.237 -0.4139 -0.4922  0.5499
  182SOPE   H7R20800   4.959   5.517   7.276  3.0856 -2.0544  0.4400
  182SOPE   H7S20801   5.108   5.604   7.234 -0.5023 -1.3534 -0.0647
  182SOPE   C2820802   4.963   5.737   7.322  0.3033  0.1938 -0.1622
  182SOPE   H8R20803   5.012   5.824   7.272  2.3031  0.0151  1.3634
  182SOPE   H8S20804   4.856   5.764   7.310  0.4826  1.4188  0.8213
  182SOPE   C2920805   5.006   5.723   7.466  0.1867  0.0812  0.5144
  182SOPE   H9120806   5.111   5.745   7.488  0.1701  1.9479 -1.0086
  182SOPE  C21020807   4.935   5.694   7.573 -0.0005 -0.4195  0.1840
  182SOPE  H10120808   4.986   5.689   7.671 -0.8867  1.4415  0.7941
  182SOPE  C21120809   4.786   5.660   7.583  0.7186  0.2006  0.2882
  182SOPE  H11R20810   4.767   5.552   7.599 -2.2274  0.5129 -0.4980
  182SOPE  H11S20811   4.744   5.686   7.483  1.8023 -0.4776 -0.3607
  182SOPE  C21220812   4.704   5.724   7.695 -0.6820 -0.3668  0.0937
  182SOPE  H12R20813   4.596   5.730   7.671 -1.1993  0.6674  2.4247
  182SOPE  H12S20814   4.728   5.832   7.711  0.5502 -0.3590 -1.5021
  182SOPE  C21320815   4.708   5.648   7.829  0.6057 -0.4343 -0.3186
  182SOPE  H13R20816   4.650   5.554   7.816 -2.5045  1.3374 -0.3119
  182SOPE  H13S20817   4.646   5.691   7.910  0.7466 -2.1004  0.7196
  182SOPE  C21420818   4.847   5.620   7.885  0.9654 -0.9870  0.0202
  182SOPE  H14R20819   4.927   5.696   7.870  0.4867 -0.6351 -0.7742
  182SOPE  H14S20820   4.890   5.532   7.833  1.0962 -0.2829 -1.0948
  182SOPE  C21520821   4.836   5.603   8.040  0.7553 -0.6890 -0.3034
  182SOPE  H15R20822   4.921   5.547   8.083  0.3513 -1.3879 -0.3955
  182SOPE  H15S20823   4.747   5.540   8.063 -0.4765  0.9517 -0.3819
  182SOPE  C21620824   4.812   5.739   8.118 -0.4296  0.0821 -0.5623
  182SOPE  H16R20825   4.707   5.772   8.107 -0.2684  0.9648  0.4278
  182SOPE  H16S20826   4.880   5.823   8.090  0.1621  0.0981  0.8462
  182SOPE  C21720827   4.821   5.710   8.269 -0.0387  0.5493 -0.7866
  182SOPE  H17R20828   4.806   5.809   8.318  1.4760  0.5272 -0.2146
  182SOPE  H17S20829   4.921   5.670   8.295 -0.4170 -1.9870 -2.8595
  182SOPE  C21820830   4.726   5.602   8.338 -0.2578 -0.7571 -0.6208
  182SOPE  H18R20831   4.620   5.635   8.329  0.3636  1.6634  0.1968
  182SOPE  H18S20832   4.768   5.584   8.439 -0.2294 -0.2521 -0.5372
  182SOPE  H18T20833   4.732   5.508   8.280 -1.4772 -1.7625  0.8203
  182SOPE   C3320834   4.879   6.084   6.920 -0.0143 -0.4736  0.6065
  182SOPE   H3X20835   4.784   6.138   6.939  0.8114  0.3919  2.6128
  182SOPE   H3Y20836   4.937   6.128   6.837  1.3784  0.3448  1.9552
  182SOPE   C3420837   4.960   6.104   7.051  0.1019 -0.1307 -0.6952
  182SOPE   H4X20838   5.012   6.203   7.053 -1.3577  0.7665 -2.7564
  182SOPE   H4Y20839   5.035   6.023   7.046 -1.6335 -1.7937 -0.6633
  182SOPE   C3520840   4.880   6.081   7.178  0.1283  0.0895  0.4149
  182SOPE   H5X20841   4.854   5.973   7.179 -0.6511  0.2193 -1.4771
  182SOPE   H5Y20842   4.784   6.134   7.192 -0.3955 -0.1425 -1.7946
  182SOPE   C3620843   4.967   6.109   7.294 -0.0503 -0.3180  0.8204
  182SOPE   H6X20844   5.015   6.208   7.278 -1.0825 -0.2949 -2.7692
  182SOPE   H6Y20845   5.050   6.035   7.286 -0.8397 -1.1278 -0.2442
  182SOPE   C3720846   4.900   6.083   7.428 -0.4827  0.0446 -0.2084
  182SOPE   H7X20847   4.861   5.982   7.452  0.2867  0.3597  2.7330
  182SOPE   H7Y20848   4.822   6.161   7.439  0.5549  0.9287  1.2426
  182SOPE   C3820849   5.009   6.122   7.536 -0.9490  0.2448  0.1087
  182SOPE   H8X20850   5.011   6.233   7.542 -3.0453  0.2441  2.5840
  182SOPE   H8Y20851   5.103   6.068   7.514 -1.5186 -0.0888 -1.6280
  182SOPE   C3920852   4.960   6.078   7.683  0.1462  0.6220 -0.2790
  182SOPE   H9X20853   4.907   5.980   7.681  1.1920  0.0408 -0.3191
  182SOPE   H9Y20854   4.888   6.158   7.711  0.1429 -0.1144  2.0543
  182SOPE  C31020855   5.068   6.077   7.784 -0.0723  0.2892 -0.0041
  182SOPE  H10X20856   5.128   6.170   7.778  1.3379 -0.1515  4.0285
  182SOPE  H10Y20857   5.133   5.989   7.764 -2.0410 -1.5666  1.1788
  182SOPE  C31120858   5.017   6.084   7.930 -0.2904  0.9834 -0.4467
  182SOPE  H11X20859   4.950   5.997   7.944 -1.4048  1.7229 -1.0261
  182SOPE  H11Y20860   4.943   6.167   7.922  0.6212  2.1415  2.0280
  182SOPE  C31220861   5.119   6.126   8.036 -0.1089  0.5912 -0.0809
  182SOPE  H12X20862   5.159   6.225   8.004 -0.8235  0.5897 -1.0059
  182SOPE  H12Y20863   5.199   6.049   8.029  0.0189  0.5238  1.6589
  182SOPE  C31320864   5.058   6.141   8.173 -0.1647 -0.0460 -1.0480
  182SOPE  H13X20865   5.139   6.172   8.241  0.2644  1.5893 -2.2193
  182SOPE  H13Y20866   5.016   6.050   8.219 -1.6411  1.1999  0.1986
  182SOPE  C31420867   4.945   6.250   8.175 -0.1199  0.8118 -0.2796
  182SOPE  H14X20868   4.871   6.221   8.098  3.0439 -2.4655 -2.3716
  182SOPE  H14Y20869   4.997   6.346   8.152  0.6437  0.8610  1.4624
  182SOPE  C31520870   4.868   6.269   8.308 -0.8105  0.0371 -0.4106
  182SOPE  H15X20871   4.935   6.297   8.392 -0.9030  1.3228 -0.7434
  182SOPE  H15Y20872   4.843   6.166   8.340  0.9738 -0.1454  0.5556
  182SOPE  C31620873   4.737   6.355   8.292  0.8050  0.5203 -0.2447
  182SOPE  H16X20874   4.650   6.309   8.342  0.2150  0.8149 -0.9822
  182SOPE  H16Y20875   4.716   6.345   8.183 -0.3894 -0.0191  0.0279
  182SOPE  C31720876   4.751   6.496   8.336 -0.6613 -0.2137 -0.2752
  182SOPE  H17X20877   4.690   6.568   8.278 -1.2599  0.2218  0.8513
  182SOPE  H17Y20878   4.857   6.523   8.314 -0.5792 -1.7085 -1.8484
  182SOPE  C31820879   4.713   6.520   8.482 -0.2183 -0.6057 -0.4437
  182SOPE  H18X20880   4.752   6.434   8.541 -1.0513 -0.7806 -0.1391
  182SOPE  H18Y20881   4.602   6.528   8.483 -0.2056 -0.4000  0.5761
  182SOPE  H18Z20882   4.744   6.620   8.521  2.5076 -1.5440  0.0474
  183SOPE     N20883   2.850   4.788   6.437  0.4460  0.0694 -0.7130
  183SOPE   HN120884   2.786   4.863   6.468  2.1721  2.3038 -2.2685
  183SOPE   HN220885   2.946   4.823   6.418  1.8519 -1.5783  2.5069
  183SOPE   HN320886   2.799   4.749   6.355 -1.0732 -2.4710  1.2862
  183SOPE   C1220887   2.847   4.662   6.524  0.3564 -0.2406 -0.2078
  183SOPE  H12A20888   2.887   4.697   6.622 -1.9394 -0.7767  0.9908
  183SOPE  H12B20889   2.916   4.586   6.481  0.7014 -0.9275  1.4869
  183SOPE   C1120890   2.699   4.607   6.522 -0.3455 -0.4050 -0.3704
  183SOPE  H11A20891   2.632   4.678   6.575 -0.8683 -0.2014 -1.2939
  183SOPE  H11B20892   2.685   4.505   6.565  0.1691 -0.0865  0.5861
  183SOPE     P20893   2.580   4.496   6.321 -0.4224  0.6598 -0.1789
  183SOPE   O1320894   2.637   4.365   6.368  0.2109  0.2523 -0.6208
  183SOPE   O1420895   2.574   4.527   6.174  0.4351  0.1842  0.1512
  183SOPE   O1220896   2.672   4.607   6.387  0.3828  0.1552  0.6008
  183SOPE   O1120897   2.438   4.518   6.382  0.4797 -0.3533 -0.2259
  183SOPE    C120898   2.337   4.421   6.371  0.4360  0.0577  0.0134
  183SOPE    HA20899   2.381   4.320   6.380  2.1092  0.8655  1.4812
  183SOPE    HB20900   2.268   4.430   6.284 -0.1878 -1.5990  0.3004
  183SOPE    C220901   2.227   4.436   6.490 -0.9223  1.1219 -0.2339
  183SOPE    HS20902   2.183   4.538   6.492 -2.3231  0.5409  1.9343
  183SOPE   O2120903   2.282   4.393   6.614 -0.5246  0.1638 -0.7819
  183SOPE   C2120904   2.349   4.497   6.672  0.2030  0.2541 -0.2488
  183SOPE   O2220905   2.349   4.614   6.633  0.0234 -0.3975 -0.1555
  183SOPE   C2220906   2.420   4.449   6.800  0.8482 -0.5845  0.7681
  183SOPE   H2R20907   2.477   4.356   6.779 -0.5245 -1.2617 -0.1168
  183SOPE   H2S20908   2.349   4.420   6.881  0.0360  0.8059  0.5908
  183SOPE    C320909   2.099   4.341   6.456  0.1271  0.1297  0.5392
  183SOPE    HX20910   2.135   4.237   6.438 -0.5698  0.1559 -1.1292
  183SOPE    HY20911   2.061   4.368   6.356 -1.5345 -0.9559  0.8405
  183SOPE   O3120912   1.989   4.362   6.540  0.8346  0.5295 -0.3470
  183SOPE   C3120913   1.989   4.284   6.639  0.4309  0.0562 -0.1284
  183SOPE   O3220914   2.074   4.204   6.671 -0.0581 -0.5158 -0.3216
  183SOPE   C3220915   1.858   4.301   6.720 -0.2689  0.3450 -0.2606
  183SOPE   H2X20916   1.859   4.224   6.800 -0.9681  1.0173  0.4092
  183SOPE   H2Y20917   1.763   4.285   6.665 -0.7570  0.6443  0.4839
  183SOPE   C2320918   2.500   4.565   6.867 -0.2912  0.4004 -0.2673
  183SOPE   H3R20919   2.439   4.655   6.888 -0.4252  0.2248  0.1048
  183SOPE   H3S20920   2.577   4.598   6.794  0.1826 -0.3494 -0.1097
  183SOPE   C2420921   2.572   4.528   7.003 -0.8197 -0.4376 -0.4386
  183SOPE   H4R20922   2.639   4.444   6.973 -0.0979 -0.2339  0.5252
  183SOPE   H4S20923   2.632   4.618   7.030 -2.5395  0.6283 -0.0025
  183SOPE   C2520924   2.487   4.496   7.119 -0.0141  0.7350 -0.6259
  183SOPE   H5R20925   2.413   4.579   7.123  0.3458  1.0178  1.3215
  183SOPE   H5S20926   2.421   4.407   7.107  0.2296  0.4820 -0.1063
  183SOPE   C2620927   2.568   4.501   7.244  0.7706  0.3323  0.1844
  183SOPE   H6R20928   2.641   4.420   7.263  1.2720  0.6955 -0.1351
  183SOPE   H6S20929   2.625   4.596   7.255 -1.5911  1.7119  1.3195
  183SOPE   C2720930   2.471   4.518   7.365 -0.2948  0.1563 -0.4482
  183SOPE   H7R20931   2.402   4.600   7.337 -1.0685 -0.6449 -0.9246
  183SOPE   H7S20932   2.407   4.428   7.378 -0.4357  0.2438 -0.5370
  183SOPE   C2820933   2.559   4.548   7.493 -0.0841  0.6162 -0.4859
  183SOPE   H8R20934   2.629   4.466   7.519 -0.8501  0.5000  1.3671
  183SOPE   H8S20935   2.619   4.640   7.473 -1.4125  2.2490  2.4074
  183SOPE   C2920936   2.469   4.576   7.609 -0.2604 -0.4170  0.1417
  183SOPE   H9120937   2.395   4.656   7.599 -2.4678 -2.2530  0.9187
  183SOPE  C21020938   2.485   4.517   7.727 -0.4511  0.3485 -0.3245
  183SOPE  H10120939   2.418   4.547   7.809  0.3837 -2.4568  1.5511
  183SOPE  C21120940   2.575   4.410   7.786  1.1270  0.1357  0.5417
  183SOPE  H11R20941   2.628   4.357   7.705 -1.0604  1.0988 -1.6488
  183SOPE  H11S20942   2.512   4.334   7.836 -2.6316  0.9720 -2.4803
  183SOPE  C21220943   2.671   4.461   7.894 -0.1191  0.1144 -0.7933
  183SOPE  H12R20944   2.743   4.527   7.840 -1.2242  1.9240 -0.1352
  183SOPE  H12S20945   2.728   4.378   7.940  1.1754  1.1366 -0.4910
  183SOPE  C21320946   2.607   4.546   8.004  0.8361  0.9206  0.4177
  183SOPE  H13R20947   2.524   4.487   8.048  0.7606 -0.6951 -1.7436
  183SOPE  H13S20948   2.560   4.641   7.971  1.5403  1.3176  0.5355
  183SOPE  C21420949   2.709   4.595   8.108 -0.1429 -0.4544  0.4183
  183SOPE  H14R20950   2.791   4.648   8.054 -0.9126 -0.2730 -0.6147
  183SOPE  H14S20951   2.761   4.505   8.150 -1.5924 -1.4725  0.0975
  183SOPE  C21520952   2.651   4.678   8.220 -0.0430  0.1833  0.2517
  183SOPE  H15R20953   2.591   4.604   8.278  0.4459  0.5777  1.2915
  183SOPE  H15S20954   2.581   4.747   8.168 -0.9926 -1.2631 -0.4737
  183SOPE  C21620955   2.753   4.764   8.299 -0.4256 -0.4074 -0.3461
  183SOPE  H16R20956   2.832   4.809   8.234  0.6524  2.9332  2.9446
  183SOPE  H16S20957   2.811   4.703   8.371  2.4151  1.2682 -1.0504
  183SOPE  C21720958   2.685   4.880   8.378  0.1130  0.5503 -0.3937
  183SOPE  H17R20959   2.613   4.838   8.452 -1.3754  3.0851 -0.2842
  183SOPE  H17S20960   2.620   4.933   8.305 -0.2002  0.5722 -0.1021
  183SOPE  C21820961   2.794   4.961   8.454  0.1859  0.1490  0.3511
  183SOPE  H18R20962   2.848   5.031   8.387 -0.5135  1.1287  0.7827
  183SOPE  H18S20963   2.875   4.900   8.501  1.3856  3.1024  2.4230
  183SOPE  H18T20964   2.741   5.013   8.537  3.1174  1.6361  1.4499
  183SOPE   C3320965   1.844   4.424   6.813  0.3661  0.0309  0.7359
  183SOPE   H3X20966   1.749   4.397   6.864 -1.5456 -1.1315 -3.0478
  183SOPE   H3Y20967   1.836   4.511   6.744 -0.9853 -0.6819 -0.0570
  183SOPE   C3420968   1.965   4.433   6.905 -0.0024 -0.3198  0.1687
  183SOPE   H4X20969   1.993   4.539   6.924 -0.7713  0.1472 -1.1348
  183SOPE   H4Y20970   2.061   4.384   6.879  1.1623  1.9570 -0.0576
  183SOPE   C3520971   1.925   4.387   7.046 -0.3431 -0.0566  0.0048
  183SOPE   H5X20972   1.871   4.292   7.030 -0.1031 -0.0030 -1.2176
  183SOPE   H5Y20973   1.852   4.463   7.082 -1.0386  0.8151 -3.0096
  183SOPE   C3620974   2.040   4.375   7.143 -0.4346  0.7275  0.0166
  183SOPE   H6X20975   2.110   4.459   7.128 -0.1717  0.1598 -2.3532
  183SOPE   H6Y20976   2.083   4.275   7.120 -0.4617  0.0264  2.6668
  183SOPE   C3720977   1.991   4.373   7.292 -0.6875  0.1859  0.0753
  183SOPE   H7X20978   1.916   4.291   7.299 -0.0069 -0.3400  1.7424
  183SOPE   H7Y20979   1.930   4.464   7.310 -1.2369 -0.2374  0.3871
  183SOPE   C3820980   2.102   4.349   7.400  0.1308 -0.1272  0.0050
  183SOPE   H8X20981   2.178   4.428   7.383 -0.2662 -0.1390 -2.0895
  183SOPE   H8Y20982   2.145   4.254   7.361 -0.0917 -0.5011  0.6573
  183SOPE   C3920983   2.050   4.343   7.540 -0.2882 -0.1660  0.3333
  183SOPE   H9X20984   1.969   4.270   7.561 -0.8462  0.5093  0.5833
  183SOPE   H9Y20985   2.008   4.443   7.564 -1.0500 -0.6185  0.9797
  183SOPE  C31020986   2.158   4.299   7.640  0.9870  0.2082 -0.4967
  183SOPE  H10X20987   2.246   4.366   7.631  2.1651 -0.7607  2.5991
  183SOPE  H10Y20988   2.195   4.196   7.620  1.4711 -0.3552  2.6987
  183SOPE  C31120989   2.099   4.296   7.781 -0.7784  0.3862 -0.4584
  183SOPE  H11X20990   2.062   4.198   7.818  0.3246 -0.3819 -1.2972
  183SOPE  H11Y20991   2.031   4.383   7.792  1.0287  1.9446 -1.0473
  183SOPE  C31220992   2.212   4.318   7.885  0.4550 -0.2447 -0.8657
  183SOPE  H12X20993   2.232   4.426   7.866  2.0175 -0.0109  1.6670
  183SOPE  H12Y20994   2.295   4.248   7.860  1.5991  0.0996  1.6014
  183SOPE  C31320995   2.175   4.303   8.036 -0.1536 -0.2053  0.9773
  183SOPE  H13X20996   2.142   4.197   8.042  0.2308 -0.4719 -0.9299
  183SOPE  H13Y20997   2.097   4.372   8.074 -1.4091 -0.8578 -0.3171
  183SOPE  C31420998   2.300   4.323   8.128  0.0152  0.1194 -0.1906
  183SOPE  H14X20999   2.324   4.431   8.120  1.5619 -0.2331 -0.7526
  183SOPE  H14Y21000   2.388   4.276   8.080 -0.6627 -1.4387  0.0492
  183SOPE  C31521001   2.281   4.273   8.269  0.1358  0.4612 -0.7440
  183SOPE  H15X21002   2.282   4.162   8.262  0.9393 -0.0007  3.7841
  183SOPE  H15Y21003   2.178   4.302   8.300 -0.6859 -0.4146 -2.5366
  183SOPE  C31621004   2.389   4.314   8.367  0.1273 -0.2204 -0.5408
  183SOPE  H16X21005   2.410   4.422   8.352  0.2761 -0.1203  0.3301
  183SOPE  H16Y21006   2.486   4.262   8.348  0.2457 -0.9154  1.6518
  183SOPE  C31721007   2.348   4.272   8.506 -0.5403  0.0040 -0.2350
  183SOPE  H17X21008   2.249   4.310   8.539 -0.5764 -0.7860  0.6118
  183SOPE  H17Y21009   2.415   4.320   8.581  1.1524 -2.2314 -0.2208
  183SOPE  C31821010   2.353   4.120   8.529  0.3287  0.0891  0.5069
  183SOPE  H18X21011   2.451   4.086   8.488 -0.6759 -1.4900 -0.7212
  183SOPE  H18Y21012   2.265   4.072   8.481  0.4111  0.7802 -0.3652
  183SOPE  H18Z21013   2.356   4.102   8.639  1.6895  0.6502  0.5785
  184SOPE     N21014   0.985   5.751   6.264 -0.2858 -0.1546 -0.5893
  184SOPE   HN121015   0.883   5.740   6.283 -0.0203 -0.0157  0.9902
  184SOPE   HN221016   1.033   5.714   6.348 -0.7349  2.3529  0.8519
  184SOPE   HN321017   1.006   5.852   6.272 -0.1225 -0.2341 -0.0027
  184SOPE   C1221018   1.049   5.701   6.138  0.2311  0.4278 -0.0950
  184SOPE  H12A21019   1.157   5.728   6.146  0.2841  0.0814  0.4015
  184SOPE  H12B21020   1.002   5.751   6.051  2.5645 -0.6408 -2.1155
  184SOPE   C1121021   1.019   5.552   6.131  0.4560 -0.0103  0.3218
  184SOPE  H11A21022   1.039   5.511   6.030 -0.4678 -1.3749  0.6617
  184SOPE  H11B21023   0.909   5.548   6.147  0.3126  1.5204 -0.1264
  184SOPE     P21024   1.051   5.330   6.260 -0.4749 -0.0108  0.1711
  184SOPE   O1321025   1.135   5.264   6.163 -0.0983 -0.0762  0.6708
  184SOPE   O1421026   0.906   5.289   6.267 -0.4111  0.4612 -0.0844
  184SOPE   O1221027   1.080   5.483   6.233  0.2992 -0.6098  0.2715
  184SOPE   O1121028   1.108   5.304   6.408  0.1751 -0.1484 -0.1796
  184SOPE    C121029   1.246   5.276   6.437 -0.0570 -0.3715 -0.4614
  184SOPE    HA21030   1.283   5.338   6.522 -0.0346 -1.0503  0.0376
  184SOPE    HB21031   1.316   5.293   6.353 -1.4008 -0.9096 -1.7355
  184SOPE    C221032   1.256   5.134   6.503 -0.4757  0.2244 -0.1172
  184SOPE    HS21033   1.217   5.060   6.430  0.2607 -0.4458  0.1638
  184SOPE   O2121034   1.184   5.134   6.625 -0.3021 -0.1380  1.0170
  184SOPE   C2121035   1.068   5.080   6.623  0.1497  0.2315  0.2265
  184SOPE   O2221036   1.016   5.028   6.525 -0.0447  0.9763 -0.2313
  184SOPE   C2221037   1.004   5.087   6.761 -0.6330 -0.0359  0.0149
  184SOPE   H2R21038   1.044   5.178   6.810 -1.5812 -0.2392  1.2262
  184SOPE   H2S21039   1.023   4.991   6.812 -2.1087 -1.1115 -1.3364
  184SOPE    C321040   1.407   5.104   6.526  0.3802  1.0671  0.6074
  184SOPE    HX21041   1.454   5.119   6.427  1.7060 -1.0461  0.8516
  184SOPE    HY21042   1.414   4.997   6.554  1.2475  0.5131 -1.5065
  184SOPE   O3121043   1.468   5.197   6.612  0.1011  0.9219  0.0608
  184SOPE   C3121044   1.498   5.147   6.730 -0.0770  0.3155 -0.1600
  184SOPE   O3221045   1.487   5.031   6.759 -0.1362 -0.3148  0.6633
  184SOPE   C3221046   1.540   5.262   6.822 -0.6633 -0.7632  0.2099
  184SOPE   H2X21047   1.612   5.328   6.768 -2.3998 -0.3519 -1.6892
  184SOPE   H2Y21048   1.593   5.228   6.914  0.9476  0.9726 -0.0007
  184SOPE   C2321049   0.852   5.104   6.744 -0.7966 -0.1833  0.8452
  184SOPE   H3R21050   0.813   5.022   6.680 -0.7295 -1.8767  2.8350
  184SOPE   H3S21051   0.837   5.206   6.703  4.5707  0.3005 -0.7213
  184SOPE   C2421052   0.779   5.098   6.878 -0.3813 -0.4811  0.4113
  184SOPE   H4R21053   0.834   5.155   6.955 -3.4006  2.6608  0.4867
  184SOPE   H4S21054   0.673   5.130   6.868  0.1114  1.4329  0.8891
  184SOPE   C2521055   0.752   4.956   6.930  0.6115  0.3612  0.2041
  184SOPE   H5R21056   0.697   4.907   6.847 -0.3878 -0.6432  1.4273
  184SOPE   H5S21057   0.859   4.927   6.944  0.9157  0.7445 -1.1849
  184SOPE   C2621058   0.664   4.937   7.054  0.3325 -0.0704 -0.3441
  184SOPE   H6R21059   0.712   5.001   7.131  1.3140  0.1352 -1.1041
  184SOPE   H6S21060   0.562   4.979   7.040  0.5938  1.0329  0.8524
  184SOPE   C2721061   0.663   4.787   7.104  0.5964  0.2135 -0.5118
  184SOPE   H7R21062   0.620   4.731   7.018 -0.5333 -0.2405  0.3185
  184SOPE   H7S21063   0.770   4.758   7.106  1.2570  2.5049  1.1243
  184SOPE   C2821064   0.598   4.754   7.244  0.1650 -0.5784  0.3678
  184SOPE   H8R21065   0.490   4.771   7.225  0.5477  1.0942 -0.5578
  184SOPE   H8S21066   0.604   4.645   7.261 -0.7014 -0.4535  1.5774
  184SOPE   C2921067   0.663   4.836   7.351  0.2850 -0.5477 -0.7244
  184SOPE   H9121068   0.618   4.936   7.359  2.2981  0.3182  0.5509
  184SOPE  C21021069   0.769   4.804   7.429  0.9758 -0.7460 -0.5452
  184SOPE  H10121070   0.798   4.873   7.510 -2.3077  0.7586 -0.4943
  184SOPE  C21121071   0.836   4.673   7.423  0.4887 -0.4522 -0.1540
  184SOPE  H11R21072   0.941   4.687   7.389  1.0526  2.4897  2.3657
  184SOPE  H11S21073   0.793   4.602   7.349  0.5825 -0.6719  0.0012
  184SOPE  C21221074   0.848   4.609   7.562 -0.2960  0.1849 -0.5048
  184SOPE  H12R21075   0.897   4.511   7.544 -0.0843  0.3039 -0.5720
  184SOPE  H12S21076   0.750   4.583   7.608 -1.7470  1.1334 -2.8422
  184SOPE  C21321077   0.927   4.686   7.662  0.0543 -0.4178 -0.9032
  184SOPE  H13R21078   0.882   4.782   7.696  1.0856  0.2813 -1.4703
  184SOPE  H13S21079   1.021   4.724   7.616 -0.8868  0.9214 -1.8182
  184SOPE  C21421080   0.958   4.611   7.790 -0.4036  0.0464 -0.6459
  184SOPE  H14R21081   1.043   4.546   7.763  1.5204  0.7804  3.0188
  184SOPE  H14S21082   0.875   4.551   7.833  0.4745 -0.1488  0.8381
  184SOPE  C21521083   1.008   4.682   7.923 -0.7754  0.3002  0.2710
  184SOPE  H15R21084   0.924   4.738   7.969 -0.0878  1.6042 -0.0092
  184SOPE  H15S21085   1.082   4.759   7.894  2.5091 -2.3998  0.8510
  184SOPE  C21621086   1.074   4.575   8.011  0.7113 -0.4198 -0.3374
  184SOPE  H16R21087   1.163   4.524   7.970  1.1222 -1.1544  1.3760
  184SOPE  H16S21088   1.009   4.487   8.032  1.5737 -0.7562  1.0481
  184SOPE  C21721089   1.108   4.627   8.148 -0.1750  0.4135  0.7193
  184SOPE  H17R21090   1.021   4.648   8.214  0.3271 -0.5340  1.7157
  184SOPE  H17S21091   1.167   4.720   8.139 -1.0009  0.7939 -1.5814
  184SOPE  C21821092   1.186   4.530   8.240 -0.6544  0.5935  0.6915
  184SOPE  H18R21093   1.142   4.432   8.266  1.3358 -0.9533 -1.3602
  184SOPE  H18S21094   1.218   4.596   8.323  1.2419  4.2075 -2.5703
  184SOPE  H18T21095   1.281   4.499   8.192 -0.5217  0.2673  1.1692
  184SOPE   C3321096   1.414   5.332   6.884  0.2215  0.1072 -0.0595
  184SOPE   H3X21097   1.355   5.385   6.806 -0.4238 -0.1440  0.2469
  184SOPE   H3Y21098   1.456   5.416   6.944  0.5075 -0.3982  0.4531
  184SOPE   C3421099   1.339   5.240   6.972  0.2313  0.2309  0.3000
  184SOPE   H4X21100   1.401   5.202   7.056 -0.1429 -2.3332 -0.5043
  184SOPE   H4Y21101   1.309   5.142   6.930 -1.2292 -0.3237  2.4523
  184SOPE   C3521102   1.205   5.299   7.013  0.0706 -0.0847  0.4799
  184SOPE   H5X21103   1.158   5.319   6.914 -0.4240  0.1020  0.7476
  184SOPE   H5Y21104   1.219   5.403   7.047  0.0177  0.4821 -1.1329
  184SOPE   C3621105   1.109   5.201   7.106  0.1534  0.1843  0.3979
  184SOPE   H6X21106   1.075   5.117   7.041  0.0423  0.1327  0.5231
  184SOPE   H6Y21107   1.017   5.250   7.144 -1.0887 -0.8472 -1.1359
  184SOPE   C3721108   1.194   5.157   7.221 -0.5908 -0.1962  0.3849
  184SOPE   H7X21109   1.281   5.108   7.173  1.1778  2.4040  0.7103
  184SOPE   H7Y21110   1.135   5.081   7.277 -2.6095 -1.4855 -3.1555
  184SOPE   C3821111   1.226   5.277   7.315  0.3505 -0.4263  0.4217
  184SOPE   H8X21112   1.126   5.316   7.341 -1.9595 -4.9651 -0.5308
  184SOPE   H8Y21113   1.278   5.362   7.267  0.6232  0.0439  1.5384
  184SOPE   C3921114   1.289   5.232   7.444 -0.2021 -0.3171  0.4089
  184SOPE   H9X21115   1.313   5.327   7.496 -0.2918 -0.9467  1.6223
  184SOPE   H9Y21116   1.382   5.173   7.431  1.2771  2.0010 -0.3189
  184SOPE  C31021117   1.193   5.165   7.539 -0.6571 -0.2833 -1.1123
  184SOPE  H10X21118   1.176   5.065   7.496  0.4843 -0.3215 -1.5047
  184SOPE  H10Y21119   1.102   5.228   7.555 -0.6960 -0.2948 -1.2867
  184SOPE  C31121120   1.245   5.155   7.686 -0.4061  0.1412 -0.5527
  184SOPE  H11X21121   1.260   5.256   7.730  1.5788 -0.8452  1.2507
  184SOPE  H11Y21122   1.346   5.109   7.682 -0.0688  0.8469 -0.3355
  184SOPE  C31221123   1.147   5.077   7.776  0.0589 -0.6503  0.0010
  184SOPE  H12X21124   1.119   4.983   7.724  0.5717 -0.0977 -1.3191
  184SOPE  H12Y21125   1.054   5.134   7.793  0.3042  0.6964 -2.6924
  184SOPE  C31321126   1.215   5.037   7.901 -0.3538 -0.2379  0.2722
  184SOPE  H13X21127   1.304   4.971   7.892 -0.1634  0.0667 -0.0980
  184SOPE  H13Y21128   1.148   4.976   7.965 -2.7786  0.8479 -1.0680
  184SOPE  C31421129   1.268   5.146   7.990  0.5483  0.0296 -0.6164
  184SOPE  H14X21130   1.192   5.223   8.014  1.0566  1.3299 -2.9124
  184SOPE  H14Y21131   1.348   5.206   7.941  0.5349  2.8809  2.5309
  184SOPE  C31521132   1.329   5.086   8.118 -0.6787 -0.3140 -0.3552
  184SOPE  H15X21133   1.411   5.018   8.085 -0.6984 -0.0914 -0.8705
  184SOPE  H15Y21134   1.242   5.034   8.164 -0.3645 -0.4541  0.0947
  184SOPE  C31621135   1.390   5.179   8.219 -0.3553  0.4791  0.7310
  184SOPE  H16X21136   1.306   5.240   8.258 -1.2972 -0.7726  0.7066
  184SOPE  H16Y21137   1.479   5.238   8.187  1.7428 -2.8279 -0.0060
  184SOPE  C31721138   1.446   5.098   8.337  0.4231  0.4296 -0.3363
  184SOPE  H17X21139   1.521   5.026   8.299  1.4985  1.7059 -0.6991
  184SOPE  H17Y21140   1.359   5.044   8.382 -1.0436  1.5218 -1.7193
  184SOPE  C31821141   1.506   5.191   8.442  0.0438  0.3304 -0.0353
  184SOPE  H18X21142   1.596   5.248   8.408 -2.7198  3.8177 -2.3493
  184SOPE  H18Y21143   1.526   5.131   8.533 -1.4239 -0.5263 -0.2535
  184SOPE  H18Z21144   1.430   5.263   8.479 -2.0732 -1.5082 -0.5791
  185SAPI   C1221145   3.885   2.511  11.448  1.2500  0.2375 -0.1149
  185SAPI    H221146   3.832   2.608  11.435 -0.5058 -0.4787  1.4477
  185SAPI    O221147   4.012   2.546  11.494 -0.4716 -0.1574 -0.1603
  185SAPI   HO221148   4.020   2.632  11.535  2.2653  0.6732 -2.1455
  185SAPI   C1321149   3.815   2.431  11.556 -0.8829  0.0022 -0.4885
  185SAPI    H321150   3.712   2.404  11.524 -2.5071  1.2659  3.1670
  185SAPI    O321151   3.782   2.513  11.669  0.3266 -0.3287  0.3948
  185SAPI   HO321152   3.855   2.575  11.675  1.2688 -1.5395  3.1940
  185SAPI   C1421153   3.884   2.300  11.587 -0.0494  0.0356  0.2897
  185SAPI    H421154   3.987   2.328  11.615 -0.2944  0.0965  1.1475
  185SAPI    O421155   3.815   2.230  11.684  0.4114  0.7956 -0.2073
  185SAPI   HO421156   3.728   2.209  11.649 -1.1708  1.9557  2.6481
  185SAPI   C1521157   3.886   2.224  11.450 -0.0426  0.0823 -0.0348
  185SAPI    H521158   3.782   2.205  11.416 -0.6129 -0.1447  1.7179
  185SAPI    O521159   3.950   2.101  11.466  0.2576  0.1793 -0.0254
  185SAPI   HO521160   4.045   2.111  11.466  0.5373 -1.8124  1.5496
  185SAPI   C1621161   3.954   2.305  11.343  0.0232  0.7527 -0.0415
  185SAPI    H621162   4.058   2.326  11.374  0.2292 -1.3835  0.8835
  185SAPI    O621163   3.956   2.234  11.215  0.0612  0.0738 -0.1754
  185SAPI   HO621164   3.876   2.249  11.164  0.2951  0.1442 -0.5264
  185SAPI   C1121165   3.890   2.434  11.316  0.7626  0.1188 -0.3497
  185SAPI    H121166   3.784   2.410  11.293  0.9796 -1.4075  0.1122
  185SAPI     P21167   3.854   2.617  11.111 -0.1180  0.0220 -0.5808
  185SAPI   O1321168   3.920   2.743  11.120  0.0305 -0.8468  0.0805
  185SAPI   O1421169   3.707   2.611  11.142 -0.6795 -0.3127 -0.6575
  185SAPI   O1221170   3.944   2.510  11.209  0.1327 -0.0610  0.9063
  185SAPI   O1121171   3.867   2.554  10.967 -0.2563 -0.2905  0.2861
  185SAPI    C121172   3.996   2.542  10.915 -0.3963  1.0562  0.4580
  185SAPI    HA21173   4.053   2.637  10.916 -1.2682  1.5850  0.1103
  185SAPI    HB21174   4.056   2.473  10.979  0.4500  0.4411 -0.9352
  185SAPI    C221175   3.993   2.475  10.774  0.2660  0.7859  0.4023
  185SAPI    HS21176   4.095   2.440  10.750 -1.2729 -1.5985 -3.7948
  185SAPI   O2121177   3.942   2.571  10.679 -0.5554  0.0441 -0.8968
  185SAPI   C2121178   4.031   2.666  10.659 -0.0573 -0.9980  0.2049
  185SAPI   O2221179   4.141   2.673  10.708 -0.3570  0.6278 -0.5650
  185SAPI   C2221180   3.962   2.778  10.574 -0.0036  0.0704  0.3718
  185SAPI   H2R21181   3.912   2.709  10.502  0.9344 -0.8685  0.5920
  185SAPI   H2S21182   3.884   2.820  10.640  1.3868  1.2362  1.3462
  185SAPI    C321183   3.898   2.355  10.772  0.1881 -0.0884  0.1793
  185SAPI    HX21184   3.796   2.393  10.793  0.4026 -0.8152  2.9579
  185SAPI    HY21185   3.929   2.286  10.854  1.2705  0.8351  0.5769
  185SAPI   O3121186   3.897   2.288  10.640 -0.2125  0.3063 -0.3515
  185SAPI   C3121187   3.958   2.173  10.635 -0.1249 -0.5900 -0.3367
  185SAPI   O3221188   4.015   2.118  10.726 -0.1946  0.3419  0.1107
  185SAPI   C3221189   3.958   2.128  10.491  0.0924  0.1698 -0.0381
  185SAPI   H2X21190   3.937   2.212  10.422  0.4201  0.9601  0.8139
  185SAPI   H2Y21191   3.869   2.062  10.480  0.9705 -1.0518 -0.0547
  185SAPI   C2321192   4.062   2.883  10.518 -0.9503 -0.2728  0.2292
  185SAPI   H3R21193   4.142   2.830  10.464  0.0208 -0.8101  2.0959
  185SAPI   H3S21194   4.121   2.930  10.599 -1.0284  0.4150 -0.1116
  185SAPI   C2421195   3.998   2.983  10.421 -0.5034  0.0141  0.4135
  185SAPI   H4R21196   4.082   3.019  10.358  0.7295 -2.2839  0.6496
  185SAPI   H4S21197   3.952   3.063  10.482 -1.1972 -1.0064  1.2652
  185SAPI   C2521198   3.893   2.920  10.334  0.4409  0.2657  0.0446
  185SAPI   H5R21199   3.801   2.888  10.384 -0.2366  0.7689 -0.8485
  185SAPI   C2621200   3.898   2.902  10.201 -0.0360 -0.3817 -0.2096
  185SAPI   H6R21201   3.810   2.865  10.146 -0.7578  1.5067 -0.3719
  185SAPI   C2721202   4.009   2.939  10.113 -0.1644 -0.0371 -0.3134
  185SAPI   H7R21203   4.054   3.038  10.135 -0.9681  0.5874 -1.3854
  185SAPI   H7S21204   3.961   2.944  10.013  1.2863  1.5324 -0.9911
  185SAPI   C2821205   4.113   2.830  10.108 -0.2685  0.5451 -0.5253
  185SAPI   H8R21206   4.115   2.753  10.187 -0.3536  0.3059 -0.7571
  185SAPI   C2921207   4.212   2.832  10.018  0.0210 -0.1377 -0.3011
  185SAPI   H9R21208   4.281   2.747  10.005  0.9689  0.7739 -1.4365
  185SAPI  C21021209   4.233   2.944   9.918 -0.3079  0.4081  0.4487
  185SAPI  H10R21210   4.326   2.997   9.950 -0.1950  0.6273 -0.2172
  185SAPI  H10S21211   4.148   3.015   9.930  0.2579  0.8610  2.1183
  185SAPI  C21121212   4.238   2.898   9.770  0.1672  0.1632 -0.4117
  185SAPI  H11R21213   4.190   2.800   9.753 -2.3775  1.3937 -0.8449
  185SAPI  C21221214   4.293   2.975   9.668 -0.1836 -0.4594 -0.1680
  185SAPI  H12R21215   4.281   2.943   9.564  0.3287  0.5494 -0.5504
  185SAPI  C21321216   4.345   3.119   9.677  0.4281  0.0550  0.4949
  185SAPI  H13R21217   4.448   3.118   9.635  0.2829  1.4104  0.0346
  185SAPI  H13S21218   4.365   3.150   9.781  1.0094  1.3485  0.0234
  185SAPI  C21421219   4.252   3.215   9.605 -0.6625  0.0540 -0.1512
  185SAPI  H14R21220   4.177   3.257   9.674 -0.3609 -0.7500  0.6728
  185SAPI  C21521221   4.248   3.229   9.470 -0.1758  0.1269 -0.1164
  185SAPI  H15R21222   4.160   3.279   9.427 -0.8434 -1.8685 -1.1691
  185SAPI  C21621223   4.333   3.166   9.359  0.3943 -0.1680 -0.6670
  185SAPI  H16R21224   4.415   3.100   9.396 -0.3041 -0.7852 -0.2094
  185SAPI  H16S21225   4.389   3.243   9.301  1.7567 -1.7332 -1.5205
  185SAPI  C21721226   4.252   3.090   9.243 -0.5923  0.6148 -1.3408
  185SAPI  H17R21227   4.182   3.024   9.299  1.5996 -1.3589 -0.7737
  185SAPI  H17S21228   4.318   3.021   9.186 -1.4655  0.5874 -2.3386
  185SAPI  C21821229   4.188   3.183   9.134 -0.2899  0.2718  0.5785
  185SAPI  H18R21230   4.132   3.261   9.190 -0.9676  1.5607 -1.7571
  185SAPI  H18S21231   4.113   3.127   9.075 -0.4485 -1.3538  2.2384
  185SAPI  C21921232   4.296   3.247   9.047  0.6488  0.9569  0.2275
  185SAPI  H19R21233   4.369   3.173   9.008 -0.9819 -0.1814 -0.7790
  185SAPI  H19S21234   4.358   3.320   9.103  1.5941 -0.6026  1.3072
  185SAPI  C22021235   4.233   3.314   8.919  0.4233  0.6553  0.0032
  185SAPI  H20R21236   4.164   3.397   8.949  1.3011  0.7268  2.0497
  185SAPI  H20S21237   4.180   3.242   8.854  2.5008  0.6842 -1.8104
  185SAPI  H20T21238   4.317   3.353   8.858  0.0081 -0.0645 -1.0499
  185SAPI   C3321239   4.079   2.037  10.449  0.6805 -0.2676  0.3894
  185SAPI   H3X21240   4.130   1.987  10.534 -1.5107 -1.5633  1.0297
  185SAPI   H3Y21241   4.155   2.102  10.401 -1.7000  1.0998 -1.8088
  185SAPI   C3421242   4.041   1.935  10.342 -0.3554  0.7518 -1.0179
  185SAPI   H4X21243   3.969   1.862  10.385  0.9388  0.2261  0.3503
  185SAPI   H4Y21244   4.139   1.890  10.315 -0.5128 -0.0046 -0.3825
  185SAPI   C3521245   3.993   1.995  10.212  0.3881  0.1023 -0.0349
  185SAPI   H5X21246   4.062   2.079  10.188 -1.9986  2.2196  0.1030
  185SAPI   H5Y21247   3.901   2.053  10.233  0.8380  0.9170 -0.2669
  185SAPI   C3621248   3.990   1.908  10.087  0.0495  0.3787  0.1396
  185SAPI   H6X21249   3.904   1.838  10.097  2.5573 -3.0467 -0.2246
  185SAPI   H6Y21250   4.079   1.842  10.078 -1.6944 -2.1996  0.5372
  185SAPI   C3721251   3.973   1.988   9.961 -0.7600 -0.6728  0.4729
  185SAPI   H7X21252   4.060   2.054   9.944 -2.0676  0.8636 -0.4930
  185SAPI   H7Y21253   3.885   2.056   9.950  0.4073  0.9044  0.6016
  185SAPI   C3821254   3.995   1.896   9.840  0.0062 -0.4671 -0.0832
  185SAPI   H8X21255   3.923   1.811   9.835 -0.4314 -0.2858  2.0806
  185SAPI   H8Y21256   4.099   1.856   9.840  0.4987  0.7603  0.5996
  185SAPI   C3921257   3.978   1.962   9.693 -0.5761 -0.1081  0.2209
  185SAPI   H9X21258   4.012   2.068   9.693  0.2999 -0.3774 -0.5995
  185SAPI   H9Y21259   3.870   1.967   9.667 -0.8401 -0.2400  1.2753
  185SAPI  C31021260   4.054   1.886   9.581 -0.1402  0.1526 -0.1875
  185SAPI  H10X21261   4.020   1.780   9.592 -0.0962  0.0356 -1.0554
  185SAPI  H10Y21262   4.162   1.897   9.601 -0.2872 -0.5100  1.0687
  185SAPI  C31121263   4.010   1.933   9.437 -0.3122 -0.0544  0.8302
  185SAPI  H11X21264   4.025   2.043   9.429  1.1396 -0.3099 -0.3813
  185SAPI  H11Y21265   3.905   1.905   9.415 -0.2122 -0.3924  0.7716
  185SAPI  C31221266   4.077   1.872   9.311  0.4548  0.1616  0.1960
  185SAPI  H12X21267   4.074   1.761   9.324  0.8055  0.3112  1.8065
  185SAPI  H12Y21268   4.183   1.901   9.297  0.6981 -1.4267 -1.8169
  185SAPI  C31321269   4.009   1.914   9.182 -0.0847  0.3885 -0.3341
  185SAPI  H13X21270   4.023   2.023   9.170  0.3183  0.1477 -2.5892
  185SAPI  H13Y21271   3.900   1.900   9.194  0.2509 -1.4982  0.9698
  185SAPI  C31421272   4.053   1.840   9.055  0.2562  0.5949 -0.0453
  185SAPI  H14X21273   3.970   1.851   8.983  0.2205  1.5376  0.1245
  185SAPI  H14Y21274   4.050   1.730   9.070  0.3090  0.7831  1.5803
  185SAPI  C31521275   4.181   1.884   8.994  0.1177 -0.3467 -0.1341
  185SAPI  H15X21276   4.269   1.869   9.061  0.6554  2.7193  0.0160
  185SAPI  H15Y21277   4.161   1.993   8.981 -2.1621 -0.8061 -0.8197
  185SAPI  C31621278   4.216   1.824   8.855 -0.6215  0.3231  0.0095
  185SAPI  H16X21279   4.230   1.714   8.861  1.6260  0.5763  0.1162
  185SAPI  H16Y21280   4.303   1.881   8.815 -1.6587  1.5910 -0.5311
  185SAPI  C31721281   4.106   1.850   8.744 -0.0604 -0.0399 -0.8829
  185SAPI  H17X21282   4.104   1.952   8.700 -0.7814  0.2339 -0.2373
  185SAPI  H17Y21283   4.014   1.822   8.799  0.3755 -2.7438 -1.4039
  185SAPI  C31821284   4.091   1.750   8.622  0.1403  0.7550 -0.3894
  185SAPI  H18X21285   4.065   1.646   8.652 -0.6205  1.2881  0.8772
  185SAPI  H18Y21286   4.186   1.753   8.565  0.6640  1.9961  0.5158
  185SAPI  H18Z21287   4.008   1.790   8.560  0.8252  1.0939 -1.1029
  186SAPI   C1221288   6.191   6.653  11.020  0.1524 -0.7597 -0.1644
  186SAPI    H221289   6.287   6.705  11.040 -0.6468  1.2325 -1.2035
  186SAPI    O221290   6.189   6.603  10.887 -0.9114 -0.0182 -0.5804
  186SAPI   HO221291   6.226   6.672  10.832  0.9880  1.5547  2.4306
  186SAPI   C1321292   6.182   6.531  11.121 -0.6823  0.4263 -0.5427
  186SAPI    H321293   6.190   6.562  11.227  0.7379 -0.9514 -0.2024
  186SAPI    O321294   6.284   6.425  11.106  0.0183  0.2267  0.1446
  186SAPI   HO321295   6.315   6.398  11.193 -2.0902  2.0024  1.5508
  186SAPI   C1421296   6.040   6.473  11.110 -0.0799 -0.0729  0.3853
  186SAPI    H421297   6.036   6.440  11.004 -1.9055  0.6911  0.1698
  186SAPI    O421298   6.012   6.352  11.184 -0.2133 -0.2058  0.3212
  186SAPI   HO421299   6.040   6.359  11.276  2.2917 -2.5326 -0.1033
  186SAPI   C1521300   5.938   6.584  11.140  0.4557 -0.1580 -0.2063
  186SAPI    H521301   5.971   6.628  11.237  1.2821 -0.6702 -0.2405
  186SAPI    O521302   5.804   6.536  11.171 -0.4781 -0.0607 -0.1575
  186SAPI   HO521303   5.747   6.612  11.187 -1.6204 -0.8319 -0.4463
  186SAPI   C1621304   5.944   6.690  11.035 -0.6999  0.4132 -0.2261
  186SAPI    H621305   5.924   6.647  10.934 -2.8868  0.4864  0.1145
  186SAPI    O621306   5.851   6.799  11.064  0.0632  0.0622 -0.8623
  186SAPI   HO621307   5.908   6.876  11.054  2.3034 -1.5735 -1.6195
  186SAPI   C1121308   6.082   6.754  11.039  0.0307 -0.0389 -0.1351
  186SAPI    H121309   6.097   6.798  11.140 -3.5985 -1.6622  1.2971
  186SAPI     P21310   6.201   6.964  10.922 -0.4019  0.5227 -0.3156
  186SAPI   O1321311   6.258   6.979  11.057 -0.1466  0.5379  0.2124
  186SAPI   O1421312   6.149   7.084  10.860  0.4941  0.0555 -0.1226
  186SAPI   O1221313   6.076   6.856  10.936  0.2505  0.4416  0.6684
  186SAPI   O1121314   6.303   6.893  10.829  0.2486  0.6171  0.1703
  186SAPI    C121315   6.318   6.910  10.686 -0.0371 -0.7053 -0.9305
  186SAPI    HA21316   6.234   6.963  10.636 -0.3908 -0.4523 -0.0676
  186SAPI    HB21317   6.410   6.970  10.670  0.5938 -2.0184 -2.5970
  186SAPI    C221318   6.338   6.774  10.614 -0.4851 -0.3510  0.2508
  186SAPI    HS21319   6.373   6.792  10.510  1.5855 -1.9733  0.5981
  186SAPI   O2121320   6.220   6.693  10.619 -0.1325 -0.5128  0.1105
  186SAPI   C2121321   6.125   6.736  10.534 -0.3425 -0.4185  0.1370
  186SAPI   O2221322   6.142   6.828  10.452  0.2411 -0.2551 -0.1791
  186SAPI   C2221323   6.009   6.647  10.547  0.0132  0.0495  0.7463
  186SAPI   H2R21324   6.040   6.548  10.586 -1.9218 -0.0260  2.2562
  186SAPI   H2S21325   5.950   6.695  10.628  1.0794  1.9083  0.4809
  186SAPI    C321326   6.458   6.697  10.682  0.3796  0.5333  0.4001
  186SAPI    HX21327   6.432   6.636  10.771  4.6977 -1.5742  0.4625
  186SAPI    HY21328   6.541   6.768  10.707 -0.3173  1.7401 -0.6267
  186SAPI   O3121329   6.509   6.598  10.585  0.1777 -0.2312 -0.4777
  186SAPI   C3121330   6.635   6.552  10.602  0.6767 -0.0573  0.3077
  186SAPI   O3221331   6.704   6.575  10.694 -0.2416  0.5068  0.4720
  186SAPI   C3221332   6.665   6.460  10.488 -0.1439  0.2882 -0.6401
  186SAPI   H2X21333   6.573   6.442  10.428 -0.6266 -3.4203  0.9308
  186SAPI   H2Y21334   6.695   6.359  10.524 -1.5705  0.5295  1.4047
  186SAPI   C2321335   5.909   6.643  10.430  0.4250  0.6809  0.6896
  186SAPI   H3R21336   5.870   6.745  10.408 -2.3093 -0.2706  0.7075
  186SAPI   H3S21337   5.829   6.571  10.455  1.0395 -0.9928 -1.8437
  186SAPI   C2421338   5.983   6.591  10.306  0.7193  0.3904  0.3385
  186SAPI   H4R21339   6.032   6.492  10.319  1.5196  0.7555  0.1252
  186SAPI   H4S21340   6.075   6.651  10.287  1.9680 -1.9230 -1.4528
  186SAPI   C2521341   5.891   6.586  10.187  0.2605 -0.2734 -0.1261
  186SAPI   H5R21342   5.813   6.509  10.193  1.5401 -1.7711 -1.5922
  186SAPI   C2621343   5.893   6.668  10.081 -0.3360  0.2664  0.6827
  186SAPI   H6R21344   5.819   6.659  10.000 -0.3026 -0.9441  0.7615
  186SAPI   C2721345   5.987   6.777  10.047 -0.0650 -0.8238  0.0878
  186SAPI   H7R21346   6.033   6.827  10.135 -0.6756  4.6872 -2.2744
  186SAPI   H7S21347   5.931   6.868  10.016  1.8639  0.9474  1.5425
  186SAPI   C2821348   6.089   6.730   9.951  0.0903 -0.7691 -0.1331
  186SAPI   H8R21349   6.178   6.702  10.010  2.3745  2.4588 -1.7734
  186SAPI   C2921350   6.101   6.728   9.820 -0.3744 -0.6969  1.0798
  186SAPI   H9R21351   6.196   6.686   9.783 -0.3349 -0.0578  0.4259
  186SAPI  C21021352   5.996   6.765   9.719  0.1812  0.4563 -0.6153
  186SAPI  H10R21353   5.900   6.720   9.754  1.1288 -0.1713  1.3564
  186SAPI  H10S21354   6.004   6.706   9.625 -1.8102 -1.1613  0.1437
  186SAPI  C21121355   5.965   6.914   9.694 -0.7657 -0.2987  0.1262
  186SAPI  H11R21356   5.964   6.974   9.786 -2.7207  0.4858 -0.3497
  186SAPI  C21221357   5.945   6.962   9.571 -0.1596 -0.2684 -0.4528
  186SAPI  H12R21358   5.925   7.069   9.559  3.0072  0.2366 -2.3180
  186SAPI  C21321359   5.953   6.882   9.437 -0.0155 -0.4542 -0.3966
  186SAPI  H13R21360   5.856   6.901   9.387 -1.5991 -0.9777  2.2494
  186SAPI  H13S21361   5.948   6.774   9.466  1.1098  0.2042  2.6360
  186SAPI  C21421362   6.078   6.900   9.355 -1.0262 -0.2048 -0.6989
  186SAPI  H14R21363   6.162   6.830   9.359 -1.1048 -0.5020 -2.8112
  186SAPI  C21521364   6.090   6.996   9.262 -0.4312 -0.1914  0.7982
  186SAPI  H15R21365   6.186   6.994   9.208 -1.7658 -1.1397 -1.7011
  186SAPI  C21621366   5.996   7.109   9.215  0.2239  0.0709  0.7953
  186SAPI  H16R21367   6.027   7.207   9.257  1.9314  0.1287 -0.4829
  186SAPI  H16S21368   5.889   7.085   9.234  0.5202 -1.5909  0.5310
  186SAPI  C21721369   6.009   7.128   9.062 -0.2442  0.6522 -0.2802
  186SAPI  H17R21370   6.110   7.105   9.021 -0.8449 -1.0135 -0.9184
  186SAPI  H17S21371   5.980   7.225   9.018 -2.7455 -0.3658 -1.0924
  186SAPI  C21821372   5.922   7.022   8.992 -0.1366 -0.2262  0.3298
  186SAPI  H18R21373   5.817   7.029   9.030  0.2219  2.2396  1.0522
  186SAPI  H18S21374   5.963   6.921   9.012 -0.6831 -0.9055 -1.7359
  186SAPI  C21921375   5.912   7.048   8.840 -0.1147 -0.2422  0.5432
  186SAPI  H19R21376   5.882   7.150   8.808  0.6038  0.7019  2.7332
  186SAPI  H19S21377   5.840   6.968   8.814  0.5707 -1.7249  2.9345
  186SAPI  C22021378   6.042   7.007   8.772 -0.3077 -0.1970  0.0098
  186SAPI  H20R21379   6.128   7.037   8.835  0.7839  2.2868 -2.4444
  186SAPI  H20S21380   6.051   7.052   8.670 -1.2164  2.0010  0.8332
  186SAPI  H20T21381   6.055   6.897   8.769  0.8770 -0.0567 -0.8160
  186SAPI   C3321382   6.784   6.515  10.399 -0.2363  0.1607 -0.0113
  186SAPI   H3X21383   6.785   6.439  10.318 -2.2524  1.2852 -1.1916
  186SAPI   H3Y21384   6.873   6.520  10.464 -1.3984  2.4902  1.5653
  186SAPI   C3421385   6.758   6.657  10.353 -0.0298  0.5614  0.0741
  186SAPI   H4X21386   6.847   6.693  10.295  0.0608  0.5959  0.2343
  186SAPI   H4Y21387   6.743   6.722  10.441 -1.4239  1.5218 -0.8339
  186SAPI   C3521388   6.630   6.663  10.270  0.0475  0.4297  0.3293
  186SAPI   H5X21389   6.547   6.632  10.336  0.8729  0.0116  1.1952
  186SAPI   H5Y21390   6.639   6.593  10.184 -2.8113  3.3034 -2.5692
  186SAPI   C3621391   6.601   6.797  10.210  0.3984  0.6601 -0.1309
  186SAPI   H6X21392   6.696   6.830  10.162  0.6346 -0.6617 -0.6182
  186SAPI   H6Y21393   6.570   6.861  10.295 -0.2069 -0.1826  0.2897
  186SAPI   C3721394   6.488   6.803  10.103 -0.1444 -0.3398  0.7056
  186SAPI   H7X21395   6.466   6.910  10.085  1.1291 -0.3127 -0.9405
  186SAPI   H7Y21396   6.395   6.764  10.151 -1.2468 -0.8100 -1.6649
  186SAPI   C3821397   6.523   6.722   9.975 -0.8595  0.0776 -0.3349
  186SAPI   H8X21398   6.425   6.707   9.923 -1.8098  0.1720  1.3691
  186SAPI   H8Y21399   6.568   6.623   9.999  2.0583  0.9992 -1.5046
  186SAPI   C3921400   6.611   6.806   9.883 -0.2277  0.1147  0.1892
  186SAPI   H9X21401   6.709   6.817   9.932 -1.9014  2.0264  3.4262
  186SAPI   H9Y21402   6.575   6.911   9.869 -0.1382 -0.1807 -3.1845
  186SAPI  C31021403   6.615   6.755   9.736 -0.1054 -0.2477 -0.1113
  186SAPI  H10X21404   6.659   6.653   9.740  2.0542  0.5740 -1.4087
  186SAPI  H10Y21405   6.682   6.812   9.669 -0.9614 -0.8410 -1.5087
  186SAPI  C31121406   6.479   6.742   9.663 -0.1605 -0.1761 -0.2326
  186SAPI  H11X21407   6.424   6.838   9.667  0.8412  0.5031 -1.6555
  186SAPI  H11Y21408   6.421   6.655   9.702 -1.0974  0.4324 -0.2302
  186SAPI  C31221409   6.510   6.726   9.514 -0.6344  0.1531  0.2383
  186SAPI  H12X21410   6.431   6.663   9.468  0.7084 -1.6112  0.2342
  186SAPI  H12Y21411   6.601   6.662   9.513 -0.3761  0.5210 -0.3265
  186SAPI  C31321412   6.524   6.865   9.449 -0.1358 -0.8057  0.7354
  186SAPI  H13X21413   6.558   6.951   9.511 -0.5680 -0.4523  0.4953
  186SAPI  H13Y21414   6.422   6.900   9.420  0.4673  0.7557  0.3688
  186SAPI  C31421415   6.607   6.858   9.321 -0.4726 -0.5267  0.3920
  186SAPI  H14X21416   6.607   6.764   9.262 -1.4232 -0.3701  0.1350
  186SAPI  H14Y21417   6.714   6.869   9.349  0.1041  0.5054 -1.9503
  186SAPI  C31521418   6.563   6.959   9.220  0.3445 -0.4798  0.3668
  186SAPI  H15X21419   6.531   7.055   9.267 -1.8328 -0.9094 -0.1405
  186SAPI  H15Y21420   6.470   6.921   9.174  0.8709 -3.9677  1.9205
  186SAPI  C31621421   6.663   6.999   9.112 -0.3141 -0.0956 -0.3733
  186SAPI  H16X21422   6.610   7.076   9.053  3.7262  0.5602 -3.6188
  186SAPI  H16Y21423   6.688   6.921   9.037  1.6432  0.2251 -0.1311
  186SAPI  C31721424   6.799   7.055   9.164  0.2282  0.0710  0.8792
  186SAPI  H17X21425   6.872   7.055   9.081 -2.7501 -1.0568 -1.9504
  186SAPI  H17Y21426   6.838   6.970   9.224 -0.5117 -1.3428 -0.5512
  186SAPI  C31821427   6.791   7.183   9.252  0.2205 -0.5156  1.0545
  186SAPI  H18X21428   6.719   7.159   9.334  2.3256  0.5576  3.3520
  186SAPI  H18Y21429   6.750   7.259   9.182 -0.8414 -3.4279 -1.7524
  186SAPI  H18Z21430   6.886   7.222   9.295  0.6327 -0.2546 -0.0608
  187SAPI   C1221431   1.969   1.792   6.484 -0.4295  0.3285  0.6407
  187SAPI    H221432   2.056   1.748   6.538  0.9430  2.4843  0.3142
  187SAPI    O221433   1.858   1.816   6.573  0.2283 -0.3873 -0.4027
  187SAPI   HO221434   1.783   1.766   6.541 -1.3364  2.6313 -1.8960
  187SAPI   C1321435   2.029   1.925   6.447  0.6100 -0.4500  0.6278
  187SAPI    H321436   2.119   1.900   6.387  1.0023 -2.2972  1.9008
  187SAPI    O321437   2.064   2.000   6.562 -0.1362  0.0957 -0.3450
  187SAPI   HO321438   1.985   1.988   6.617  1.0646 -0.1532  1.4155
  187SAPI   C1421439   1.941   2.013   6.355 -0.6438  0.4202  0.4283
  187SAPI    H421440   1.849   2.046   6.407 -0.5230  0.1635  0.8015
  187SAPI    O421441   2.015   2.133   6.315 -0.4736  0.1012  0.1033
  187SAPI   HO421442   2.052   2.175   6.393  1.7808 -0.7384 -0.4339
  187SAPI   C1521443   1.899   1.930   6.231 -0.2759 -0.6106 -0.2525
  187SAPI    H521444   1.995   1.926   6.174 -0.2436 -0.8856 -0.1805
  187SAPI    O521445   1.824   2.016   6.143  0.3904 -0.3825 -0.5162
  187SAPI   HO521446   1.853   1.990   6.055 -2.8716  0.4035 -1.9967
  187SAPI   C1621447   1.838   1.795   6.263  0.0826 -0.1270 -0.3673
  187SAPI    H621448   1.737   1.799   6.310 -0.4369 -0.6761 -1.3911
  187SAPI    O621449   1.808   1.719   6.146  0.4404 -0.3892 -0.2150
  187SAPI   HO621450   1.739   1.659   6.173  1.1866 -0.7576  0.9545
  187SAPI   C1121451   1.921   1.713   6.362  0.0244 -0.5022 -0.2086
  187SAPI    H121452   2.012   1.686   6.304  0.9423  1.4478  0.2319
  187SAPI     P21453   1.912   1.445   6.451 -0.5486 -0.1098 -0.3352
  187SAPI   O1321454   2.055   1.431   6.417  0.2049  0.2508  0.4428
  187SAPI   O1421455   1.818   1.338   6.416 -0.1738 -0.1148  0.4668
  187SAPI   O1221456   1.856   1.588   6.397 -0.2077 -1.0926  0.1640
  187SAPI   O1121457   1.895   1.459   6.606 -0.3991  0.3088  0.2244
  187SAPI    C121458   1.987   1.528   6.695  0.0897  0.3665 -0.6087
  187SAPI    HA21459   2.067   1.578   6.637  1.9560 -2.7075 -0.8871
  187SAPI    HB21460   1.936   1.598   6.765 -1.0690  1.1769 -2.2130
  187SAPI    C221461   2.058   1.422   6.786  0.7155  0.3007  0.1362
  187SAPI    HS21462   2.124   1.369   6.715 -0.6448  0.0312 -0.9780
  187SAPI   O2121463   1.948   1.346   6.847 -0.3089 -0.3491  0.1322
  187SAPI   C2121464   1.976   1.221   6.873 -0.5461  0.0945 -0.2475
  187SAPI   O2221465   2.088   1.169   6.861 -0.4222 -0.5146  1.1650
  187SAPI   C2221466   1.858   1.157   6.941  0.4355  0.3729 -0.4266
  187SAPI   H2R21467   1.821   1.218   7.026  1.9106  1.6022 -0.6203
  187SAPI   H2S21468   1.777   1.144   6.866 -1.1046 -0.6969  1.3435
  187SAPI    C321469   2.142   1.507   6.893  1.3724  0.3964  0.2608
  187SAPI    HX21470   2.202   1.584   6.840  2.2985 -1.3640 -1.3912
  187SAPI    HY21471   2.219   1.455   6.955  0.6561  2.8023  3.4310
  187SAPI   O3121472   2.051   1.574   6.983  0.9797 -0.8495 -0.0425
  187SAPI   C3121473   2.018   1.506   7.086  0.0095  0.0260  0.1314
  187SAPI   O3221474   2.047   1.392   7.113  0.4706 -0.4831 -0.5631
  187SAPI   C3221475   1.939   1.597   7.186  0.4191  0.4727 -0.1022
  187SAPI   H2X21476   1.963   1.706   7.183 -0.6330  0.7586  1.0488
  187SAPI   H2Y21477   1.967   1.556   7.285  0.2774 -0.1163 -0.3064
  187SAPI   C2321478   1.900   1.013   6.996 -0.6069 -0.7410  0.6801
  187SAPI   H3R21479   1.998   1.014   7.050  0.8806 -1.6852 -1.8237
  187SAPI   H3S21480   1.917   0.942   6.912 -0.4833  0.6363 -0.4873
  187SAPI   C2421481   1.785   0.968   7.094  0.0069 -0.2750  0.2819
  187SAPI   H4R21482   1.690   0.985   7.040  0.3058  0.1054 -0.1377
  187SAPI   H4S21483   1.780   1.038   7.179 -2.4416 -0.6795  0.5368
  187SAPI   C2521484   1.787   0.821   7.144 -0.0674  0.2365 -0.4133
  187SAPI   H5R21485   1.818   0.755   7.061 -0.1730  0.6453 -0.7825
  187SAPI   C2621486   1.770   0.773   7.262  0.0140 -0.8778 -0.0910
  187SAPI   H6R21487   1.765   0.666   7.284 -1.7442 -0.5518  1.3932
  187SAPI   C2721488   1.739   0.868   7.383 -0.2866  0.1260 -0.1830
  187SAPI   H7R21489   1.678   0.956   7.354  0.2869  0.8481  0.7573
  187SAPI   H7S21490   1.834   0.920   7.409  0.0818  0.8199 -2.6466
  187SAPI   C2821491   1.659   0.816   7.502  0.7578 -0.0319 -0.3668
  187SAPI   H8R21492   1.588   0.735   7.479  0.2191 -0.1765  1.6132
  187SAPI   C2921493   1.678   0.857   7.632  0.2457 -0.4946 -0.2540
  187SAPI   H9R21494   1.615   0.818   7.713 -1.5754 -0.9120 -1.7986
  187SAPI  C21021495   1.776   0.961   7.682  0.1096  0.2619 -0.4347
  187SAPI  H10R21496   1.821   1.019   7.598  2.9362 -2.4070 -0.9439
  187SAPI  H10S21497   1.868   0.924   7.732  0.3734  1.0012 -0.3493
  187SAPI  C21121498   1.711   1.062   7.775  0.7761 -0.2031  0.1644
  187SAPI  H11R21499   1.666   1.152   7.731  1.3653  0.2808  0.5290
  187SAPI  C21221500   1.698   1.044   7.907 -0.9185 -0.4874 -0.7853
  187SAPI  H12R21501   1.653   1.127   7.964  0.1200 -0.1013 -0.4900
  187SAPI  C21321502   1.743   0.922   7.989 -0.5047 -0.1907  0.4435
  187SAPI  H13R21503   1.709   0.826   7.947 -1.3308  0.1392  0.3537
  187SAPI  H13S21504   1.680   0.925   8.081 -1.8376  0.2761 -0.4647
  187SAPI  C21421505   1.892   0.898   8.031  0.2818 -0.6877  0.4072
  187SAPI  H14R21506   1.955   0.981   7.997  0.7201 -0.3654  1.9143
  187SAPI  C21521507   1.940   0.801   8.110  0.4684 -0.0435  0.2459
  187SAPI  H15R21508   2.048   0.792   8.125  0.8206  3.6019  0.5994
  187SAPI  C21621509   1.854   0.691   8.175  0.2615  0.4801  0.2370
  187SAPI  H16R21510   1.901   0.590   8.163 -2.6215 -1.1765  1.9253
  187SAPI  H16S21511   1.754   0.690   8.126 -0.0474  1.9011  0.8166
  187SAPI  C21721512   1.833   0.696   8.325  0.5831 -0.1034 -0.2598
  187SAPI  H17R21513   1.751   0.627   8.354 -0.5142  1.8878  1.7087
  187SAPI  H17S21514   1.797   0.798   8.351  1.3082  0.0361  0.2428
  187SAPI  C21821515   1.958   0.673   8.406 -0.1623 -0.5287  1.0377
  187SAPI  H18R21516   2.026   0.760   8.396  1.3865 -1.5888  1.9539
  187SAPI  H18S21517   2.018   0.593   8.358  1.7020  1.6588 -0.4922
  187SAPI  C21921518   1.940   0.631   8.549 -0.1309 -0.5482  0.1972
  187SAPI  H19R21519   2.039   0.584   8.572  0.5900  1.1856  0.8007
  187SAPI  H19S21520   1.858   0.556   8.548 -1.2023  0.5024 -2.7617
  187SAPI  C22021521   1.911   0.737   8.651  0.2531  0.0133 -0.3346
  187SAPI  H20R21522   1.819   0.797   8.637 -0.3442 -0.5034  1.1728
  187SAPI  H20S21523   1.996   0.807   8.670 -1.1596  2.2642 -1.8831
  187SAPI  H20T21524   1.898   0.685   8.749 -1.5383  1.2409  0.1253
  187SAPI   C3321525   1.782   1.583   7.172 -0.4612 -0.0822  0.0130
  187SAPI   H3X21526   1.742   1.625   7.267 -0.6536 -0.2891  0.0246
  187SAPI   H3Y21527   1.755   1.475   7.178 -0.4392 -0.2529 -2.1648
  187SAPI   C3421528   1.723   1.645   7.041 -0.2906 -0.5791  0.2120
  187SAPI   H4X21529   1.762   1.601   6.947  0.3831 -0.4782  0.4313
  187SAPI   H4Y21530   1.744   1.754   7.038 -2.5798 -0.0914  0.3517
  187SAPI   C3521531   1.575   1.615   7.028 -0.4543  0.8390 -0.3793
  187SAPI   H5X21532   1.556   1.506   7.012  2.3289 -0.1866  2.2975
  187SAPI   H5Y21533   1.543   1.668   6.936  0.6361  0.1866 -1.1597
  187SAPI   C3621534   1.482   1.658   7.142  0.0839  0.4175 -0.2947
  187SAPI   H6X21535   1.507   1.608   7.238  0.7800  0.4745 -0.4405
  187SAPI   H6Y21536   1.378   1.629   7.114  0.7054 -0.8389 -1.4660
  187SAPI   C3721537   1.496   1.809   7.156  0.1115  0.5226 -0.2111
  187SAPI   H7X21538   1.474   1.859   7.059 -0.5725  0.6168 -0.0199
  187SAPI   H7Y21539   1.602   1.830   7.181 -0.0770 -0.6877  1.8803
  187SAPI   C3821540   1.426   1.864   7.280 -0.5401  0.1448 -0.3970
  187SAPI   H8X21541   1.321   1.833   7.294 -0.3517  0.8384  3.8938
  187SAPI   H8Y21542   1.430   1.975   7.276  0.5121  0.2901  2.2964
  187SAPI   C3921543   1.489   1.826   7.425 -0.3207 -0.3223 -0.3505
  187SAPI   H9X21544   1.599   1.840   7.420 -0.4497  1.3706  0.7010
  187SAPI   H9Y21545   1.477   1.716   7.431 -3.1666 -0.0222  1.9224
  187SAPI  C31021546   1.400   1.895   7.535 -0.0613  0.1367 -0.3882
  187SAPI  H10X21547   1.308   1.833   7.538  0.9185 -1.3501  1.0599
  187SAPI  H10Y21548   1.377   2.002   7.518  1.0834  0.4863  0.1665
  187SAPI  C31121549   1.447   1.864   7.682 -0.0176  0.2213 -0.5653
  187SAPI  H11X21550   1.552   1.897   7.696 -0.1447  0.4994 -0.2473
  187SAPI  H11Y21551   1.469   1.755   7.694 -0.3172 -0.0745 -2.3965
  187SAPI  C31221552   1.368   1.924   7.801 -0.0080  0.8617 -0.8334
  187SAPI  H12X21553   1.261   1.900   7.783 -0.2311  0.8706  0.4304
  187SAPI  H12Y21554   1.375   2.035   7.796  0.3978  0.8798 -0.0387
  187SAPI  C31321555   1.398   1.867   7.939  0.2994  0.2425  0.0737
  187SAPI  H13X21556   1.500   1.873   7.984  0.4377 -0.9244 -0.0337
  187SAPI  H13Y21557   1.359   1.763   7.943 -0.6288  0.5044 -1.4204
  187SAPI  C31421558   1.320   1.956   8.043 -0.4237 -0.4165  0.2634
  187SAPI  H14X21559   1.211   1.956   8.024 -0.3914  2.5908 -0.4324
  187SAPI  H14Y21560   1.362   2.059   8.045  0.1057 -0.5859 -1.0903
  187SAPI  C31521561   1.327   1.886   8.186 -0.5064  0.0176  0.3258
  187SAPI  H15X21562   1.428   1.876   8.232  0.7922 -0.0589 -2.3640
  187SAPI  H15Y21563   1.302   1.780   8.164  1.3562 -0.0849 -1.6126
  187SAPI  C31621564   1.222   1.948   8.280 -0.0130 -0.4824 -0.7213
  187SAPI  H16X21565   1.205   1.882   8.367 -0.7793 -0.6772 -1.0107
  187SAPI  H16Y21566   1.124   1.932   8.229 -1.0043 -1.2532  1.3091
  187SAPI  C31721567   1.242   2.093   8.322 -0.0229  0.5746  0.0508
  187SAPI  H17X21568   1.162   2.125   8.393  2.2651  2.7910  1.8306
  187SAPI  H17Y21569   1.245   2.155   8.230  0.0673  0.8489  0.2373
  187SAPI  C31821570   1.380   2.110   8.392  0.2826 -0.0344  0.1426
  187SAPI  H18X21571   1.466   2.070   8.335  0.5437  1.3833 -0.4987
  187SAPI  H18Y21572   1.379   2.060   8.492  1.6182  0.0517  0.2182
  187SAPI  H18Z21573   1.411   2.211   8.426  4.1049 -1.4504  1.4402
  188SAPI   C1221574   3.294   3.650   6.268  0.1665 -0.4954 -0.1227
  188SAPI    H221575   3.285   3.747   6.215  1.3211 -0.5626 -0.4753
  188SAPI    O221576   3.175   3.569   6.251  0.0430  0.0538  0.4033
  188SAPI   HO221577   3.102   3.624   6.281  0.0617 -0.3566  1.2211
  188SAPI   C1321578   3.408   3.574   6.211  0.5239 -0.3115 -0.3098
  188SAPI    H321579   3.502   3.632   6.224  1.3371 -1.6943  0.1120
  188SAPI    O321580   3.389   3.550   6.068 -0.9400 -0.6258 -0.9087
  188SAPI   HO321581   3.306   3.501   6.061  0.5863 -3.3391 -1.4554
  188SAPI   C1421582   3.435   3.448   6.286  0.0102 -0.1437  0.1751
  188SAPI    H421583   3.341   3.389   6.294 -1.4397  2.3020  4.9790
  188SAPI    O421584   3.538   3.364   6.229 -0.3644 -0.2094  0.3676
  188SAPI   HO421585   3.622   3.400   6.258 -0.0947 -1.9317  1.8620
  188SAPI   C1521586   3.459   3.480   6.435 -0.4984 -0.0315 -0.6119
  188SAPI    H521587   3.555   3.535   6.434 -0.8015  0.5177 -1.6073
  188SAPI    O521588   3.483   3.356   6.508 -0.3635 -0.0924 -0.4153
  188SAPI   HO521589   3.402   3.307   6.519  0.0356 -0.7547 -0.3528
  188SAPI   C1621590   3.346   3.558   6.496 -0.1148 -0.5798  0.0967
  188SAPI    H621591   3.252   3.501   6.508  0.6213 -1.4358  2.1396
  188SAPI    O621592   3.383   3.594   6.628 -0.7967 -0.2940 -0.4885
  188SAPI   HO621593   3.376   3.688   6.642  1.7641 -0.0439 -0.2948
  188SAPI   C1121594   3.327   3.683   6.413  0.5703  0.9288  0.0116
  188SAPI    H121595   3.421   3.740   6.400 -0.1188  1.7580 -1.6224
  188SAPI     P21596   3.258   3.907   6.523 -0.2939  0.1312 -0.1029
  188SAPI   O1321597   3.295   3.994   6.411 -0.3565  0.1416  0.2926
  188SAPI   O1421598   3.362   3.880   6.622  0.0676  0.0038 -0.0929
  188SAPI   O1221599   3.218   3.761   6.459 -0.2527  0.3185  0.1621
  188SAPI   O1121600   3.125   3.960   6.584  0.0838  0.0417  0.1594
  188SAPI    C121601   3.027   3.879   6.657  0.0215 -0.2117  0.0316
  188SAPI    HA21602   2.928   3.926   6.641  0.1441 -0.2086 -0.7592
  188SAPI    HB21603   3.033   3.770   6.638  0.3808 -0.2131  0.1279
  188SAPI    C221604   3.055   3.888   6.810  0.0902  0.7005 -0.8780
  188SAPI    HS21605   3.057   3.996   6.834 -1.1386 -0.0333  3.1815
  188SAPI   O2121606   3.176   3.818   6.842  0.4452 -0.3414 -0.1679
  188SAPI   C2121607   3.242   3.859   6.954  0.2453  0.7279  0.1465
  188SAPI   O2221608   3.203   3.950   7.025 -0.3231 -0.3222 -0.6696
  188SAPI   C2221609   3.363   3.774   6.984 -0.8701 -0.1440  0.6384
  188SAPI   H2R21610   3.424   3.783   6.892 -1.6019  1.0367  0.2496
  188SAPI   H2S21611   3.409   3.820   7.074  2.9636 -1.3882 -0.4865
  188SAPI    C321612   2.928   3.832   6.889  0.5270  0.0951  0.0368
  188SAPI    HX21613   2.946   3.722   6.889 -1.5561 -0.2725  0.3985
  188SAPI    HY21614   2.834   3.847   6.833  0.8177  1.1778 -0.1890
  188SAPI   O3121615   2.922   3.858   7.030  0.4941 -0.5797  0.2257
  188SAPI   C3121616   2.887   3.987   7.054  0.4729 -0.1503 -0.6418
  188SAPI   O3221617   2.868   4.076   6.971 -0.2961  0.8535 -0.1538
  188SAPI   C3221618   2.887   4.012   7.200  0.3907  0.0620 -0.5525
  188SAPI   H2X21619   2.890   3.914   7.252  2.2711  0.1640 -0.3814
  188SAPI   H2Y21620   2.802   4.079   7.226  0.4074  0.3182 -1.1388
  188SAPI   C2321621   3.338   3.626   7.006  0.9932  0.1022 -0.2423
  188SAPI   H3R21622   3.445   3.595   7.012  1.0971  0.6080  0.5971
  188SAPI   H3S21623   3.294   3.572   6.920 -1.1959 -0.1863  0.9819
  188SAPI   C2421624   3.244   3.594   7.127 -0.2648  0.1418 -0.5268
  188SAPI   H4R21625   3.137   3.609   7.103 -0.9727 -1.0430  1.6501
  188SAPI   H4S21626   3.267   3.662   7.211  0.2559  1.3437 -1.6053
  188SAPI   C2521627   3.263   3.449   7.166 -0.3876 -0.1772  0.2219
  188SAPI   H5R21628   3.280   3.380   7.082 -0.6655 -0.4666  0.4002
  188SAPI   C2621629   3.277   3.394   7.288  0.2216  0.5571 -0.1658
  188SAPI   H6R21630   3.290   3.284   7.286 -1.8566  0.2826 -0.8160
  188SAPI   C2721631   3.280   3.451   7.423 -0.8370 -0.6367  0.2756
  188SAPI   H7R21632   3.303   3.369   7.494 -1.9943 -0.1545  1.2446
  188SAPI   H7S21633   3.177   3.477   7.457 -0.1727  0.0021  1.9217
  188SAPI   C2821634   3.364   3.575   7.452 -0.3544 -0.2613 -0.4597
  188SAPI   H8R21635   3.366   3.653   7.374 -3.2489  0.2868 -0.0980
  188SAPI   C2921636   3.442   3.596   7.561 -0.4004 -0.0400 -0.8897
  188SAPI   H9R21637   3.499   3.688   7.582  0.2789 -1.1720  3.0663
  188SAPI  C21021638   3.459   3.501   7.675 -0.6673  0.1424 -0.1519
  188SAPI  H10R21639   3.553   3.521   7.731 -0.3668 -1.1836 -0.1483
  188SAPI  H10S21640   3.492   3.400   7.644  1.7649  1.1486 -1.0867
  188SAPI  C21121641   3.346   3.490   7.773  0.1061  0.6139 -0.9719
  188SAPI  H11R21642   3.248   3.489   7.722 -0.7082  0.4971  0.5255
  188SAPI  C21221643   3.340   3.463   7.902  0.0477 -0.5488 -0.2860
  188SAPI  H12R21644   3.246   3.476   7.959  0.8648 -0.3585  1.0676
  188SAPI  C21321645   3.469   3.434   7.979 -0.1472  0.0126 -0.1108
  188SAPI  H13R21646   3.489   3.531   8.030 -0.9863  0.0078  0.2286
  188SAPI  H13S21647   3.563   3.424   7.920  0.5690  2.8429  0.3826
  188SAPI  C21421648   3.443   3.318   8.070  0.8239  1.0473 -0.2615
  188SAPI  H14R21649   3.482   3.223   8.030  0.6235  1.1380 -0.6774
  188SAPI  C21521650   3.381   3.318   8.188 -0.5048  0.8024  0.2226
  188SAPI  H15R21651   3.362   3.222   8.237  0.3489  0.4134 -0.1783
  188SAPI  C21621652   3.329   3.440   8.251  0.2156 -0.8391  0.1233
  188SAPI  H16R21653   3.231   3.481   8.217 -0.6958 -1.5794  1.7534
  188SAPI  H16S21654   3.395   3.530   8.253 -0.1611 -0.5530  2.1990
  188SAPI  C21721655   3.299   3.402   8.400  0.2164  0.2728  0.2425
  188SAPI  H17R21656   3.226   3.319   8.400  0.2032  0.2815 -0.1375
  188SAPI  H17S21657   3.250   3.488   8.450  0.0563 -0.7830  1.9771
  188SAPI  C21821658   3.422   3.363   8.478  0.0941  0.2991 -0.3823
  188SAPI  H18R21659   3.507   3.422   8.439  0.7466 -1.7882 -2.3511
  188SAPI  H18S21660   3.447   3.255   8.463 -3.0049 -0.7060  0.8044
  188SAPI  C21921661   3.406   3.386   8.627  0.7693  0.7480  1.0823
  188SAPI  H19R21662   3.316   3.340   8.673  1.2417 -0.5816  0.7232
  188SAPI  H19S21663   3.401   3.495   8.645  0.3092  1.1561 -1.2245
  188SAPI  C22021664   3.526   3.340   8.714 -0.8437  0.3523 -0.0379
  188SAPI  H20R21665   3.563   3.236   8.700 -0.5713 -0.0386  2.9379
  188SAPI  H20S21666   3.500   3.366   8.819 -0.6357 -3.3170  1.0526
  188SAPI  H20T21667   3.603   3.411   8.676  0.2821 -0.3400  0.8961
  188SAPI   C3321668   3.010   4.103   7.232 -0.0548  0.1044 -0.7610
  188SAPI   H3X21669   2.988   4.211   7.220 -3.6187 -0.4342 -0.1696
  188SAPI   H3Y21670   3.102   4.071   7.179  0.9298  1.5067  0.0239
  188SAPI   C3421671   3.033   4.082   7.386 -0.2956  0.3597  0.3394
  188SAPI   H4X21672   3.123   4.142   7.409 -0.1033  0.2486 -0.1062
  188SAPI   H4Y21673   3.056   3.974   7.400 -0.2719  0.2845 -0.2495
  188SAPI   C3521674   2.917   4.132   7.480 -0.4407  0.0665 -0.5388
  188SAPI   H5X21675   2.844   4.052   7.505  0.3729 -0.8238 -0.9075
  188SAPI   H5Y21676   2.862   4.213   7.428 -3.1802 -1.2300  0.1293
  188SAPI   C3621677   2.976   4.186   7.614  0.4734  0.0142  0.1847
  188SAPI   H6X21678   2.889   4.187   7.684  1.8201  0.4281  1.9267
  188SAPI   H6Y21679   3.023   4.286   7.602  1.4649 -0.3489  0.9766
  188SAPI   C3721680   3.074   4.091   7.687 -0.3964 -0.2841 -0.1007
  188SAPI   H7X21681   3.171   4.115   7.639  0.2497 -0.5604  1.0304
  188SAPI   H7Y21682   3.053   3.982   7.685 -1.1686 -0.1424 -1.8724
  188SAPI   C3821683   3.091   4.126   7.834 -0.0496  0.7958 -0.5203
  188SAPI   H8X21684   3.091   4.237   7.843 -1.5467  0.8656 -1.0991
  188SAPI   H8Y21685   3.186   4.088   7.877 -0.6321 -0.7297 -0.5018
  188SAPI   C3921686   2.979   4.078   7.924  0.0877 -0.5370  0.3684
  188SAPI   H9X21687   2.993   3.968   7.931 -1.2283 -0.5922  3.8251
  188SAPI   H9Y21688   2.884   4.090   7.868  1.3479  0.9452 -1.6297
  188SAPI  C31021689   2.970   4.144   8.064  0.0217  0.1507 -0.5555
  188SAPI  H10X21690   2.989   4.254   8.058  1.2423  0.0381  0.8446
  188SAPI  H10Y21691   3.047   4.097   8.128  0.9862  2.1176 -0.1709
  188SAPI  C31121692   2.830   4.120   8.123 -0.6190 -0.1197  0.1735
  188SAPI  H11X21693   2.809   4.011   8.126 -0.4226 -0.1451  0.8229
  188SAPI  H11Y21694   2.753   4.164   8.056 -1.5244  0.6590  1.6598
  188SAPI  C31221695   2.823   4.168   8.267 -0.2062 -0.2184 -0.1545
  188SAPI  H12X21696   2.738   4.106   8.306  1.0581 -1.7049  0.3546
  188SAPI  H12Y21697   2.821   4.279   8.271 -0.5832 -0.2191 -0.3179
  188SAPI  C31321698   2.942   4.142   8.361  0.9462  0.1896  0.6121
  188SAPI  H13X21699   3.033   4.192   8.321  0.5912  2.3417  2.2816
  188SAPI  H13Y21700   2.948   4.032   8.346 -2.8348  0.0189 -0.7644
  188SAPI  C31421701   2.916   4.175   8.504  0.2814 -0.1426 -0.2745
  188SAPI  H14X21702   2.993   4.132   8.572 -2.0583 -2.6847  0.9629
  188SAPI  H14Y21703   2.821   4.133   8.542  0.0446  1.9207  1.6258
  188SAPI  C31521704   2.910   4.326   8.534 -0.3236  0.1693  0.3588
  188SAPI  H15X21705   2.821   4.362   8.478 -0.6946 -1.7090 -0.3526
  188SAPI  H15Y21706   3.006   4.365   8.495 -1.0406  2.5939  0.8758
  188SAPI  C31621707   2.895   4.355   8.678  0.1891  0.2140  0.7089
  188SAPI  H16X21708   2.982   4.308   8.727  0.2184 -2.3151 -1.5531
  188SAPI  H16Y21709   2.806   4.300   8.717  1.7938 -2.7836  0.4299
  188SAPI  C31721710   2.888   4.505   8.716 -1.4688 -0.1004  0.2237
  188SAPI  H17X21711   2.960   4.571   8.664 -0.7064  0.1729  1.5693
  188SAPI  H17Y21712   2.909   4.516   8.825  0.0350  0.0305 -0.0612
  188SAPI  C31821713   2.754   4.571   8.680  0.3007  0.7461  0.1564
  188SAPI  H18X21714   2.685   4.559   8.766  1.2182  0.8430  0.9218
  188SAPI  H18Y21715   2.710   4.533   8.586  0.3981  1.2652 -0.1040
  188SAPI  H18Z21716   2.761   4.679   8.656  2.0908  0.6160 -0.0777
  189POPC     N21717   3.766   5.314  11.194  0.5287  0.1307 -0.1892
  189POPC   C1221718   3.780   5.346  11.044  0.0176  0.4310  0.4548
  189POPC  H12A21719   3.791   5.254  10.988  0.1017  2.3322 -2.8693
  189POPC  H12B21720   3.872   5.402  11.040 -0.5769  1.3520 -0.8447
  189POPC   C1321721   3.755   5.435  11.279  0.2815  0.3501  0.3015
  189POPC  H13A21722   3.846   5.492  11.267  0.6312  0.4293  2.7809
  189POPC  H13B21723   3.676   5.494  11.235 -0.3771 -0.1407  0.8055
  189POPC  H13C21724   3.736   5.414  11.383 -0.1701 -1.3537 -0.0898
  189POPC   C1421725   3.643   5.230  11.221 -0.3237 -0.2582  0.0527
  189POPC  H14A21726   3.641   5.142  11.157  1.1542 -0.5058  0.3165
  189POPC  H14B21727   3.626   5.195  11.321 -0.7624 -0.6177 -0.1435
  189POPC  H14C21728   3.556   5.291  11.198  1.3771  1.5500 -2.1210
  189POPC   C1521729   3.886   5.229  11.223  0.1595  0.0890 -0.4983
  189POPC  H15A21730   3.887   5.230  11.331 -1.4021 -1.0289 -0.4432
  189POPC  H15B21731   3.972   5.279  11.180  1.1738 -2.2106 -1.3056
  189POPC  H15C21732   3.868   5.128  11.190  1.8160 -0.8129  1.1500
  189POPC   C1121733   3.668   5.422  10.978 -0.0718 -0.0321 -0.5374
  189POPC  H11A21734   3.577   5.358  10.976  0.3151 -0.5833 -0.6902
  189POPC  H11B21735   3.698   5.431  10.871 -2.5601 -1.1953 -1.4054
  189POPC     P21736   3.685   5.685  10.994  0.0534  0.0451  0.2122
  189POPC   O1321737   3.831   5.696  11.006 -0.2971 -0.7724  0.0705
  189POPC   O1421738   3.597   5.785  11.066 -0.4514 -0.0068 -0.0218
  189POPC   O1221739   3.638   5.542  11.038  0.6635  0.2598 -0.0307
  189POPC   O1121740   3.640   5.684  10.844 -0.2311  0.7367 -0.0677
  189POPC    C121741   3.500   5.690  10.809 -0.2015 -0.5018 -0.3797
  189POPC    HA21742   3.461   5.792  10.827  0.7277 -0.3578  0.9825
  189POPC    HB21743   3.443   5.629  10.883 -1.6296  0.0680 -0.9767
  189POPC    C221744   3.470   5.631  10.672 -0.7079  0.0632 -0.4139
  189POPC    HS21745   3.479   5.521  10.682  1.5137  0.2827  0.5295
  189POPC   O2121746   3.566   5.697  10.582  0.2905  0.2664  0.0333
  189POPC   C2121747   3.665   5.621  10.542 -0.4521  0.6120 -0.3768
  189POPC   O2221748   3.685   5.505  10.577  0.6538 -0.4314 -0.4337
  189POPC   C2221749   3.765   5.709  10.467 -0.1801  0.6791  0.5640
  189POPC   H2R21750   3.762   5.816  10.496 -1.0372  0.7990  0.0564
  189POPC   H2S21751   3.716   5.716  10.368 -0.7920 -1.0120  0.7111
  189POPC    C321752   3.320   5.656  10.628 -0.0370 -0.3220  0.5705
  189POPC    HX21753   3.310   5.766  10.619 -0.6326 -0.3757  0.5085
  189POPC    HY21754   3.267   5.608  10.714  1.7460 -3.5065  0.0497
  189POPC   O3121755   3.293   5.577  10.505  0.0819 -0.2784 -0.2961
  189POPC   C3121756   3.168   5.607  10.470  0.4014  0.2202  0.0235
  189POPC   O3221757   3.093   5.680  10.531  0.5205  0.0493 -0.7679
  189POPC   C3221758   3.126   5.539  10.339  0.6442 -0.0568 -0.6069
  189POPC   H2X21759   3.025   5.497  10.359  0.1956  1.7608  1.3294
  189POPC   H2Y21760   3.180   5.442  10.332  0.1337 -0.6156  2.0182
  189POPC   C2321761   3.913   5.648  10.448  0.3984  0.6631 -0.2493
  189POPC   H3R21762   3.909   5.538  10.458  0.3701  0.7337  0.6136
  189POPC   H3S21763   3.975   5.681  10.535 -1.1320  2.6127  0.1756
  189POPC   C2421764   3.981   5.693  10.315  0.2543  0.4590 -0.7180
  189POPC   H4R21765   4.085   5.657  10.326  0.3504  0.5430 -1.3545
  189POPC   H4S21766   3.981   5.804  10.305  0.6347  0.7196  1.4810
  189POPC   C2521767   3.917   5.623  10.197 -0.6153 -0.0121  0.6881
  189POPC   H5R21768   3.967   5.664  10.107 -0.9157  0.8180  0.8875
  189POPC   H5S21769   3.815   5.664  10.183 -0.5968 -0.2982 -0.3586
  189POPC   C2621770   3.912   5.467  10.203 -0.5177  0.1609  0.0968
  189POPC   H6R21771   3.828   5.429  10.265 -2.8623  2.0778 -1.7021
  189POPC   H6S21772   4.001   5.432  10.258 -0.6574  1.4440  1.1897
  189POPC   C2721773   3.902   5.404  10.066  0.1357 -0.5187  0.1153
  189POPC   H7R21774   3.808   5.444  10.022  0.9982  0.5101 -0.8564
  189POPC   H7S21775   3.898   5.293  10.070  1.3043 -0.6650 -1.5866
  189POPC   C2821776   4.008   5.440   9.951 -0.1349  0.8409 -0.3569
  189POPC   H8R21777   4.104   5.403   9.993 -0.9620  0.3001  1.1395
  189POPC   H8S21778   4.023   5.549   9.936 -0.7611  0.9227 -0.4227
  189POPC   C2921779   3.983   5.372   9.819 -0.2641 -0.7369 -0.1051
  189POPC   H9121780   4.027   5.272   9.808  1.4800 -0.2562  1.8073
  189POPC  C21021781   3.913   5.425   9.719  0.8478 -0.1998  0.6870
  189POPC  H10121782   3.914   5.370   9.623 -0.6109 -0.1152  0.6056
  189POPC  C21121783   3.855   5.565   9.705 -0.4799  0.5768  0.3402
  189POPC  H11R21784   3.896   5.625   9.789  0.2829  0.3333  0.1547
  189POPC  H11S21785   3.746   5.554   9.720 -0.2680 -1.9026  0.4624
  189POPC  C21221786   3.898   5.648   9.579 -0.1524 -0.2442 -0.4482
  189POPC  H12R21787   4.008   5.661   9.568 -0.3256  1.0280 -0.8007
  189POPC  H12S21788   3.868   5.753   9.595  2.4201  0.6862 -1.3423
  189POPC  C21321789   3.832   5.608   9.444 -0.2477 -0.6708 -0.3093
  189POPC  H13R21790   3.725   5.580   9.457 -0.3644 -1.0029 -1.8500
  189POPC  H13S21791   3.878   5.512   9.416 -1.2676 -1.0423 -0.7660
  189POPC  C21421792   3.825   5.726   9.345  0.7850  0.0819  0.0574
  189POPC  H14R21793   3.920   5.778   9.320  0.6483  0.4379  0.2706
  189POPC  H14S21794   3.756   5.804   9.384  0.5962  0.4305 -0.9464
  189POPC  C21521795   3.771   5.669   9.213  0.5966  0.3584 -0.4191
  189POPC  H15R21796   3.667   5.635   9.235  1.3634 -2.1034 -0.3448
  189POPC  H15S21797   3.846   5.589   9.201  0.3201 -0.5312  2.8837
  189POPC  C21621798   3.778   5.762   9.100  0.1931  0.1072  0.1676
  189POPC  H16R21799   3.881   5.797   9.079  0.6297  0.9329  3.2398
  189POPC  H16S21800   3.705   5.846   9.105 -0.3207 -0.2920 -0.3193
  189POPC  C21721801   3.734   5.698   8.961  0.2986  0.3300  0.0240
  189POPC  H17R21802   3.639   5.641   8.964 -1.0713  2.0433 -3.9424
  189POPC  H17S21803   3.817   5.626   8.943 -0.3730 -0.5828  0.5087
  189POPC  C21821804   3.733   5.800   8.841  0.6546  0.0330 -0.1475
  189POPC  H18R21805   3.652   5.875   8.858  0.4724 -0.0545 -0.6226
  189POPC  H18S21806   3.706   5.753   8.744  3.6071 -1.2045 -0.4772
  189POPC  H18T21807   3.830   5.853   8.830  0.4124  0.3216 -0.9449
  189POPC   C3321808   3.113   5.631  10.209 -0.5368  0.4471  0.4540
  189POPC   H3X21809   3.189   5.712  10.211 -0.9443  0.9557 -1.5663
  189POPC   H3Y21810   3.014   5.682  10.201 -1.7370 -1.8593 -0.8488
  189POPC   C3421811   3.129   5.542  10.084  0.5833  0.0682  1.2114
  189POPC   H4X21812   3.083   5.441  10.091  0.6006 -0.1640 -1.1256
  189POPC   H4Y21813   3.235   5.508  10.084  0.5059 -0.1795  0.7374
  189POPC   C3521814   3.093   5.603   9.946 -0.2251  0.1670 -0.1213
  189POPC   H5X21815   3.136   5.705   9.957 -1.5432  0.9132 -1.5146
  189POPC   H5Y21816   2.983   5.612   9.941 -0.2327  1.9513  1.6170
  189POPC   C3621817   3.143   5.520   9.830 -0.0150  0.4036  0.1744
  189POPC   H6X21818   3.086   5.425   9.819 -2.0986  1.7751 -1.8324
  189POPC   H6Y21819   3.253   5.505   9.824 -0.1011 -1.4745  1.9737
  189POPC   C3721820   3.104   5.586   9.697 -0.2612 -0.8721 -0.3041
  189POPC   H7X21821   3.166   5.676   9.678 -0.3405 -0.3946  1.5261
  189POPC   H7Y21822   2.994   5.602   9.689  0.2110  1.8384 -3.2880
  189POPC   C3821823   3.139   5.509   9.566  0.4616  0.3625 -0.1957
  189POPC   H8X21824   3.074   5.419   9.572  1.5810 -0.3758  2.8001
  189POPC   H8Y21825   3.243   5.469   9.569  0.3490 -0.0810 -1.4603
  189POPC   C3921826   3.128   5.590   9.433  0.1282  0.1305 -0.7053
  189POPC   H9X21827   3.195   5.679   9.437 -2.1417  1.9184 -0.3137
  189POPC   H9Y21828   3.024   5.623   9.415 -0.1414 -1.3840 -2.1430
  189POPC  C31021829   3.169   5.505   9.312  0.3724  1.1147 -0.0015
  189POPC  H10X21830   3.090   5.427   9.308  1.6700 -0.3810  1.4357
  189POPC  H10Y21831   3.270   5.458   9.320 -0.4975 -0.6444  1.3767
  189POPC  C31121832   3.171   5.588   9.179  0.1370  0.4786  0.1731
  189POPC  H11X21833   3.247   5.666   9.198  1.0877 -0.5931  0.9115
  189POPC  H11Y21834   3.081   5.649   9.157 -0.5697 -0.2687  0.9220
  189POPC  C31221835   3.196   5.506   9.058  0.0082  0.4759  0.3479
  189POPC  H12X21836   3.143   5.408   9.053  2.3780 -1.0357  2.6528
  189POPC  H12Y21837   3.301   5.471   9.066 -0.0221  0.6918  1.8638
  189POPC  C31321838   3.180   5.589   8.927 -0.2386 -0.2366  0.4611
  189POPC  H13X21839   3.083   5.644   8.933 -1.1402 -1.6241 -0.6120
  189POPC  H13Y21840   3.167   5.520   8.841 -1.6870 -0.4939  0.8568
  189POPC  C31421841   3.291   5.689   8.895 -0.1040  0.1172  0.2902
  189POPC  H14X21842   3.381   5.626   8.881 -0.8061 -0.8611  0.0536
  189POPC  H14Y21843   3.334   5.739   8.985  1.9271  0.8054 -1.0066
  189POPC  C31521844   3.254   5.797   8.789  0.0327 -0.1307  1.3675
  189POPC  H15X21845   3.198   5.738   8.712  0.2921  0.2951  0.8485
  189POPC  H15Y21846   3.351   5.828   8.746 -0.4814 -1.5487 -1.0120
  189POPC  C31621847   3.166   5.909   8.845 -0.9230 -0.8578 -0.1489
  189POPC  H16X21848   3.229   5.973   8.910 -0.0987 -1.2611 -0.5412
  189POPC  H16Y21849   3.071   5.880   8.894 -0.7753 -0.3185  0.4626
  189POPC  H16Z21850   3.138   5.974   8.759  0.3052 -1.5310 -1.0923
  190POPC     N21851   4.404   1.149  11.215 -0.3554  0.5610 -0.3991
  190POPC   C1221852   4.464   1.087  11.087 -0.6030 -0.1773 -0.0294
  190POPC  H12A21853   4.449   1.158  11.007 -2.8861  1.6594  1.8881
  190POPC  H12B21854   4.412   0.994  11.074 -1.8370  0.6950 -1.7425
  190POPC   C1321855   4.458   1.284  11.232 -0.6617 -0.0512  0.0435
  190POPC  H13A21856   4.453   1.336  11.138  1.4236 -3.0248 -1.9097
  190POPC  H13B21857   4.416   1.338  11.316  2.1894 -0.3438  1.8013
  190POPC  H13C21858   4.565   1.280  11.249 -0.7765 -2.4505  0.5865
  190POPC   C1421859   4.256   1.160  11.206  0.0239  0.2326  0.3615
  190POPC  H14A21860   4.210   1.216  11.126 -0.9441 -0.4164  0.4534
  190POPC  H14B21861   4.208   1.064  11.217  0.2196  0.0975  0.0488
  190POPC  H14C21862   4.234   1.221  11.292  2.7320 -0.6387  1.7887
  190POPC   C1521863   4.433   1.066  11.337  0.0186 -0.1777  0.9957
  190POPC  H15A21864   4.362   1.091  11.415 -1.9830  1.3763 -1.1790
  190POPC  H15B21865   4.532   1.088  11.373 -0.4814  0.9798  1.7076
  190POPC  H15C21866   4.422   0.961  11.311 -0.8883  0.0871  0.2632
  190POPC   C1121867   4.612   1.065  11.078  0.1011 -0.6421  0.3860
  190POPC  H11A21868   4.627   1.037  10.972 -0.1855 -1.8649  0.6584
  190POPC  H11B21869   4.638   0.971  11.130 -2.5245  0.0737  3.2706
  190POPC     P21870   4.827   1.169  11.178 -0.2550  0.3885 -0.0178
  190POPC   O1321871   4.819   1.093  11.304 -0.5692 -0.2739 -0.1641
  190POPC   O1421872   4.887   1.305  11.189  0.4934  0.4804 -0.1366
  190POPC   O1221873   4.684   1.177  11.112 -0.7640  0.2692 -0.3850
  190POPC   O1121874   4.916   1.083  11.072 -0.2913  0.2760  0.1088
  190POPC    C121875   5.028   1.151  11.005  0.1323  0.4498 -0.1278
  190POPC    HA21876   5.092   1.078  10.952  0.4906  0.6953 -0.0317
  190POPC    HB21877   5.090   1.198  11.084 -1.9096  1.4351  1.0025
  190POPC    C221878   4.985   1.251  10.893  0.2322 -0.0808 -0.2953
  190POPC    HS21879   4.916   1.328  10.935  1.8153  1.2810 -0.1040
  190POPC   O2121880   4.923   1.185  10.788  0.0855  0.6052  0.2660
  190POPC   C2121881   4.825   1.246  10.728 -0.1757 -0.4430 -0.1123
  190POPC   O2221882   4.789   1.361  10.750 -0.0228  0.4244 -0.0147
  190POPC   C2221883   4.733   1.144  10.662 -0.7968 -0.3253  0.4979
  190POPC   H2R21884   4.702   1.074  10.742  0.5275 -0.8594  0.5636
  190POPC   H2S21885   4.789   1.081  10.589 -2.1532 -1.1684  0.1516
  190POPC    C321886   5.106   1.332  10.831 -0.4103  0.3679 -0.5787
  190POPC    HX21887   5.170   1.250  10.791 -1.0827 -0.7729  0.6149
  190POPC    HY21888   5.178   1.376  10.902  0.8839  1.4754 -2.5110
  190POPC   O3121889   5.076   1.428  10.733 -0.1216  0.0577 -0.2141
  190POPC   C3121890   5.045   1.547  10.789  0.2632 -0.2605  0.6289
  190POPC   O3221891   5.073   1.577  10.904  0.6220 -0.0166  0.1448
  190POPC   C3221892   4.970   1.629  10.690  0.0505 -0.2836 -0.5344
  190POPC   H2X21893   4.975   1.730  10.735 -1.6203  0.4206 -1.8576
  190POPC   H2Y21894   4.863   1.598  10.698 -0.4708  1.7518  1.1597
  190POPC   C2321895   4.618   1.217  10.584 -1.0808 -0.0863 -0.3665
  190POPC   H3R21896   4.563   1.287  10.651  0.3790  0.4378  0.3353
  190POPC   H3S21897   4.551   1.142  10.538 -1.9530  0.9226 -0.7891
  190POPC   C2421898   4.657   1.296  10.459  0.6702 -0.0838 -0.5552
  190POPC   H4R21899   4.710   1.234  10.384 -0.6695 -0.8742 -0.8909
  190POPC   H4S21900   4.722   1.382  10.485  0.0212  0.0395  0.8004
  190POPC   C2521901   4.543   1.368  10.378 -0.6431  0.4505  0.2090
  190POPC   H5R21902   4.476   1.429  10.442 -0.4056  2.3637 -1.2700
  190POPC   H5S21903   4.472   1.308  10.316 -2.4298  1.3742  1.2864
  190POPC   C2621904   4.610   1.461  10.280  0.5099 -0.0265 -0.2478
  190POPC   H6R21905   4.701   1.412  10.238  0.8576 -0.9046  1.4368
  190POPC   H6S21906   4.663   1.544  10.332  0.8089 -1.7274  2.3677
  190POPC   C2721907   4.519   1.517  10.165  0.0104  0.4806 -0.1845
  190POPC   H7R21908   4.449   1.594  10.205 -1.0222 -0.1049 -0.8134
  190POPC   H7S21909   4.451   1.434  10.136 -1.5472  0.8675  2.0392
  190POPC   C2821910   4.598   1.599  10.050  1.1822  0.9053 -0.6241
  190POPC   H8R21911   4.649   1.676  10.112  0.3795  0.0728  1.1758
  190POPC   H8S21912   4.524   1.647   9.983  0.7446  1.5824  0.3118
  190POPC   C2921913   4.690   1.507   9.980 -0.7330 -0.4569  0.8169
  190POPC   H9121914   4.708   1.409  10.027  1.3886 -0.2154  0.5768
  190POPC  C21021915   4.738   1.535   9.850 -0.1601  0.5222  0.0126
  190POPC  H10121916   4.808   1.461   9.809  0.5359  0.4401  1.2987
  190POPC  C21121917   4.714   1.654   9.759 -0.2415  0.3275 -0.5493
  190POPC  H11R21918   4.639   1.722   9.803  0.7038  1.2516 -0.3239
  190POPC  H11S21919   4.681   1.617   9.660  1.9970  2.1112 -2.0614
  190POPC  C21221920   4.848   1.727   9.737  0.4508  0.0903  1.1950
  190POPC  H12R21921   4.938   1.677   9.779  0.7023 -0.0894  0.4439
  190POPC  H12S21922   4.828   1.826   9.783 -1.0086 -0.4997  1.9254
  190POPC  C21321923   4.884   1.745   9.587 -1.0623 -1.1518 -0.3450
  190POPC  H13R21924   4.928   1.653   9.540 -0.2265 -1.9658  1.9087
  190POPC  H13S21925   4.963   1.823   9.583 -4.2365  2.3262  0.4050
  190POPC  C21421926   4.769   1.806   9.508 -0.3708 -0.0660 -0.7653
  190POPC  H14R21927   4.740   1.896   9.566  1.7562 -0.4492  1.0432
  190POPC  H14S21928   4.681   1.739   9.505 -0.0536 -0.7418  2.1767
  190POPC  C21521929   4.813   1.862   9.364  0.1651  0.1346  0.1814
  190POPC  H15R21930   4.865   1.778   9.313 -1.3413 -1.2933  0.8976
  190POPC  H15S21931   4.889   1.941   9.382 -1.3739  1.9561 -0.9920
  190POPC  C21621932   4.692   1.929   9.297  0.6248  0.5992 -0.7066
  190POPC  H16R21933   4.647   2.013   9.354  1.7469  1.5872 -1.2412
  190POPC  H16S21934   4.612   1.852   9.289  0.1583  1.1141 -1.1471
  190POPC  C21721935   4.720   1.982   9.155 -0.3095  0.4272  0.0960
  190POPC  H17R21936   4.725   1.890   9.094  0.2038 -0.9679  2.1440
  190POPC  H17S21937   4.818   2.033   9.157  0.6285 -1.3190  1.7725
  190POPC  C21821938   4.605   2.074   9.098  0.3843  1.3916 -0.7709
  190POPC  H18R21939   4.645   2.137   9.016  0.2089  2.3995 -0.1056
  190POPC  H18S21940   4.572   2.143   9.179 -0.4730  0.5216 -0.3560
  190POPC  H18T21941   4.514   2.028   9.053  0.5368  0.0260  0.2513
  190POPC   C3321942   5.017   1.625  10.544  0.4295  0.2354 -0.5811
  190POPC   H3X21943   4.995   1.522  10.509  2.3929 -0.2879 -0.3782
  190POPC   H3Y21944   5.122   1.657  10.528 -0.2573  1.2500 -4.1612
  190POPC   C3421945   4.929   1.722  10.458 -0.5746  0.0894 -0.0831
  190POPC   H4X21946   4.916   1.819  10.510 -2.1287 -0.6961  1.0847
  190POPC   H4Y21947   4.826   1.681  10.458  0.1230 -1.9546 -2.7151
  190POPC   C3521948   4.985   1.718  10.315  0.5930  0.3628  0.8309
  190POPC   H5X21949   4.973   1.613  10.280  0.3085  1.3459 -2.3620
  190POPC   H5Y21950   5.093   1.742  10.318  0.3853  1.2481  1.5955
  190POPC   C3621951   4.909   1.794  10.203  0.0680 -0.1778  0.0599
  190POPC   H6X21952   4.807   1.820  10.237 -0.0301 -1.1013  0.4896
  190POPC   H6Y21953   4.899   1.741  10.106 -0.9265  0.8160 -0.4006
  190POPC   C3721954   4.978   1.926  10.162  0.6762  0.0257  0.1835
  190POPC   H7X21955   5.081   1.898  10.134  1.2303 -0.6602  2.6744
  190POPC   H7Y21956   4.973   1.997  10.248  0.4127  0.9882 -0.5960
  190POPC   C3821957   4.915   1.986  10.038  0.8775  0.3534  0.0709
  190POPC   H8X21958   4.805   1.984  10.055  0.7224 -1.1012 -0.9362
  190POPC   H8Y21959   4.931   1.942   9.937 -0.4138 -0.8613  0.3588
  190POPC   C3921960   4.943   2.139  10.034  0.1099 -0.4439  0.0699
  190POPC   H9X21961   5.051   2.157  10.017  0.7431 -1.6833  2.4606
  190POPC   H9Y21962   4.922   2.173  10.138  3.5100  0.4229  0.5907
  190POPC  C31021963   4.853   2.209   9.935  0.4582  0.4550  0.6395
  190POPC  H10X21964   4.860   2.320   9.942  1.6079  0.2705  3.7130
  190POPC  H10Y21965   4.747   2.179   9.951  0.6483  0.0687  1.2023
  190POPC  C31121966   4.892   2.177   9.786  0.1732 -0.1391  0.6427
  190POPC  H11X21967   4.848   2.077   9.768 -2.2743  0.3161  3.4059
  190POPC  H11Y21968   5.002   2.183   9.776  0.2926 -1.8152  0.7102
  190POPC  C31221969   4.822   2.279   9.689 -0.2860 -0.4068  0.6259
  190POPC  H12X21970   4.841   2.381   9.729 -2.7826  0.2226  0.3316
  190POPC  H12Y21971   4.713   2.259   9.692  0.0261 -2.2287  1.2155
  190POPC  C31321972   4.875   2.266   9.541 -1.0005 -0.4987 -0.0395
  190POPC  H13X21973   4.906   2.162   9.517 -0.2362 -0.1167 -0.7728
  190POPC  H13Y21974   4.964   2.334   9.539 -0.6824 -0.8875  0.6890
  190POPC  C31421975   4.776   2.304   9.433 -0.1312  0.0618 -0.6350
  190POPC  H14X21976   4.724   2.397   9.464 -3.9501 -0.3548 -4.7766
  190POPC  H14Y21977   4.688   2.237   9.420 -1.0970  0.9664  0.9593
  190POPC  C31521978   4.842   2.321   9.289  0.0774 -0.2402  0.2681
  190POPC  H15X21979   4.888   2.229   9.248 -0.6919 -0.8120  0.6702
  190POPC  H15Y21980   4.927   2.390   9.309 -1.8164  2.3091  0.0416
  190POPC  C31621981   4.757   2.389   9.178  0.5428  0.4732 -0.7250
  190POPC  H16X21982   4.730   2.488   9.220 -0.9393 -0.3087  0.2445
  190POPC  H16Y21983   4.665   2.328   9.164  1.7583 -2.0498  1.4754
  190POPC  H16Z21984   4.807   2.410   9.081  0.1419  0.4704 -0.9377
  191POPC     N21985   5.922   3.122   6.130 -0.6945  0.1679 -0.4503
  191POPC   C1221986   5.771   3.146   6.146 -0.4617  0.5451  0.1790
  191POPC  H12A21987   5.721   3.085   6.072 -1.2489  0.2997  0.8940
  191POPC  H12B21988   5.746   3.251   6.136  0.9362  1.0315  1.4692
  191POPC   C1321989   5.998   3.185   6.246 -0.0789  0.1690 -0.0337
  191POPC  H13A21990   6.104   3.173   6.230  0.0441  0.0954  0.7788
  191POPC  H13B21991   5.986   3.293   6.252  2.4903  0.5043  0.0162
  191POPC  H13C21992   5.967   3.132   6.335  1.4768  0.7977  0.9210
  191POPC   C1421993   5.956   2.976   6.130  0.2293 -0.4495  0.3257
  191POPC  H14A21994   5.906   2.938   6.217 -1.3355  2.2314  0.7054
  191POPC  H14B21995   5.909   2.944   6.038 -0.3862  2.3095 -0.4299
  191POPC  H14C21996   6.062   2.956   6.128  0.4821  0.3125  2.9404
  191POPC   C1521997   5.988   3.172   6.004  0.1394  0.9858 -0.1065
  191POPC  H15A21998   5.974   3.278   5.987 -1.2574  0.8335 -0.0884
  191POPC  H15B21999   5.946   3.123   5.917  1.9281  2.8232 -2.1253
  191POPC  H15C22000   6.092   3.147   6.009 -0.0997 -0.7370 -2.1911
  191POPC   C1122001   5.713   3.103   6.287 -0.7455  0.1664  0.3393
  191POPC  H11A22002   5.609   3.141   6.278 -0.5589  0.2428 -1.9280
  191POPC  H11B22003   5.764   3.161   6.367 -0.1416 -0.4373  0.4048
  191POPC     P22004   5.753   2.883   6.425 -0.3169  0.1217 -0.0123
  191POPC   O1322005   5.858   2.785   6.378 -0.1831 -0.4776 -1.2561
  191POPC   O1422006   5.644   2.828   6.504 -0.1475  0.0002  0.5583
  191POPC   O1222007   5.698   2.957   6.301 -0.2599  0.1386 -0.0001
  191POPC   O1122008   5.826   2.993   6.508 -0.2845  0.6921  0.1068
  191POPC    C122009   5.962   2.982   6.549  0.0330  0.5171  0.2885
  191POPC    HA22010   5.984   3.072   6.611 -3.3166  0.5119  1.6963
  191POPC    HB22011   6.026   2.980   6.458  0.4492 -0.7229  0.5896
  191POPC    C222012   5.986   2.868   6.644 -0.3908  0.7295 -0.4896
  191POPC    HS22013   5.964   2.768   6.598  1.6464 -0.4201  0.8997
  191POPC   O2122014   5.901   2.893   6.763  0.0655  0.5811 -0.1218
  191POPC   C2122015   5.843   2.782   6.820 -0.2091 -0.7603 -0.5016
  191POPC   O2222016   5.847   2.670   6.778 -0.8054  0.4782  0.0369
  191POPC   C2222017   5.773   2.822   6.945 -0.1461  0.3732 -1.2172
  191POPC   H2R22018   5.664   2.805   6.934 -0.3710 -1.2100  2.1700
  191POPC   H2S22019   5.790   2.930   6.967  0.5362 -0.0080  0.2927
  191POPC    C322020   6.133   2.860   6.679  0.0682 -0.0434 -0.3375
  191POPC    HX22021   6.175   2.841   6.578 -2.3113  0.9653 -1.6190
  191POPC    HY22022   6.144   2.774   6.748 -1.1316  0.0216 -0.0434
  191POPC   O3122023   6.176   2.986   6.743  0.4082 -0.0248  0.6379
  191POPC   C3122024   6.303   2.983   6.773  0.2188 -0.3856 -0.3748
  191POPC   O3222025   6.373   2.886   6.770 -0.4687  0.4587  0.1858
  191POPC   C3222026   6.348   3.119   6.827  0.1929  0.2374 -0.0028
  191POPC   H2X22027   6.264   3.191   6.815 -0.2342 -0.5036 -1.7185
  191POPC   H2Y22028   6.419   3.166   6.756  2.4447 -0.7661  1.4309
  191POPC   C2322029   5.821   2.755   7.080  0.9616  0.4586  0.6204
  191POPC   H3R22030   5.791   2.649   7.069 -0.2447  0.6099  2.0867
  191POPC   H3S22031   5.756   2.808   7.153  0.8259 -0.6481  1.3185
  191POPC   C2422032   5.971   2.756   7.112  0.0146  0.0519  0.2621
  191POPC   H4R22033   6.008   2.861   7.104  0.8999 -0.2956 -0.2936
  191POPC   H4S22034   6.014   2.703   7.025 -1.8040  1.0442 -1.3177
  191POPC   C2522035   6.004   2.697   7.242  0.3244  0.0461 -0.0773
  191POPC   H5R22036   6.115   2.704   7.236  0.2787  0.1619 -0.8188
  191POPC   H5S22037   5.968   2.592   7.247 -0.2865  0.2368 -0.3506
  191POPC   C2622038   5.959   2.773   7.370  0.4426 -0.1405  0.0795
  191POPC   H6R22039   5.848   2.774   7.363  0.3667 -1.7035  0.7957
  191POPC   H6S22040   5.996   2.878   7.362 -3.2465  1.6521  3.0545
  191POPC   C2722041   6.005   2.699   7.498  0.0804  0.6564  0.2949
  191POPC   H7R22042   6.116   2.705   7.498  0.0605  2.4387 -1.8336
  191POPC   H7S22043   5.973   2.592   7.496  1.2025  0.3183 -0.7136
  191POPC   C2822044   5.937   2.756   7.624 -0.4766 -0.2930  0.0751
  191POPC   H8R22045   5.973   2.692   7.707 -2.8509 -3.7562 -1.3470
  191POPC   H8S22046   5.831   2.729   7.607 -0.5158  0.4353 -0.9506
  191POPC   C2922047   5.947   2.903   7.645  0.4184 -0.9252 -0.1687
  191POPC   H9122048   5.900   2.965   7.567  0.0160 -2.1680 -0.9404
  191POPC  C21022049   6.012   2.970   7.749 -0.9228 -0.2766  0.8413
  191POPC  H10122050   6.023   3.079   7.739  3.2604 -0.6452 -0.6855
  191POPC  C21122051   6.093   2.894   7.858  0.0485 -0.6358 -0.3630
  191POPC  H11R22052   6.167   2.965   7.900  0.7448  0.1608 -2.7385
  191POPC  H11S22053   6.142   2.800   7.824 -0.3124 -0.7060 -0.7071
  191POPC  C21222054   5.997   2.855   7.970  0.6888  0.2801  0.4009
  191POPC  H12R22055   6.061   2.789   8.032  0.7490 -0.8288 -0.8015
  191POPC  H12S22056   5.906   2.806   7.930  0.4015  1.0129  0.1409
  191POPC  C21322057   5.944   2.968   8.059  0.2919 -0.3936 -0.2111
  191POPC  H13R22058   5.860   3.005   7.997  2.0963 -0.6247 -2.9760
  191POPC  H13S22059   6.020   3.049   8.067 -1.1090  0.9391 -0.1200
  191POPC  C21422060   5.885   2.914   8.190 -0.3084  0.0795  0.5352
  191POPC  H14R22061   5.822   2.825   8.171 -0.0015  0.0241 -0.2929
  191POPC  H14S22062   5.823   3.001   8.221  1.4537  2.1073 -1.2506
  191POPC  C21522063   5.989   2.889   8.297 -0.1175 -0.0604 -0.2851
  191POPC  H15R22064   6.085   2.916   8.248  1.2174 -3.3575  0.2675
  191POPC  H15S22065   5.996   2.780   8.319  1.6670  0.3057  1.2595
  191POPC  C21622066   5.969   2.975   8.418  0.5115 -0.3674 -0.3113
  191POPC  H16R22067   5.877   2.953   8.475  1.6820  1.3676  2.4407
  191POPC  H16S22068   5.963   3.078   8.376  1.3159 -1.0026 -2.1208
  191POPC  C21722069   6.085   2.960   8.521 -0.1002 -0.0485  0.3813
  191POPC  H17R22070   6.181   2.986   8.471  0.5973  0.0355  1.7143
  191POPC  H17S22071   6.089   2.853   8.551 -1.2550 -0.1537  0.2049
  191POPC  C21822072   6.093   3.054   8.642 -0.0092  0.1364 -0.3638
  191POPC  H18R22073   5.992   3.077   8.682 -0.7741 -3.2053 -0.0545
  191POPC  H18S22074   6.134   3.153   8.614  0.8638 -0.1319 -0.0494
  191POPC  H18T22075   6.163   3.017   8.720 -3.6108  0.4359  3.3590
  191POPC   C3322076   6.387   3.117   6.973  0.5212  0.8123 -0.0873
  191POPC   H3X22077   6.428   3.219   6.993 -1.2882  1.6126 -0.2559
  191POPC   H3Y22078   6.474   3.052   6.991  1.6121  2.0793 -0.5911
  191POPC   C3422079   6.280   3.097   7.082  0.3152 -0.6647 -0.1686
  191POPC   H4X22080   6.234   2.999   7.061  0.6719 -1.2711  1.7004
  191POPC   H4Y22081   6.195   3.169   7.092  1.5023  0.5731  1.5803
  191POPC   C3522082   6.343   3.102   7.222 -0.1855  0.4745  0.1048
  191POPC   H5X22083   6.431   3.034   7.230 -0.7586 -0.1591  1.1806
  191POPC   H5Y22084   6.265   3.063   7.291 -0.0000 -1.0448 -0.5021
  191POPC   C3622085   6.374   3.246   7.273 -0.3053 -0.4615 -0.2492
  191POPC   H6X22086   6.297   3.321   7.248  0.2688  0.5920  1.0034
  191POPC   H6Y22087   6.466   3.268   7.215  0.1264 -0.0445  0.5757
  191POPC   C3722088   6.393   3.252   7.424  0.6555  0.0070 -0.1661
  191POPC   H7X22089   6.435   3.346   7.466  0.0846  0.8017 -1.3303
  191POPC   H7Y22090   6.460   3.169   7.452  0.2539 -2.1919 -4.7909
  191POPC   C3822091   6.259   3.249   7.495  0.9739 -0.2756  0.3920
  191POPC   H8X22092   6.199   3.159   7.472 -1.1316  0.6962  1.7670
  191POPC   H8Y22093   6.194   3.331   7.458 -0.0338 -1.3933 -0.3888
  191POPC   C3922094   6.267   3.255   7.648  0.2135 -0.3345 -0.7006
  191POPC   H9X22095   6.174   3.218   7.697  1.4996 -2.0341  0.5397
  191POPC   H9Y22096   6.285   3.361   7.676 -1.3541 -0.4858  1.1469
  191POPC  C31022097   6.382   3.185   7.714 -0.2084  0.3305 -0.2895
  191POPC  H10X22098   6.476   3.242   7.698 -0.1494  0.6818  1.1792
  191POPC  H10Y22099   6.389   3.088   7.660 -0.3349  0.7491 -1.0697
  191POPC  C31122100   6.378   3.177   7.869 -0.2580 -0.5623 -0.1372
  191POPC  H11X22101   6.274   3.151   7.899  0.4095 -0.5206  2.4615
  191POPC  H11Y22102   6.405   3.273   7.919  0.3796 -0.2244 -1.0922
  191POPC  C31222103   6.471   3.068   7.925  0.2214 -0.4638 -0.0637
  191POPC  H12X22104   6.574   3.091   7.891 -0.9900  1.3528 -2.9198
  191POPC  H12Y22105   6.461   2.972   7.870  0.5700  0.1774 -1.2836
  191POPC  C31322106   6.462   3.037   8.075  0.6325 -1.4114  0.1934
  191POPC  H13X22107   6.359   2.999   8.094 -0.3423  1.0748  0.3428
  191POPC  H13Y22108   6.474   3.132   8.132  0.4034 -1.5119  0.4146
  191POPC  C31422109   6.569   2.949   8.129  0.2146 -0.2137  0.3933
  191POPC  H14X22110   6.663   2.976   8.075 -0.8153 -0.5356 -1.6796
  191POPC  H14Y22111   6.541   2.845   8.102  1.2395 -0.1113 -1.2048
  191POPC  C31522112   6.591   2.946   8.282  0.4315  0.4010 -0.1779
  191POPC  H15X22113   6.492   2.936   8.331 -0.0886  0.1199 -1.2537
  191POPC  H15Y22114   6.629   3.042   8.323  0.6065 -0.3093  1.4239
  191POPC  C31622115   6.689   2.837   8.340  0.8620  0.0310 -0.4402
  191POPC  H16X22116   6.678   2.839   8.451 -0.9999 -2.3185 -0.5050
  191POPC  H16Y22117   6.793   2.846   8.304  0.9732 -0.3198 -0.2105
  191POPC  H16Z22118   6.649   2.738   8.310 -0.7657  0.2426  0.8763
  192POPC     N22119   3.310   5.907   6.421 -0.2598  0.1934  0.4237
  192POPC   C1222120   3.280   5.753   6.424 -0.3490  0.3201  1.0677
  192POPC  H12A22121   3.356   5.688   6.382  0.4599  1.9513 -0.1063
  192POPC  H12B22122   3.211   5.729   6.345  1.8376 -2.9791 -0.0572
  192POPC   C1322123   3.400   5.941   6.530 -0.6752  0.2239 -0.1808
  192POPC  H13A22124   3.351   5.910   6.621  0.3576 -0.9398  0.0115
  192POPC  H13B22125   3.491   5.883   6.519 -0.3084  0.9673 -1.2132
  192POPC  H13C22126   3.436   6.042   6.518  1.2894 -0.5270 -1.0500
  192POPC   C1422127   3.374   5.935   6.293  0.1925  0.0628 -0.1250
  192POPC  H14A22128   3.453   5.866   6.266  0.7763  1.3630 -1.9733
  192POPC  H14B22129   3.302   5.924   6.214  0.6818 -1.4558 -0.3906
  192POPC  H14C22130   3.415   6.035   6.286  1.9711 -0.5534  0.7688
  192POPC   C1522131   3.184   6.000   6.433 -0.6826  0.7163  0.6769
  192POPC  H15A22132   3.113   5.985   6.353 -0.0572  1.2056  0.0175
  192POPC  H15B22133   3.212   6.104   6.445 -3.3636  1.4501  1.2692
  192POPC  H15C22134   3.132   5.966   6.521  2.3526  1.0458  2.7666
  192POPC   C1122135   3.222   5.697   6.551 -0.2665  0.7243 -0.7026
  192POPC  H11A22136   3.288   5.721   6.637  0.6074  0.7225 -1.3563
  192POPC  H11B22137   3.205   5.588   6.544  0.6364  0.5633 -0.4487
  192POPC     P22138   2.951   5.716   6.505  0.1592  0.4305 -0.1005
  192POPC   O1322139   2.959   5.741   6.357  0.4719 -0.0260 -1.0841
  192POPC   O1422140   2.838   5.789   6.563 -0.4744 -0.0356  0.4930
  192POPC   O1222141   3.090   5.759   6.578  0.2100 -0.1519  0.1842
  192POPC   O1122142   2.941   5.559   6.523 -0.3601  0.0194  0.5976
  192POPC    C122143   2.943   5.507   6.665 -0.1049 -0.1529  0.5590
  192POPC    HA22144   3.005   5.574   6.728  0.3441 -0.2660  0.2531
  192POPC    HB22145   3.007   5.416   6.672  2.1916  1.5001  3.3871
  192POPC    C222146   2.811   5.462   6.723  0.3292  0.2158  0.3956
  192POPC    HS22147   2.739   5.536   6.682  1.3374  0.8438 -0.2794
  192POPC   O2122148   2.822   5.463   6.864 -0.0000 -0.2034 -0.3709
  192POPC   C2122149   2.706   5.451   6.927  0.0782  0.0133 -0.5847
  192POPC   O2222150   2.594   5.463   6.881  0.2317 -0.5329  0.2243
  192POPC   C2222151   2.730   5.446   7.077 -0.2182  0.4437 -0.3859
  192POPC   H2R22152   2.801   5.527   7.103  0.0356  0.5716 -1.4493
  192POPC   H2S22153   2.776   5.348   7.103 -0.8887 -0.2999 -1.8668
  192POPC    C322154   2.771   5.321   6.670  0.3792 -0.2590  0.2681
  192POPC    HX22155   2.764   5.337   6.561 -1.0877 -2.3449 -0.0014
  192POPC    HY22156   2.664   5.299   6.691 -1.1551  2.7865 -3.2117
  192POPC   O3122157   2.872   5.217   6.694  0.2752 -0.2821 -0.0171
  192POPC   C3122158   2.839   5.144   6.802  0.5349  0.2547  0.4565
  192POPC   O3222159   2.760   5.179   6.886 -0.0824  0.2247  0.7611
  192POPC   C3222160   2.925   5.018   6.788  0.1552  0.3294  1.2847
  192POPC   H2X22161   3.024   5.059   6.759 -0.6742  1.3095 -0.2859
  192POPC   H2Y22162   2.871   4.954   6.715 -0.7262  0.9299  1.4013
  192POPC   C2322163   2.594   5.455   7.146 -0.4980  0.2426  0.1147
  192POPC   H3R22164   2.538   5.362   7.126  1.6051 -0.8415 -1.0269
  192POPC   H3S22165   2.550   5.554   7.119 -0.0926  0.6657  0.9542
  192POPC   C2422166   2.617   5.462   7.306 -0.3306  0.5710  0.4518
  192POPC   H4R22167   2.718   5.504   7.321  0.3114 -0.7346 -0.0927
  192POPC   H4S22168   2.609   5.354   7.334  1.1997  0.9501  2.5821
  192POPC   C2522169   2.515   5.536   7.381 -0.1107 -0.1298  0.2327
  192POPC   H5R22170   2.421   5.520   7.325  2.1196 -1.3904 -3.5237
  192POPC   H5S22171   2.536   5.643   7.357 -0.7945 -0.1452 -0.4547
  192POPC   C2622172   2.514   5.499   7.535  0.3994  0.3875 -0.2760
  192POPC   H6R22173   2.615   5.516   7.579  0.7466 -0.3652 -0.7653
  192POPC   H6S22174   2.489   5.392   7.551 -1.7622  1.2967  3.8963
  192POPC   C2722175   2.413   5.576   7.623 -0.4616 -0.1698 -1.1185
  192POPC   H7R22176   2.308   5.549   7.600  0.0080 -4.4195  0.7634
  192POPC   H7S22177   2.432   5.683   7.603  1.9776 -0.4901 -0.7577
  192POPC   C2822178   2.433   5.556   7.772  0.3542  0.1568  0.2418
  192POPC   H8R22179   2.534   5.594   7.798  1.1185 -1.1807 -0.6244
  192POPC   H8S22180   2.444   5.445   7.780  0.2744  0.1502  0.2655
  192POPC   C2922181   2.320   5.599   7.865  0.9023 -0.4376  1.0630
  192POPC   H9122182   2.223   5.558   7.832  1.8938 -2.4340  0.4238
  192POPC  C21022183   2.335   5.669   7.978  0.7687  0.3305  0.3849
  192POPC  H10122184   2.256   5.700   8.047 -1.6825 -1.5917 -1.3335
  192POPC  C21122185   2.467   5.708   8.030  0.2490 -0.2968 -0.1049
  192POPC  H11R22186   2.496   5.795   7.966 -2.1982 -0.3224 -1.3495
  192POPC  H11S22187   2.554   5.639   8.033  1.3573  0.8902 -2.1398
  192POPC  C21222188   2.466   5.766   8.170  0.6082  0.5737  0.4159
  192POPC  H12R22189   2.570   5.766   8.209  1.1865 -1.0327 -1.0140
  192POPC  H12S22190   2.411   5.695   8.237  1.8280 -0.4910  0.3314
  192POPC  C21322191   2.406   5.905   8.195 -0.1527  0.2469  0.1509
  192POPC  H13R22192   2.304   5.910   8.151 -0.4515  0.4039  0.8362
  192POPC  H13S22193   2.472   5.974   8.139 -1.0867  1.3256  0.3573
  192POPC  C21422194   2.398   5.932   8.345  0.1963 -0.5354 -0.2125
  192POPC  H14R22195   2.462   5.859   8.399  0.3045 -1.0503 -1.0244
  192POPC  H14S22196   2.295   5.911   8.381  0.9953 -3.2955  0.6746
  192POPC  C21522197   2.426   6.077   8.396 -0.3573  0.7509 -1.0141
  192POPC  H15R22198   2.357   6.144   8.341 -1.8685 -2.0713 -2.8264
  192POPC  H15S22199   2.530   6.100   8.364 -0.3764  0.1318 -1.5503
  192POPC  C21622200   2.394   6.106   8.542 -0.4670  0.5743 -0.2008
  192POPC  H16R22201   2.457   6.036   8.601 -0.9324  0.2045 -0.1354
  192POPC  H16S22202   2.289   6.081   8.569 -1.0242  1.9295 -0.9641
  192POPC  C21722203   2.436   6.238   8.599  0.5416 -0.5498 -0.2528
  192POPC  H17R22204   2.360   6.316   8.575 -1.3288 -2.0315  0.6271
  192POPC  H17S22205   2.534   6.265   8.553  0.4525 -1.3355 -0.9389
  192POPC  C21822206   2.443   6.236   8.752  0.0808 -0.1297 -0.1013
  192POPC  H18R22207   2.452   6.334   8.804 -3.1664 -0.2283  0.8717
  192POPC  H18S22208   2.525   6.168   8.784  0.3105 -1.2272 -2.7544
  192POPC  H18T22209   2.340   6.205   8.780  0.5790 -0.5214  1.3690
  192POPC   C3322210   2.935   4.938   6.918  0.7219  0.4664 -1.1692
  192POPC   H3X22211   2.964   4.835   6.891  1.1482  0.4108 -0.5278
  192POPC   H3Y22212   2.837   4.948   6.970  0.6594 -0.0535 -1.1867
  192POPC   C3422213   3.033   4.986   7.020 -0.1298 -0.3694 -0.0281
  192POPC   H4X22214   3.007   5.086   7.061  1.5235 -0.3355  1.0300
  192POPC   H4Y22215   3.129   4.996   6.966 -1.2058 -0.9411 -2.1649
  192POPC   C3522216   3.048   4.883   7.136  0.4267 -0.7738 -0.1622
  192POPC   H5X22217   3.071   4.790   7.080 -0.5414 -0.6939 -0.7204
  192POPC   H5Y22218   2.951   4.857   7.183 -0.2386 -0.4868 -1.3391
  192POPC   C3622219   3.140   4.928   7.251  0.6238 -0.3255 -0.5819
  192POPC   H6X22220   3.244   4.958   7.223  1.4237 -0.7687  1.6789
  192POPC   H6Y22221   3.149   4.839   7.317  1.8022  1.2364  1.5058
  192POPC   C3722222   3.083   5.041   7.337  0.2636 -0.5481  0.6896
  192POPC   H7X22223   2.976   5.014   7.347  0.8316 -3.1615  0.5320
  192POPC   H7Y22224   3.087   5.132   7.274  2.0995 -1.6086 -0.8101
  192POPC   C3822225   3.145   5.060   7.471 -0.2745  0.4479 -0.1663
  192POPC   H8X22226   3.247   5.099   7.455  0.5650 -1.2374  0.7625
  192POPC   H8Y22227   3.144   4.961   7.522 -1.6446  0.6736  0.2881
  192POPC   C3922228   3.058   5.159   7.553 -0.5573  0.1989 -0.0712
  192POPC   H9X22229   2.956   5.113   7.562  0.6655 -2.4105  1.9437
  192POPC   H9Y22230   3.051   5.256   7.500  1.3758  0.4089  0.0034
  192POPC  C31022231   3.111   5.188   7.698 -0.7185  0.9214  0.4420
  192POPC  H10X22232   3.044   5.270   7.730 -0.4893  0.3501  2.4993
  192POPC  H10Y22233   3.212   5.233   7.688 -0.1679 -0.4102 -0.4377
  192POPC  C31122234   3.088   5.081   7.807 -0.8099  0.4478 -0.1062
  192POPC  H11X22235   3.169   5.007   7.796  0.1130  1.5779 -1.3167
  192POPC  H11Y22236   2.988   5.036   7.792 -0.0740 -1.5164  0.6256
  192POPC  C31222237   3.125   5.148   7.942 -0.4418  0.1731 -0.4581
  192POPC  H12X22238   3.060   5.238   7.949  0.0047  0.6274 -1.9005
  192POPC  H12Y22239   3.227   5.187   7.923 -0.8461  1.6590  0.3179
  192POPC  C31322240   3.132   5.052   8.068  0.3051 -0.2151 -0.2626
  192POPC  H13X22241   3.178   4.951   8.055 -1.2115 -0.8628 -0.8217
  192POPC  H13Y22242   3.027   5.032   8.097  0.6978 -1.2218  0.5218
  192POPC  C31422243   3.199   5.123   8.195  0.1689 -0.2526 -0.5484
  192POPC  H14X22244   3.174   5.055   8.280 -1.2586 -0.3227 -0.9965
  192POPC  H14Y22245   3.156   5.223   8.218  3.8959  1.4383 -0.3585
  192POPC  C31522246   3.349   5.142   8.177  0.2685  0.6303  0.4805
  192POPC  H15X22247   3.362   5.223   8.102  1.6357  1.1090  1.1941
  192POPC  H15Y22248   3.392   5.044   8.147  0.7445  0.1362  2.6036
  192POPC  C31622249   3.428   5.164   8.305  0.1793  0.1074 -0.0626
  192POPC  H16X22250   3.422   5.073   8.368  0.9864 -0.0982 -0.2656
  192POPC  H16Y22251   3.396   5.255   8.360 -2.1921 -0.7571  0.1045
  192POPC  H16Z22252   3.534   5.165   8.273  0.2292  0.1865  0.1032
  193SOD    SOD22253   6.480   3.224   1.641  0.6838  0.2848 -0.5108
  194SOD    SOD22254   3.737   1.486  15.889 -0.1226  0.1114 -0.1116
  195SOD    SOD22255   6.267   0.057  11.478 -0.4525  0.3168 -0.2021
  196SOD    SOD22256   1.368   1.336   3.379 -0.0893 -0.0740  0.1686
  197SOD    SOD22257   3.518   4.590   1.272 -0.2608  0.1384  0.2232
  198SOD    SOD22258   6.085   2.119  13.245  0.2739  0.3865 -0.1619
  199SOD    SOD22259   3.872   0.513   5.385 -0.3135 -0.4088 -0.3079
  200SOD    SOD22260   0.635   4.899  15.366  0.0357  0.2223  0.4014
  201SOD    SOD22261   5.627   4.326  14.266  0.0922  0.3670 -0.4203
  202SOD    SOD22262   3.701   4.369  16.082 -0.0118  0.0840 -0.1712
  203SOD    SOD22263   4.977   3.209   5.449  0.1555  0.5398 -0.1785
  204SOD    SOD22264   5.596   1.149   1.723  0.2424  0.0757  0.3745
  205SOD    SOD22265   3.848   1.722   6.770  0.4263 -0.5128 -0.5685
  206SOD    SOD22266   0.456   2.168   5.611 -0.5124  0.2336 -0.0329
  207SOD    SOD22267   2.732   1.992   6.442 -0.4731 -0.3189 -0.4535
  208SOD    SOD22268   4.456   3.508   4.087  0.6007  0.1607 -0.0516
  209SOD    SOD22269   5.699   1.695   6.622  0.1159  0.1644  0.4722
  210SOD    SOD22270   6.453   4.656   5.657  0.1356 -0.1717  0.0215
  211SOD    SOD22271   5.780   0.649   5.851 -0.3805  0.6100  0.0226
  212SOD    SOD22272   5.069   5.521  13.368  0.5702 -0.0208  0.2137
  213SOD    SOD22273   0.341   6.265  11.900 -0.2596  1.0121 -0.1826
  214SOD    SOD22274   5.583   0.572   1.641 -0.0046 -0.3118 -0.5829
  215SOD    SOD22275   5.963   0.851  16.841 -0.7140 -0.3056 -0.0386
  216SOD    SOD22276   0.821   4.611  13.496  0.0132 -0.8447  0.0256
  217SOD    SOD22277   3.732   0.321  13.183  0.1584 -0.0311  0.2732
  218SOD    SOD22278   5.050   2.939  11.011 -0.1218 -0.3085  0.0242
  219SOD    SOD22279   2.818   3.080  17.309  0.0553 -0.7190  0.4203
  220SOD    SOD22280   1.093   0.408   1.288 -0.1261  0.5181 -0.4550
  221SOD    SOD22281   2.402   2.526  14.799  0.2112  0.2834 -0.5503
  222SOD    SOD22282   4.795   5.077  11.442  0.2655 -0.1912  0.0287
  223SOD    SOD22283   0.685   6.434   0.558  0.2091  0.2244 -0.1864
  224SOD    SOD22284   4.873   0.844   3.371 -0.2359 -0.0460  0.4208
  225SOD    SOD22285   5.212   6.707   4.176 -0.6634  0.9511  0.0960
  226SOD    SOD22286   3.821   0.957   3.325 -0.1595 -0.1707 -0.2184
  227SOD    SOD22287   1.933   1.122   4.896  0.0275  0.3871 -0.3234
  228SOD    SOD22288   2.460   6.065  11.310 -0.0721 -0.4230  0.5370
  229SOD    SOD22289   5.016   5.288  15.460 -0.0069 -0.2327 -0.1883
  230SOD    SOD22290   3.036   5.848   1.054 -0.1228  0.0599 -0.5317
  231SOD    SOD22291   3.896   1.943  13.917  0.2537  0.4384 -0.3222
  232SOD    SOD22292   3.077   5.231   0.315 -0.1477  0.1572 -0.3985
  233SOD    SOD22293   0.752   2.780  12.854 -0.3591 -0.5075  0.0992
  234SOD    SOD22294   4.041   0.105   2.836 -0.1170  0.3086  0.3698
  235SOD    SOD22295   6.397   2.419  14.574 -0.3808  0.0187 -1.0573
  236SOD    SOD22296   2.619   5.250  16.074  0.0122 -0.3678 -0.1226
  237SOD    SOD22297   2.544   4.033  12.562  0.5731 -0.1370 -0.7497
  238SOD    SOD22298   0.153   0.912   3.545  0.4800 -0.6474 -0.3483
  239SOD    SOD22299   0.627   4.925   5.739  0.1279  0.1860  0.5777
  240SOD    SOD22300   1.130   1.920  11.158  0.1128 -0.0493 -0.0880
  241SOD    SOD22301   4.277   4.255   6.259 -0.0306 -0.2984 -0.5865
  242SOD    SOD22302   4.958   4.314   5.302 -0.8194  0.2043  0.1867
  243SOD    SOD22303   3.132   2.770   1.770  0.5027  0.0824  0.0251
  244SOD    SOD22304   3.918   0.847   4.833  0.0087  0.1635  0.2254
  245SOD    SOD22305   0.211   6.630   5.678  0.0401 -0.2959  0.2186
  246SOD    SOD22306   4.880   3.783  17.174 -0.0569  0.3484 -0.3188
  247SOD    SOD22307   4.811   0.469  11.546  0.1333  0.3152  0.2133
  248SOD    SOD22308   3.178   1.534   5.641  0.4289 -0.1146 -0.3682
  249SOD    SOD22309   0.478   5.281  17.053 -0.3026  0.0716 -0.3082
  250SOD    SOD22310   3.270   4.071   6.202 -0.1157  0.5410  0.0139
  251SOD    SOD22311   4.859   5.429  16.702 -0.4484  0.0061 -0.2746
  252SOD    SOD22312   6.620   4.905  10.947  0.1852  1.0776 -0.1225
  253SOD    SOD22313   2.711   5.878  14.409  0.1105 -0.2472  0.6034
  254SOD    SOD22314   3.725   5.507  12.823  0.1172  0.4378 -0.1686
  255SOD    SOD22315   1.823   5.729   5.863 -0.2511  0.0562 -0.5757
  256SOD    SOD22316   3.005   0.629  11.536  0.3209  0.3199 -0.0478
  257SOD    SOD22317   1.190   1.263   0.083 -0.1499 -0.4570  0.2611
  258SOD    SOD22318   0.702   3.159   5.868  0.6976 -0.5611 -0.0528
  259SOD    SOD22319   3.269   1.729  11.974  0.2327  0.1307 -0.2172
  260SOD    SOD22320   1.774   5.755  12.013  0.1487  0.0995  0.2960
  261SOD    SOD22321   3.832   0.516   1.149 -0.0554 -0.2808  0.4130
  262SOD    SOD22322   4.974   0.028   2.470  0.3745  0.0337  0.2099
  263SOD    SOD22323   3.607   2.989   5.404  0.3034 -0.1103  0.0577
  264SOD    SOD22324   5.423   3.270  15.459 -0.1589  0.5118 -0.5134
  265SOD    SOD22325   5.810   6.151   0.757 -0.3126  0.2777 -0.2555
  266SOD    SOD22326   6.504   3.959   5.168  0.0905  0.1829 -0.4094
  267SOD    SOD22327   3.615   4.170  11.559 -0.2681 -0.0697 -0.5560
  268SOD    SOD22328   1.497   4.721  10.693  0.3157 -0.0590 -0.0118
  269SOD    SOD22329   3.993   5.119  13.886 -0.2118  0.4097 -0.1233
  270CLA    CLA22330   4.849   0.051  13.630 -0.0845  0.2467 -0.0606
  271CLA    CLA22331   3.631   3.203   1.963 -0.2780  0.1651  0.3834
  272CLA    CLA22332   6.710   4.940  14.042  0.3004 -0.4947 -0.5223
  273CLA    CLA22333   0.042   2.885   3.921 -0.2052  0.2397 -0.1716
  274CLA    CLA22334   2.257   0.678   1.108 -0.1234 -0.0044  0.6649
  275CLA    CLA22335   3.179   3.686  16.533 -0.0600 -0.3700  0.4422
  276CLA    CLA22336   0.590   2.624  13.961 -0.2641  0.1697 -0.0544
  277CLA    CLA22337   6.678   2.785   1.407  0.1155 -0.0617  0.2296
  278CLA    CLA22338   1.096   4.537   1.394  0.1596  0.2978 -0.1960
  279CLA    CLA22339   6.682   1.249   5.471 -0.1352  0.3809 -0.2973
  280CLA    CLA22340   5.290   0.493   0.017  0.0950 -0.1276 -0.1971
  281CLA    CLA22341   2.862   5.660  16.853  0.3895 -0.1735  0.0433
  282CLA    CLA22342   1.792   2.036   3.063  0.0640 -0.1341  0.0004
  283CLA    CLA22343   1.440   6.572   0.602  0.0955  0.3693 -0.0717
  284CLA    CLA22344   0.272   0.188  13.274  0.1897 -0.1902 -0.2143
  285CLA    CLA22345   3.141   1.798  13.669  0.3634 -0.1448  0.4288
  286CLA    CLA22346   4.955   0.987   2.730  0.1149  0.2032 -0.5713
  287CLA    CLA22347   4.959   4.363  17.306  0.3254  0.0860  0.3214
  288CLA    CLA22348   4.414   5.882  14.875 -0.2854 -0.3675  0.2897
  289CLA    CLA22349   3.407   2.799  15.787 -0.0117 -0.4867 -0.1191
  290CLA    CLA22350   0.924   2.749  14.275 -0.0599  0.0643  0.1893
  291CLA    CLA22351   4.485   6.430   2.540 -0.2944 -0.0805 -0.0757
  292CLA    CLA22352   1.077   1.355   5.889  0.1205 -0.3734  0.0265
  293CLA    CLA22353   5.026   4.760  16.165 -0.3407 -0.1927  0.1059
  294CLA    CLA22354   5.948   0.514   3.455  0.2026  0.6175 -0.2486
  295CLA    CLA22355   3.727   5.295   1.385 -0.0966  0.1063  0.1533
  296CLA    CLA22356   3.932   3.771   5.282  0.5062 -0.3526 -0.7382
  297CLA    CLA22357   5.349   5.391   4.628 -0.2730  0.5299  0.4785
  298CLA    CLA22358   2.876   0.600  16.533  0.1690 -0.1477  0.1376
  299CLA    CLA22359   1.368   5.927  13.635  0.6213  0.4016  0.0188
  300CLA    CLA22360   1.217   3.491   5.176 -0.0589  0.4157 -0.3051
  301CLA    CLA22361   0.306   3.652   4.934  0.3236 -0.3461 -0.4773
  302CLA    CLA22362   6.052   1.869   5.295  0.2475  0.0924  0.1481
  303CLA    CLA22363   2.924   4.788   2.648 -0.3379  0.0755 -0.1490
  304CLA    CLA22364   1.515   6.651  15.616  0.4770  0.2322  0.8745
  305CLA    CLA22365   4.844   5.575  12.279 -0.1839  0.5834 -0.2239
  306CLA    CLA22366   4.725   5.018   5.506  0.1652 -0.5265  0.2473
  307CLA    CLA22367   4.750   4.275   1.807 -0.1240  0.1481  0.0021
  308CLA    CLA22368   2.325   5.417   2.204  0.0937 -0.5422  0.2398
  309CLA    CLA22369   1.031   3.631  12.887  0.4988  0.0474 -0.1193
  310CLA    CLA22370   1.670   0.051  12.092  0.2189  0.0472  0.0490
  311CLA    CLA22371   4.174   0.191   4.274  0.0481  0.1598  0.2982
  312CLA    CLA22372   4.344   2.025  17.082 -0.0150  0.0864  0.2637
  313CLA    CLA22373   5.189   4.469  12.113  0.1478  0.1064  0.2738
  314CLA    CLA22374   1.566   4.575  14.982  0.2311  0.4124  0.2059
  315CLA    CLA22375   6.031   3.193   0.700  0.0333  0.1236 -0.2326
  316CLA    CLA22376   4.370   5.552  14.274  0.3738  0.0949 -0.0748
  317CLA    CLA22377   3.972   1.698  16.603  0.0072  0.4674  0.0866
  318CLA    CLA22378   5.820   5.648   1.112  0.0431  0.5426  0.5467
  319CLA    CLA22379   5.194   2.312  14.257 -0.0062  0.0958 -0.4544
  320CLA    CLA22380   4.156   4.697   1.730  0.3934  0.2848  0.4251
  321CLA    CLA22381   4.837   2.268   1.070  0.0146  0.1854  0.0624
  322CLA    CLA22382   5.682   1.995  13.410 -0.2007  0.1466  0.1389
  323TIP3   OH222383   0.273   2.417  12.530 -0.3138 -0.2461  0.0918
  323TIP3    H122384   0.200   2.454  12.482  1.4372  3.0296 -0.3284
  323TIP3    H222385   0.339   2.399  12.463  0.2633 -0.5404  0.7295
  324TIP3   OH222386   5.641   2.362   2.854 -0.5518  0.4190  0.4939
  324TIP3    H122387   5.571   2.310   2.813  1.6500 -1.9700 -0.4860
  324TIP3    H222388   5.663   2.428   2.789 -1.4536  0.8175  0.5718
  325TIP3   OH222389   0.356   3.219  11.620  0.6053  0.2887 -0.0816
  325TIP3    H122390   0.431   3.242  11.565  0.0950 -1.5199 -1.6412
  325TIP3    H222391   0.378   3.132  11.654  0.8753  1.3126  2.6262
  326TIP3   OH222392   5.488   2.395  14.326 -0.1617  0.2893  0.3007
  326TIP3    H122393   5.524   2.383  14.239 -0.2144  1.4415  0.1032
  326TIP3    H222394   5.400   2.356  14.322  0.5483 -1.3905  0.4198
  327TIP3   OH222395   0.664   1.233   3.362  0.0203  0.4083  0.1033
  327TIP3    H122396   0.587   1.233   3.419 -0.7934  2.2016 -0.8999
  327TIP3    H222397   0.713   1.311   3.389  0.5597  0.2647 -0.4409
  328TIP3   OH222398   1.447   5.071  16.035  0.1132  0.1724 -0.3286
  328TIP3    H122399   1.478   5.116  15.957 -2.4603  1.4084 -0.7548
  328TIP3    H222400   1.461   5.134  16.106  0.9656 -0.3150 -0.0505
  329TIP3   OH222401   1.964   0.360  12.523  0.3571 -0.0106 -0.1235
  329TIP3    H122402   1.936   0.350  12.432  0.5737 -1.3637 -0.0565
  329TIP3    H222403   1.949   0.274  12.562  1.5488  0.1626  0.7585
  330TIP3   OH222404   1.964   0.893  13.781  0.2876  0.1081  0.1904
  330TIP3    H122405   1.984   0.959  13.715  0.0235 -1.0181 -1.0697
  330TIP3    H222406   2.010   0.814  13.751 -0.7499 -0.7333  0.7283
  331TIP3   OH222407   4.195   0.067   3.550 -0.2682 -0.5294  0.3806
  331TIP3    H122408   4.112   0.100   3.585 -1.4790 -1.3433 -1.5548
  331TIP3    H222409   4.245   0.041   3.627 -0.2368  3.3183  1.8809
  332TIP3   OH222410   1.271   4.246   4.211 -0.1825  0.1208  0.1029
  332TIP3    H122411   1.276   4.298   4.291 -0.6728  0.9614 -0.4050
  332TIP3    H222412   1.354   4.198   4.208  0.5830  1.4149  0.2025
  333TIP3   OH222413   4.368   4.530   5.829  0.1469 -0.4088 -0.4470
  333TIP3    H122414   4.444   4.498   5.877  0.7485 -0.1968 -1.2291
  333TIP3    H222415   4.404   4.559   5.745 -0.8280 -0.4670 -0.8933
  334TIP3   OH222416   3.229   2.674  12.634 -0.2178 -0.1422  0.1843
  334TIP3    H122417   3.164   2.727  12.587 -1.0868 -0.8261  0.5913
  334TIP3    H222418   3.177   2.611  12.684  0.7850 -1.2011 -0.0696
  335TIP3   OH222419   1.957   5.086   5.254 -0.3718 -0.2652  0.6179
  335TIP3    H122420   1.912   5.048   5.329 -0.1017 -1.1412  0.3568
  335TIP3    H222421   2.012   5.014   5.221 -1.0546 -0.1494 -0.8639
  336TIP3   OH222422   3.808   5.203   4.881  0.1258 -0.1094  0.6642
  336TIP3    H122423   3.796   5.231   4.791  0.0785 -1.2703  0.2899
  336TIP3    H222424   3.730   5.234   4.927  0.9124  1.9552  0.7136
  337TIP3   OH222425   4.413   2.586   5.847 -0.5493  0.6857  0.3170
  337TIP3    H122426   4.382   2.576   5.937  0.7819 -1.6029  0.5965
  337TIP3    H222427   4.502   2.621   5.856  0.1484 -0.9392  0.0148
  338TIP3   OH222428   2.563   6.519   5.417 -0.0399 -0.3605 -0.1126
  338TIP3    H122429   2.524   6.587   5.362 -0.5956 -1.0370 -0.5848
  338TIP3    H222430   2.489   6.461   5.439 -0.0649  0.4721  2.2933
  339TIP3   OH222431   4.747   1.911  12.832 -0.4090 -0.0216  0.3253
  339TIP3    H122432   4.670   1.881  12.784 -0.7019 -0.0106  0.7819
  339TIP3    H222433   4.814   1.924  12.764 -1.4484  2.0822 -0.3840
  340TIP3   OH222434   6.466   6.139  13.824  0.1370 -0.1761  0.0059
  340TIP3    H122435   6.481   6.134  13.730  1.0357 -2.1219  0.2029
  340TIP3    H222436   6.374   6.117  13.836 -0.0807  0.4715 -0.4253
  341TIP3   OH222437   1.288   2.719  16.211 -0.3704  0.1433 -0.2123
  341TIP3    H122438   1.338   2.789  16.252  1.0315 -1.7231  1.5023
  341TIP3    H222439   1.332   2.704  16.127 -0.9032  1.5006 -0.7515
  342TIP3   OH222440   3.376   6.107   5.323 -0.0477  0.3018  0.1089
  342TIP3    H122441   3.407   6.041   5.261 -0.3939  1.4854 -1.3952
  342TIP3    H222442   3.417   6.083   5.406 -0.9580 -2.3486 -0.1319
  343TIP3   OH222443   1.765   3.247   3.326 -0.1402  0.0756 -0.2370
  343TIP3    H122444   1.685   3.196   3.339 -0.5281 -0.1395 -2.8693
  343TIP3    H222445   1.754   3.324   3.382 -0.5550 -1.5910  2.1053
  344TIP3   OH222446   5.015   3.260   5.915 -0.0395  0.4668 -0.1509
  344TIP3    H122447   4.943   3.291   5.970 -0.9076 -0.6107 -0.6541
  344TIP3    H222448   5.073   3.336   5.907  0.1443  0.6516  2.2588
  345TIP3   OH222449   0.135   3.075  14.733 -0.1824  0.4248 -0.1749
  345TIP3    H122450   0.154   3.108  14.821 -1.1511  0.4956  0.0212
  345TIP3    H222451   0.164   3.145  14.674 -1.4947  1.3166  0.2037
  346TIP3   OH222452   2.268   5.446  10.920  0.3409 -0.0154  0.6040
  346TIP3    H122453   2.191   5.492  10.954 -0.3471  0.4399 -1.4279
  346TIP3    H222454   2.289   5.491  10.838 -0.1715 -2.9840 -1.3242
  347TIP3   OH222455   5.396   1.658   1.076 -0.1972 -0.0394  0.2909
  347TIP3    H122456   5.462   1.596   1.045  0.3163 -0.2437  1.7008
  347TIP3    H222457   5.439   1.704   1.149 -1.1777  0.7226  0.4032
  348TIP3   OH222458   5.044   3.813  13.697 -0.0845 -0.0841 -0.6030
  348TIP3    H122459   5.131   3.846  13.718  0.7946 -1.8458 -1.2347
  348TIP3    H222460   4.990   3.837  13.772  1.8158 -2.1203  1.6021
  349TIP3   OH222461   2.653   3.896  15.272  0.3026 -0.3127  0.1502
  349TIP3    H122462   2.714   3.865  15.205  0.3624 -1.8042  0.8371
  349TIP3    H222463   2.709   3.922  15.345  0.2031  0.5758 -0.0802
  350TIP3   OH222464   0.975   3.352  13.345  0.5233 -0.2228  0.1251
  350TIP3    H122465   1.065   3.379  13.326  0.6407  0.3838  1.4415
  350TIP3    H222466   0.949   3.406  13.420 -1.6825  1.1608 -1.4722
  351TIP3   OH222467   0.459   1.785  16.428  0.0885 -0.7455  0.1032
  351TIP3    H122468   0.468   1.695  16.398 -0.2514 -0.8750  0.3767
  351TIP3    H222469   0.483   1.839  16.353 -1.6694 -1.0499 -0.7187
  352TIP3   OH222470   5.887   2.957  12.798 -0.0111 -0.0189 -0.0327
  352TIP3    H122471   5.827   3.027  12.776  0.4916  0.2309 -0.6220
  352TIP3    H222472   5.865   2.934  12.889 -0.7566  0.2960 -0.1272
  353TIP3   OH222473   0.696   3.576   3.354  0.5676 -0.0263  0.6137
  353TIP3    H122474   0.734   3.491   3.334 -1.1272 -0.7011  0.0952
  353TIP3    H222475   0.695   3.580   3.450  0.8614 -0.4972  0.6388
  354TIP3   OH222476   2.198   4.829  13.061  0.2151 -0.1201 -0.7079
  354TIP3    H122477   2.262   4.898  13.042 -0.9994  1.8809  1.7455
  354TIP3    H222478   2.133   4.837  12.992 -0.2087  1.7064 -0.1670
  355TIP3   OH222479   5.092   6.281  17.315 -0.0535 -0.0694 -0.8306
  355TIP3    H122480   5.028   6.253  17.380  1.7116  1.5739  1.8420
  355TIP3    H222481   5.173   6.238  17.342  0.8301  1.0083 -1.6691
  356TIP3   OH222482   1.261   6.254  17.170 -0.0388  0.1735 -0.7334
  356TIP3    H122483   1.285   6.220  17.084  0.0374 -0.0160 -0.6383
  356TIP3    H222484   1.206   6.185  17.208  1.1538 -0.4202 -0.0265
  357TIP3   OH222485   4.453   1.842   3.594 -0.0693  0.2609 -0.3370
  357TIP3    H122486   4.539   1.818   3.558  0.7327 -0.4136  1.8567
  357TIP3    H222487   4.452   1.938   3.590 -1.0121  0.2754 -4.1020
  358TIP3   OH222488   0.678   4.441  13.920  0.1346 -0.0623 -0.5927
  358TIP3    H122489   0.763   4.468  13.955  0.9949 -0.3256 -2.3651
  358TIP3    H222490   0.632   4.523  13.903  1.7595  0.3664 -3.6074
  359TIP3   OH222491   2.148   2.843   5.988 -0.0658  0.1473  0.1173
  359TIP3    H122492   2.094   2.806   6.057  1.3020 -1.2294  0.4983
  359TIP3    H222493   2.182   2.767   5.940 -0.6231  1.0559 -1.7981
  360TIP3   OH222494   2.746   4.693  13.038 -0.0643  0.3583  0.6799
  360TIP3    H122495   2.663   4.659  13.070 -0.4446  0.5254 -0.1092
  360TIP3    H222496   2.723   4.745  12.961  0.7148  0.8435  0.7659
  361TIP3   OH222497   2.246   5.923   6.012  0.3372  0.0702 -0.2117
  361TIP3    H122498   2.244   5.840   5.966 -0.4165 -1.2243  1.9989
  361TIP3    H222499   2.339   5.942   6.023  0.5283 -1.1397  0.3521
  362TIP3   OH222500   5.701   0.661   1.830 -0.3165  0.3921  0.5524
  362TIP3    H122501   5.717   0.656   1.924  0.9579  2.3240  0.5013
  362TIP3    H222502   5.778   0.621   1.789 -1.2351 -1.1937  0.2848
  363TIP3   OH222503   0.012   4.123  16.214 -0.2734 -0.0546  0.0346
  363TIP3    H122504   0.065   4.074  16.151 -0.5777  0.0584 -0.3101
  363TIP3    H222505   0.071   4.137  16.288 -0.3604 -1.5034  0.4192
  364TIP3   OH222506   4.065   5.914  15.513  0.4273 -0.0376 -0.8405
  364TIP3    H122507   4.008   5.990  15.507 -0.7233 -0.7469  0.5622
  364TIP3    H222508   4.084   5.905  15.606  0.8789 -1.2121 -1.0274
  365TIP3   OH222509   4.935   1.731  17.277 -0.4968 -0.7767 -0.1499
  365TIP3    H122510   4.973   1.657  17.326 -0.7212  0.5066  2.1178
  365TIP3    H222511   5.007   1.794  17.271 -1.1961  0.1463  0.8807
  366TIP3   OH222512   0.320   1.219  14.120  0.2043  0.5256 -0.2334
  366TIP3    H122513   0.286   1.206  14.032  0.9615 -0.9841 -0.3214
  366TIP3    H222514   0.415   1.208  14.111  0.1405 -1.4407  1.0537
  367TIP3   OH222515   0.983   1.456  10.973  0.4094 -0.3306  0.3294
  367TIP3    H122516   1.019   1.477  11.059 -1.3155 -0.4338  1.1085
  367TIP3    H222517   0.981   1.540  10.927 -0.6762  0.1397  1.1926
  368TIP3   OH222518   0.318   4.794   0.466  0.1840  0.6106  0.2570
  368TIP3    H122519   0.321   4.812   0.560 -0.6891 -0.2015  0.4538
  368TIP3    H222520   0.231   4.757   0.451  0.1489  1.1354 -0.9550
  369TIP3   OH222521   4.264   6.747   5.406  0.2936  0.1183 -0.6322
  369TIP3    H122522   4.337   6.779   5.458 -0.8150  0.5815  0.6843
  369TIP3    H222523   4.289   6.658   5.381  1.1722  0.1679  0.0385
  370TIP3   OH222524   6.472   1.743   3.647 -0.0716  0.1823  0.3952
  370TIP3    H122525   6.463   1.788   3.731  0.3538 -0.8019  0.9926
  370TIP3    H222526   6.396   1.772   3.596  0.1176  1.4399  0.7957
  371TIP3   OH222527   5.011   5.932  14.688  0.1176 -0.0033 -0.4351
  371TIP3    H122528   4.917   5.952  14.681 -0.2410 -0.8627  1.3262
  371TIP3    H222529   5.019   5.885  14.771  2.1772  0.3521 -0.3896
  372TIP3   OH222530   6.583   1.915  17.053 -0.4745 -0.3594 -0.6472
  372TIP3    H122531   6.648   1.939  17.119 -1.8163 -0.2063  0.6855
  372TIP3    H222532   6.634   1.885  16.978  1.1068 -0.9441  0.6148
  373TIP3   OH222533   3.960   1.710   1.196 -0.4830 -0.1565  0.0746
  373TIP3    H122534   3.977   1.783   1.136  1.7591  1.2196  2.2215
  373TIP3    H222535   3.865   1.706   1.202 -0.7740  0.2568 -2.7711
  374TIP3   OH222536   4.524   4.946  14.689 -0.1664 -0.1047  0.1526
  374TIP3    H122537   4.560   4.858  14.704  0.8642  0.2141 -0.4039
  374TIP3    H222538   4.567   4.977  14.609 -1.4034  0.4473 -0.3224
  375TIP3   OH222539   5.899   2.229  15.821 -0.1974 -0.7243  0.0148
  375TIP3    H122540   5.905   2.319  15.789 -0.0337 -0.1947  1.4791
  375TIP3    H222541   5.959   2.180  15.765 -0.0423  0.1305 -0.5955
  376TIP3   OH222542   4.126   1.095  14.171 -0.3053  0.1813  0.1359
  376TIP3    H122543   4.098   1.035  14.101  0.5128 -0.5463  0.4059
  376TIP3    H222544   4.162   1.037  14.239  2.6810  1.0493 -0.5529
  377TIP3   OH222545   6.033   1.942  14.535 -0.1893 -0.3799 -0.3043
  377TIP3    H122546   6.067   1.874  14.477 -1.0034  0.3505 -1.6927
  377TIP3    H222547   5.940   1.921  14.546 -0.0048 -0.6260  0.9365
  378TIP3   OH222548   5.487   3.326  11.495  0.2652  0.2266  0.2489
  378TIP3    H122549   5.514   3.357  11.582 -1.3186  0.7912  0.5697
  378TIP3    H222550   5.447   3.241  11.512  0.8381 -0.1171 -0.0810
  379TIP3   OH222551   5.184   6.202  14.454  0.2159  0.4365  0.1792
  379TIP3    H122552   5.104   6.254  14.452  0.0028  0.0971 -2.0541
  379TIP3    H222553   5.237   6.236  14.382  1.6477 -0.0524  0.9515
  380TIP3   OH222554   1.693   1.174  12.536  0.0056 -0.0484  0.9123
  380TIP3    H122555   1.610   1.178  12.487  0.4345 -2.1354 -0.0702
  380TIP3    H222556   1.686   1.094  12.588  1.5178 -0.4152  0.5813
  381TIP3   OH222557   5.099   4.452  16.468 -0.2464  0.4502  0.3499
  381TIP3    H122558   5.135   4.532  16.508  0.1688 -0.8884  2.8378
  381TIP3    H222559   5.173   4.391  16.467 -1.1007 -0.5978  0.5099
  382TIP3   OH222560   1.829   5.558   1.227 -0.1783 -0.0510  0.0149
  382TIP3    H122561   1.737   5.586   1.231  0.2092  1.5119 -0.8051
  382TIP3    H222562   1.840   5.499   1.301 -1.9883 -0.7569 -0.2148
  383TIP3   OH222563   1.363   2.945  13.014 -0.5740  0.3664  0.2597
  383TIP3    H122564   1.302   3.015  13.033  2.2778  3.1848 -0.0652
  383TIP3    H222565   1.360   2.936  12.918 -0.8088  0.1879  0.2846
  384TIP3   OH222566   0.185   5.501  11.618 -0.1051 -0.1907 -0.4223
  384TIP3    H122567   0.118   5.460  11.673 -0.9244  0.9075 -0.5633
  384TIP3    H222568   0.210   5.432  11.557 -2.4834 -0.1456 -1.5818
  385TIP3   OH222569   4.496   5.587   0.753  0.0317  0.0903  0.6848
  385TIP3    H122570   4.410   5.627   0.763 -0.3567 -0.4563 -0.3727
  385TIP3    H222571   4.557   5.658   0.773 -0.6563  0.6415  0.8763
  386TIP3   OH222572   1.137   0.598  14.593 -0.3884  0.5582 -1.1288
  386TIP3    H122573   1.134   0.502  14.588  1.1590  0.5051 -1.6148
  386TIP3    H222574   1.105   0.627  14.508  1.1658  0.3899 -1.7960
  387TIP3   OH222575   2.031   4.946   1.464 -0.6756 -0.3123  0.2078
  387TIP3    H122576   2.014   4.955   1.558 -2.7894 -0.2833 -0.1338
  387TIP3    H222577   1.944   4.942   1.424  0.0022  3.0855 -2.0932
  388TIP3   OH222578   2.275   2.331  11.593  0.5314  0.3544 -0.0983
  388TIP3    H122579   2.185   2.344  11.624  0.4980  0.9745 -0.4285
  388TIP3    H222580   2.281   2.237  11.575  0.1855  0.1884  0.6455
  389TIP3   OH222581   5.889   2.343  12.035  0.4605 -0.5428 -0.0680
  389TIP3    H122582   5.839   2.337  12.116  0.4839  1.9999  0.2122
  389TIP3    H222583   5.943   2.421  12.046  1.6885 -1.0830 -1.8876
  390TIP3   OH222584   3.785   2.000   4.268 -0.2733 -0.2073  0.0936
  390TIP3    H122585   3.816   2.020   4.180  2.0845 -0.6030  0.7617
  390TIP3    H222586   3.751   1.910   4.262 -0.7158 -0.0012 -0.5358
  391TIP3   OH222587   2.496   1.110   3.865 -0.0618  0.1234  0.0115
  391TIP3    H122588   2.461   1.170   3.800  2.2901 -0.3155 -1.7771
  391TIP3    H222589   2.453   1.026   3.846  0.3052  0.0976 -0.7443
  392TIP3   OH222590   5.004   2.195   5.125 -0.2804 -0.2148 -0.4941
  392TIP3    H122591   5.025   2.151   5.042  0.5798 -0.5315 -0.1262
  392TIP3    H222592   5.030   2.131   5.192 -0.3791  0.2901  0.0283
  393TIP3   OH222593   0.488   3.771  17.339  0.0214 -0.2649  1.0154
  393TIP3    H122594   0.577   3.741  17.357 -0.0514 -1.7493 -0.8898
  393TIP3    H222595   0.494   3.867  17.341  2.2916 -0.2412 -1.7103
  394TIP3   OH222596   5.679   3.106  11.684 -0.4802 -0.1104 -0.3239
  394TIP3    H122597   5.597   3.089  11.638 -1.5350  1.5895  0.8158
  394TIP3    H222598   5.656   3.168  11.753  1.9012  1.0338 -0.4410
  395TIP3   OH222599   5.922   1.305   2.684  0.0220  0.3241  0.2014
  395TIP3    H122600   5.945   1.212   2.688  0.6076  0.4572  0.1295
  395TIP3    H222601   5.935   1.336   2.774 -0.9626  0.1643  0.4066
  396TIP3   OH222602   1.915   4.292  16.324  0.1262 -0.4587 -0.0312
  396TIP3    H122603   2.009   4.299  16.343  0.8558 -1.4802 -2.6834
  396TIP3    H222604   1.891   4.378  16.290  0.3956 -0.5238 -0.3921
  397TIP3   OH222605   1.368   6.067   0.503 -0.2720  0.1294 -0.1293
  397TIP3    H122606   1.354   6.151   0.459  0.3421 -0.2051 -0.9859
  397TIP3    H222607   1.334   6.002   0.442  0.7412 -0.3551 -0.1935
  398TIP3   OH222608   3.801   5.921   3.652  0.5220  0.7037  0.1508
  398TIP3    H122609   3.782   5.947   3.562  1.4757 -0.2617 -0.3487
  398TIP3    H222610   3.737   5.968   3.705  1.0197  2.6250 -0.8711
  399TIP3   OH222611   1.069   5.282  13.232 -0.2703  0.1035 -0.7771
  399TIP3    H122612   1.108   5.308  13.315 -1.6383  2.9307 -0.8901
  399TIP3    H222613   0.979   5.316  13.236 -0.7045 -0.6065 -2.9833
  400TIP3   OH222614   1.900   2.778   1.443 -0.7117  0.1010 -0.0579
  400TIP3    H122615   1.936   2.865   1.461 -0.2888 -0.0141 -0.3583
  400TIP3    H222616   1.876   2.781   1.350  0.0887 -0.3870 -0.2832
  401TIP3   OH222617   1.792   5.036   0.033 -0.2593  0.1200 -0.3768
  401TIP3    H122618   1.767   4.992   0.114 -1.0387  1.6845  0.2782
  401TIP3    H222619   1.777   5.129   0.050 -0.4433  0.5006 -2.3115
  402TIP3   OH222620   3.227   2.254  12.774 -0.4112  0.1347  0.6099
  402TIP3    H122621   3.285   2.219  12.842  1.3022  3.2082  0.9089
  402TIP3    H222622   3.205   2.177  12.721  2.8008 -1.5081  1.3268
  403TIP3   OH222623   6.642   0.737   5.102 -0.3189 -0.4240 -0.0287
  403TIP3    H122624   6.584   0.779   5.165  0.7195 -0.1223  0.7592
  403TIP3    H222625   6.671   0.657   5.147 -0.9404 -1.1266 -0.8391
  404TIP3   OH222626   1.312   1.099   4.285  0.2220  0.0692 -0.0474
  404TIP3    H122627   1.386   1.144   4.244 -0.1074  0.8074  0.1534
  404TIP3    H222628   1.261   1.169   4.324  1.1130 -0.6751  2.6523
  405TIP3   OH222629   0.188   0.052  12.764 -0.5466 -0.2930  0.8420
  405TIP3    H122630   0.257   0.090  12.817 -1.2879  0.1154  1.5327
  405TIP3    H222631   0.209  -0.042  12.761 -0.2641 -0.2569  1.5080
  406TIP3   OH222632   2.701   5.672  10.905  0.3650  0.2409  0.7362
  406TIP3    H122633   2.691   5.767  10.906 -0.7844  0.2076 -1.4825
  406TIP3    H222634   2.782   5.656  10.954  0.5001  2.3304  1.2897
  407TIP3   OH222635   0.304   1.142   4.424  0.3299 -0.0369  0.2124
  407TIP3    H122636   0.215   1.119   4.451  0.9239 -1.7430  0.8593
  407TIP3    H222637   0.357   1.127   4.502  1.1956  1.0006 -0.1556
  408TIP3   OH222638   6.435   5.239  11.258  0.7409  0.1922 -0.2805
  408TIP3    H122639   6.353   5.194  11.277  1.9886 -2.2611 -0.2390
  408TIP3    H222640   6.433   5.318  11.312 -0.4095 -1.2325  1.9319
  409TIP3   OH222641   4.698   1.853  17.337 -0.7851 -0.5862 -0.5383
  409TIP3    H122642   4.770   1.793  17.318 -1.7897 -2.0253  0.0256
  409TIP3    H222643   4.730   1.906  17.410  0.4013  0.1379 -1.5326
  410TIP3   OH222644   4.140   1.492  15.884 -0.5761 -0.2088  0.3470
  410TIP3    H122645   4.053   1.502  15.922 -0.9110  1.2445 -0.7296
  410TIP3    H222646   4.126   1.498  15.790  0.9030  2.3523  0.1979
  411TIP3   OH222647   3.355   3.569   5.740 -0.3142  0.3511 -0.1360
  411TIP3    H122648   3.422   3.621   5.785  0.5698 -1.0438  0.1894
  411TIP3    H222649   3.378   3.574   5.648 -0.6492  1.0924 -0.1930
  412TIP3   OH222650   1.762   5.163   1.599 -0.6781 -0.0131 -0.2572
  412TIP3    H122651   1.816   5.141   1.674 -1.7249 -0.0118  0.5211
  412TIP3    H222652   1.769   5.088   1.541 -0.8144 -0.5513  0.4104
  413TIP3   OH222653   3.136   0.025  16.101 -0.4289 -0.2349  0.0625
  413TIP3    H122654   3.098  -0.005  16.184 -0.3057 -1.1946 -0.2185
  413TIP3    H222655   3.215  -0.028  16.091 -0.4077 -0.0719 -0.6346
  414TIP3   OH222656   3.318   1.782  16.875 -0.2218 -0.0534  0.0322
  414TIP3    H122657   3.298   1.846  16.807  0.1909  0.0355 -0.0027
  414TIP3    H222658   3.361   1.710  16.829 -1.2853 -0.6747 -0.0457
  415TIP3   OH222659   0.491   1.252  11.721  1.0244 -0.1234  0.1028
  415TIP3    H122660   0.426   1.233  11.653  1.3649 -2.0617  0.2511
  415TIP3    H222661   0.502   1.347  11.718 -0.0021 -0.0096 -1.5863
  416TIP3   OH222662   3.971   5.191  12.468  0.4297  0.0226  0.2301
  416TIP3    H122663   3.946   5.163  12.379  2.4955 -0.7082 -0.1590
  416TIP3    H222664   4.057   5.231  12.457  1.6258 -1.8486  2.1721
  417TIP3   OH222665   4.358   2.185  14.074 -0.1079  0.3148  0.2936
  417TIP3    H122666   4.423   2.194  14.144  0.2455  0.2428 -0.0240
  417TIP3    H222667   4.309   2.106  14.096  0.3391  0.0043  0.1871
  418TIP3   OH222668   0.488   6.435  11.962  0.0718 -0.4199 -0.1224
  418TIP3    H122669   0.479   6.530  11.948 -0.3281 -0.2791  1.0226
  418TIP3    H222670   0.568   6.412  11.915 -0.2564  0.3386 -1.0897
  419TIP3   OH222671   0.916   1.516   3.987 -0.5113 -0.1819  0.1119
  419TIP3    H122672   0.986   1.451   3.977 -0.3107 -0.0723  0.7633
  419TIP3    H222673   0.933   1.556   4.072 -1.9786 -0.9039  0.7845
  420TIP3   OH222674   2.743   5.865   4.256 -0.4030 -0.8220  0.3687
  420TIP3    H122675   2.661   5.858   4.208 -1.3904  1.1964  1.6373
  420TIP3    H222676   2.792   5.934   4.210  0.5653 -1.9300 -0.3115
  421TIP3   OH222677   3.833   2.197  12.167  0.1193  0.3486 -0.0097
  421TIP3    H122678   3.829   2.257  12.093 -0.9726  1.0529  0.5811
  421TIP3    H222679   3.838   2.110  12.128 -2.5867  0.5343 -0.9980
  422TIP3   OH222680   6.092   1.232   4.558 -0.4549 -0.4358  0.4098
  422TIP3    H122681   6.115   1.322   4.533 -0.4601  0.3932  3.0957
  422TIP3    H222682   6.173   1.182   4.546  0.2125  0.4575  1.0983
  423TIP3   OH222683   3.926   3.139  16.826  0.0681 -0.5125  0.1927
  423TIP3    H122684   3.960   3.200  16.892 -3.6719  1.5481  0.4721
  423TIP3    H222685   3.883   3.070  16.878  1.8962 -2.0464 -0.1816
  424TIP3   OH222686   5.309   3.593   0.981 -0.1085 -0.7060  0.7802
  424TIP3    H122687   5.295   3.678   1.022  2.8863 -0.9454  2.6701
  424TIP3    H222688   5.344   3.614   0.894  0.4554  0.0058  1.1688
  425TIP3   OH222689   1.374   6.620  14.984 -0.3748  0.0527  0.0538
  425TIP3    H122690   1.327   6.658  15.058 -1.4356 -1.4656  0.2039
  425TIP3    H222691   1.388   6.694  14.924 -0.8158  1.0092  1.0981
  426TIP3   OH222692   6.097   4.230  15.526 -0.1032  0.3899  0.5083
  426TIP3    H122693   6.055   4.306  15.567 -0.2165  0.7515 -0.2700
  426TIP3    H222694   6.031   4.196  15.466  0.2503  0.1691  0.2463
  427TIP3   OH222695   4.075   2.678  12.219 -0.2795  0.7125 -0.0146
  427TIP3    H122696   3.996   2.708  12.175  0.2441 -0.0798 -1.5943
  427TIP3    H222697   4.147   2.708  12.163  0.3841 -0.9161 -0.1004
  428TIP3   OH222698   5.214   1.228  17.150  0.2932 -0.1161  0.8187
  428TIP3    H122699   5.155   1.264  17.083  1.3307 -0.7431 -0.4913
  428TIP3    H222700   5.222   1.297  17.215 -1.9980 -0.0701  1.1344
  429TIP3   OH222701   5.073   3.203   3.507  0.0386  0.2266  0.7366
  429TIP3    H122702   4.995   3.202   3.452 -0.7274 -1.3687  1.7813
  429TIP3    H222703   5.070   3.289   3.550 -0.8862  0.3776  0.4065
  430TIP3   OH222704   3.856   0.267   5.426  0.5646  0.1573 -0.0614
  430TIP3    H122705   3.776   0.239   5.470  0.8735 -2.5844 -1.0562
  430TIP3    H222706   3.925   0.253   5.489  0.5758 -0.1010 -0.1319
  431TIP3   OH222707   2.465   4.014  16.605 -0.4078 -0.0021  0.0151
  431TIP3    H122708   2.469   4.037  16.697 -2.1436 -1.3161  0.4657
  431TIP3    H222709   2.372   4.004  16.586 -0.1120  0.4547 -1.9493
  432TIP3   OH222710   2.194   4.384  13.250  0.1937 -0.0234 -0.2510
  432TIP3    H122711   2.225   4.294  13.243  2.5807  0.7964 -1.3416
  432TIP3    H222712   2.191   4.415  13.159 -2.5481  0.4627 -0.0823
  433TIP3   OH222713   4.621   6.207   6.016 -0.2771 -0.4982  0.0037
  433TIP3    H122714   4.663   6.141   6.071  0.2479  0.1052  0.3425
  433TIP3    H222715   4.533   6.173   6.001  0.1470 -1.5352 -0.2763
  434TIP3   OH222716   3.217   6.154  16.085 -0.5146  0.2802  0.5099
  434TIP3    H122717   3.205   6.236  16.134 -0.8520  1.3380 -1.2415
  434TIP3    H222718   3.129   6.131  16.056 -0.3288 -0.3722  0.4456
  435TIP3   OH222719   0.420   6.070   5.058 -0.1756 -0.1804  0.0417
  435TIP3    H122720   0.451   6.051   4.969 -0.5874 -1.4278  0.1442
  435TIP3    H222721   0.363   5.997   5.079 -0.2386  0.2067  1.2694
  436TIP3   OH222722   6.019   1.340   1.908  0.3456  0.0456 -0.1332
  436TIP3    H122723   5.999   1.432   1.891  2.1956  0.8528  1.5891
  436TIP3    H222724   6.027   1.334   2.003 -0.0579 -1.9955 -0.1755
  437TIP3   OH222725   6.133   5.682   4.011  0.4507 -0.0113  0.3129
  437TIP3    H122726   6.171   5.631   3.939  0.5985 -1.3044  1.2714
  437TIP3    H222727   6.118   5.618   4.081  1.2515  1.3689  1.8156
  438TIP3   OH222728   1.432   2.757   2.851 -0.0771  0.5610 -0.0703
  438TIP3    H122729   1.441   2.828   2.787  1.8592  3.0401  2.6873
  438TIP3    H222730   1.372   2.791   2.917  1.4358  0.0159  1.6811
  439TIP3   OH222731   1.172   5.417  16.490 -0.0000  0.0792 -0.2196
  439TIP3    H122732   1.159   5.507  16.459 -3.4316 -0.1330  0.1285
  439TIP3    H222733   1.191   5.427  16.583 -1.2672  0.5032  0.0258
  440TIP3   OH222734   2.220   4.693   1.977 -0.3728  0.7142 -0.1984
  440TIP3    H122735   2.231   4.639   2.056 -1.6673 -2.1263 -1.7875
  440TIP3    H222736   2.287   4.661   1.917 -0.6076  1.5132 -0.9068
  441TIP3   OH222737   3.717   5.078   4.071  0.2434 -0.1825  0.0209
  441TIP3    H122738   3.683   5.119   3.991  1.5943 -0.7287 -0.8560
  441TIP3    H222739   3.728   4.986   4.048  1.2228 -0.2288  0.6386
  442TIP3   OH222740   4.333   6.058   5.002  0.4661 -0.3947  0.3805
  442TIP3    H122741   4.366   6.104   4.925  0.4363  0.8309  1.0748
  442TIP3    H222742   4.411   6.047   5.058  0.0715  0.7901  1.1818
  443TIP3   OH222743   3.651   5.164   0.095  0.4700  0.3458  0.4371
  443TIP3    H122744   3.602   5.236   0.135 -1.8053 -1.8019  1.8135
  443TIP3    H222745   3.596   5.136   0.022  1.4692  0.1613 -0.2640
  444TIP3   OH222746   1.626   4.920  10.655 -0.1296 -0.0383  0.7143
  444TIP3    H122747   1.678   4.939  10.577 -0.8156  1.3900  0.5783
  444TIP3    H222748   1.690   4.906  10.724  0.4713  1.5215  0.5089
  445TIP3   OH222749   6.707   1.573  14.077  0.0594  0.4635  0.2156
  445TIP3    H122750   6.643   1.532  14.018 -0.2438  0.0758  0.8067
  445TIP3    H222751   6.730   1.654  14.033 -0.9497  0.6842  0.0560
  446TIP3   OH222752   2.427   6.700   0.294  0.1403 -0.3533 -0.2667
  446TIP3    H122753   2.409   6.703   0.200 -2.7666  1.0341  0.1998
  446TIP3    H222754   2.515   6.737   0.302 -0.3904  1.6746 -2.3335
  447TIP3   OH222755   3.873   1.962   6.087 -0.1333 -0.2652  0.3737
  447TIP3    H122756   3.931   1.940   6.160  0.5917  2.3616  0.6688
  447TIP3    H222757   3.786   1.935   6.116  0.3479 -0.5185  1.6267
  448TIP3   OH222758   5.242   2.074  14.764 -0.2172  0.2542  0.1560
  448TIP3    H122759   5.218   2.127  14.688 -0.2192  0.4915  0.3185
  448TIP3    H222760   5.271   2.138  14.829  0.4071  0.0083  0.1263
  449TIP3   OH222761   1.244   5.706  15.201  0.4425  0.1710  0.3834
  449TIP3    H122762   1.333   5.677  15.221  0.0770 -2.2733 -1.2515
  449TIP3    H222763   1.256   5.774  15.134  1.0653 -1.6661 -1.4693
  450TIP3   OH222764   3.347   5.292  12.343  0.3776 -0.0820  0.4521
  450TIP3    H122765   3.313   5.304  12.254 -0.1424 -0.0551  0.6533
  450TIP3    H222766   3.442   5.280  12.331  0.5446  1.4844  0.0297
  451TIP3   OH222767   2.961   3.240  12.658  0.5259 -0.3179 -0.2594
  451TIP3    H122768   2.941   3.240  12.565  2.8171  1.4403 -0.8333
  451TIP3    H222769   2.982   3.331  12.679  0.6645 -0.7667  1.8477
  452TIP3   OH222770   6.027   1.003   1.871 -0.3185 -0.0905 -0.3467
  452TIP3    H122771   6.088   0.931   1.886 -0.5384 -0.2214 -0.0474
  452TIP3    H222772   6.079   1.082   1.881 -0.3370 -0.1839  0.6185
  453TIP3   OH222773   6.721   3.925  15.644  0.6850 -0.8498  0.1656
  453TIP3    H122774   6.715   4.009  15.689 -0.4507 -0.7803 -0.0827
  453TIP3    H222775   6.732   3.861  15.715 -0.5317 -0.6847  0.5395
  454TIP3   OH222776   0.243   0.864  14.477 -0.2849  0.1337 -0.1390
  454TIP3    H122777   0.325   0.824  14.508 -0.5953 -0.0889  0.4249
  454TIP3    H222778   0.263   0.895  14.389  0.4373  0.1733  0.0301
  455TIP3   OH222779   0.703   2.526   0.113 -0.0135 -0.1630  0.2713
  455TIP3    H122780   0.697   2.547   0.019  0.4365 -1.0356  0.0392
  455TIP3    H222781   0.727   2.434   0.116 -0.3795 -0.2389  1.2614
  456TIP3   OH222782   0.229   1.367  11.544  0.1905  0.6125  0.7902
  456TIP3    H122783   0.265   1.329  11.463  2.2457  0.2586  1.8164
  456TIP3    H222784   0.227   1.461  11.527  0.3952  0.5250  0.2530
  457TIP3   OH222785   0.848   1.199  12.991  0.3534  0.5591 -0.1170
  457TIP3    H122786   0.905   1.132  13.028  0.1837  0.0790 -0.7119
  457TIP3    H222787   0.905   1.275  12.979  0.5608  0.5022  0.4938
  458TIP3   OH222788   4.534   6.525   1.902  0.2849 -0.1032 -0.3419
  458TIP3    H122789   4.492   6.533   1.817 -2.8043 -1.5623  0.8866
  458TIP3    H222790   4.556   6.432   1.910 -2.0950 -0.6203  1.4467
  459TIP3   OH222791   5.192   3.720  11.318  0.0068 -0.5693  0.1859
  459TIP3    H122792   5.222   3.703  11.229  1.0950  0.5961  0.2955
  459TIP3    H222793   5.218   3.642  11.368  0.4355 -0.7295 -0.2838
  460TIP3   OH222794   2.956   6.128  11.961  0.1078 -0.9200 -0.5164
  460TIP3    H122795   2.891   6.198  11.955  1.1771  0.0494 -1.0887
  460TIP3    H222796   2.910   6.057  12.006 -0.3885  0.8729  2.0719
  461TIP3   OH222797   0.310   2.042  15.992  0.2038  0.1683 -0.8289
  461TIP3    H122798   0.230   2.036  15.940  0.2099  0.7554 -0.9084
  461TIP3    H222799   0.376   1.997  15.939  0.0803  0.2662 -1.0697
  462TIP3   OH222800   4.277   5.077  12.251 -0.3583 -0.4915 -0.7501
  462TIP3    H122801   4.251   5.162  12.285  0.5172 -0.6823  0.4617
  462TIP3    H222802   4.340   5.044  12.315 -2.7007 -3.2904  0.3624
  463TIP3   OH222803   2.258   0.807  14.663  0.4857  0.4295  0.1992
  463TIP3    H122804   2.303   0.787  14.745  0.7852  1.7542  0.3828
  463TIP3    H222805   2.165   0.801  14.685  0.5299  2.4000  1.1150
  464TIP3   OH222806   2.645   5.550   5.871 -0.2315 -0.7500 -0.0687
  464TIP3    H122807   2.602   5.507   5.945  2.2726 -0.3213  1.7670
  464TIP3    H222808   2.724   5.589   5.908  0.8164  0.0768 -2.8782
  465TIP3   OH222809   6.162   4.900  15.365 -0.1405  0.3632  0.5430
  465TIP3    H122810   6.235   4.896  15.428  0.6093  0.4076 -0.2959
  465TIP3    H222811   6.118   4.982  15.384  1.2974  1.3660 -0.2595
  466TIP3   OH222812   3.373   3.474  13.444 -0.3617  0.1815  0.3766
  466TIP3    H122813   3.290   3.434  13.417 -1.8253  3.1899 -0.0150
  466TIP3    H222814   3.389   3.438  13.531 -2.0336 -0.5485  0.4310
  467TIP3   OH222815   5.082   0.189   3.741 -0.0627  0.0558 -0.0579
  467TIP3    H122816   5.103   0.259   3.802 -2.7882  1.8957 -1.0583
  467TIP3    H222817   5.150   0.194   3.674  1.0778  0.1710  1.0680
  468TIP3   OH222818   3.073   4.709   3.109 -0.1719  0.3526 -0.2009
  468TIP3    H122819   3.153   4.672   3.146 -1.9972 -2.6815  1.0939
  468TIP3    H222820   3.034   4.758   3.181 -1.0150 -0.9309  0.2551
  469TIP3   OH222821   3.097   1.812   4.125  0.0352  0.2317 -0.3001
  469TIP3    H122822   3.033   1.834   4.193  1.1974  0.8820  0.6259
  469TIP3    H222823   3.055   1.840   4.043 -0.3764  1.8193  0.4054
  470TIP3   OH222824   6.592   6.514  11.050  0.2480 -0.5086 -0.5170
  470TIP3    H122825   6.645   6.448  11.096  1.4282  0.5199 -0.3412
  470TIP3    H222826   6.506   6.473  11.039  0.6732 -1.7073  0.4318
  471TIP3   OH222827   1.437   2.529  11.355  0.1449 -0.7325 -0.2899
  471TIP3    H122828   1.531   2.536  11.340 -0.0117 -0.6588 -1.3901
  471TIP3    H222829   1.418   2.436  11.352  0.2459 -0.7762  0.3897
  472TIP3   OH222830   3.264   5.340  16.108  0.0408 -0.1378 -0.2850
  472TIP3    H122831   3.297   5.407  16.168  1.6303 -2.0483  1.0902
  472TIP3    H222832   3.199   5.292  16.159 -0.1129 -0.5004 -0.8146
  473TIP3   OH222833   3.703   0.861  16.164 -0.0260  0.5295 -0.0593
  473TIP3    H122834   3.664   0.908  16.237 -0.3798  1.3125 -0.7411
  473TIP3    H222835   3.797   0.877  16.172 -0.1029  0.9771 -0.0203
  474TIP3   OH222836   1.549   3.142  16.592 -0.5195 -0.7099  0.7114
  474TIP3    H122837   1.484   3.168  16.657 -0.9923 -0.6060  0.2079
  474TIP3    H222838   1.544   3.210  16.524  1.5629  0.4583  1.6085
  475TIP3   OH222839   0.308   5.883   3.640  0.4151  0.1410  0.0478
  475TIP3    H122840   0.213   5.883   3.645  0.4630  0.1000  1.1890
  475TIP3    H222841   0.329   5.822   3.570 -0.3556 -0.9753  0.7717
  476TIP3   OH222842   3.082   5.457   2.704 -0.1402  0.1587 -0.0658
  476TIP3    H122843   3.090   5.502   2.788  0.4339 -2.0697  1.1312
  476TIP3    H222844   2.996   5.416   2.707 -1.3483  2.3263 -1.8227
  477TIP3   OH222845   2.064   4.100  13.604  0.4207  0.4201 -0.0556
  477TIP3    H122846   2.143   4.140  13.568 -0.4023  2.9419  0.7180
  477TIP3    H222847   2.069   4.115  13.698 -0.3356 -0.6191  0.1684
  478TIP3   OH222848   3.310   1.620  13.022  0.0802  0.0546  0.2561
  478TIP3    H122849   3.272   1.686  12.964  0.5428  1.3349  1.3455
  478TIP3    H222850   3.363   1.565  12.964 -0.4578  0.5279 -0.7116
  479TIP3   OH222851   4.373   6.387   3.262 -0.3754  0.2983 -0.6656
  479TIP3    H122852   4.366   6.304   3.308  1.4786 -0.0500 -0.9185
  479TIP3    H222853   4.298   6.438   3.292 -1.4335 -1.3758 -0.3514
  480TIP3   OH222854   2.439   4.654   5.534  0.1983  0.1374  0.7505
  480TIP3    H122855   2.468   4.646   5.625 -0.8281  2.0137  1.3024
  480TIP3    H222856   2.428   4.749   5.521 -1.1369 -0.1963 -0.8556
  481TIP3   OH222857   4.036   4.039  15.905  0.6027  0.2919  0.2151
  481TIP3    H122858   4.053   4.133  15.890  0.0589  0.3062 -0.3538
  481TIP3    H222859   4.030   4.031  16.000 -1.6688  1.2692  0.2153
  482TIP3   OH222860   3.229   4.453   5.889  0.4430 -0.1231 -0.1112
  482TIP3    H122861   3.295   4.472   5.956  0.6900  2.3578 -0.9445
  482TIP3    H222862   3.270   4.386   5.834  2.7921  1.9877 -1.1414
  483TIP3   OH222863   5.653   0.733   0.434  0.1978  0.0950 -0.3459
  483TIP3    H122864   5.585   0.699   0.376  0.8362 -2.1812  0.1575
  483TIP3    H222865   5.720   0.665   0.437  1.0775  0.9494  1.5629
  484TIP3   OH222866   2.480   5.658   2.052 -0.1365  0.7351  0.1707
  484TIP3    H122867   2.412   5.613   2.102 -0.8124  1.6320  0.0912
  484TIP3    H222868   2.562   5.631   2.093 -0.6818  1.7188  2.0216
  485TIP3   OH222869   1.273   6.274  14.721 -0.3486  0.2506 -0.0600
  485TIP3    H122870   1.343   6.209  14.720 -1.1427 -0.6616 -2.0570
  485TIP3    H222871   1.313   6.353  14.684  0.4764  0.8148  1.9059
  486TIP3   OH222872   5.619   3.435   4.718 -0.0727 -0.0034 -0.2097
  486TIP3    H122873   5.589   3.356   4.763  0.4135  0.5060  1.0762
  486TIP3    H222874   5.655   3.403   4.635 -1.4159 -0.9289 -0.4724
  487TIP3   OH222875   4.729   0.612  13.484 -0.3046 -0.4787 -0.1229
  487TIP3    H122876   4.715   0.583  13.393 -0.6081 -0.9552  0.0747
  487TIP3    H222877   4.749   0.532  13.532  1.5511 -0.0258 -0.0824
  488TIP3   OH222878   4.000   5.235   4.434  0.3590 -0.0926 -0.6510
  488TIP3    H122879   4.015   5.324   4.466  0.3618 -0.3609  0.1159
  488TIP3    H222880   4.064   5.182   4.481  0.3802 -0.4994 -1.1308
  489TIP3   OH222881   5.915   2.350   1.579  0.0790  0.1679  0.1143
  489TIP3    H122882   5.899   2.428   1.528 -1.1530 -0.9952 -1.3634
  489TIP3    H222883   6.007   2.328   1.562  0.3305  1.0805  0.2749
  490TIP3   OH222884   5.603   4.300  12.221 -1.0830  0.4188  0.3397
  490TIP3    H122885   5.549   4.249  12.281  0.6518 -1.0363  0.7265
  490TIP3    H222886   5.571   4.390  12.231 -1.6795  0.0248  2.4942
  491TIP3   OH222887   1.814   4.287   1.884 -0.1403 -0.4332  0.0984
  491TIP3    H122888   1.787   4.373   1.916 -1.5453 -0.1597 -1.6418
  491TIP3    H222889   1.764   4.276   1.803  0.1746 -2.8052  0.1765
  492TIP3   OH222890   3.003   2.506   3.027  0.1032 -0.3321  0.3166
  492TIP3    H122891   2.998   2.426   3.079 -0.2941 -0.8838 -0.5437
  492TIP3    H222892   2.911   2.531   3.015  0.1071 -0.9173 -1.1516
  493TIP3   OH222893   6.396   4.841   3.095 -0.6078  0.3313  0.3663
  493TIP3    H122894   6.427   4.899   3.025 -1.2257 -0.5831 -0.6982
  493TIP3    H222895   6.436   4.756   3.076  0.4583  0.4255  2.0333
  494TIP3   OH222896   0.114   0.661   3.784  0.7404 -0.1228 -0.3693
  494TIP3    H122897   0.074   0.586   3.828  1.3492 -0.9486 -1.1904
  494TIP3    H222898   0.101   0.734   3.845  0.3922 -0.9469  0.5768
  495TIP3   OH222899   6.470   1.164   4.627 -0.2948  0.4591 -0.0489
  495TIP3    H122900   6.490   1.207   4.710 -0.8649 -0.3561  0.5250
  495TIP3    H222901   6.461   1.236   4.565 -0.6908  1.1423  0.7775
  496TIP3   OH222902   2.916   4.412  13.618 -0.3481 -0.2303  0.1449
  496TIP3    H122903   2.995   4.379  13.574  0.3843  1.2261  0.3212
  496TIP3    H222904   2.862   4.334  13.633  1.3907 -1.3627  0.7116
  497TIP3   OH222905   0.670   5.743   4.915  0.5843 -0.0389 -0.9800
  497TIP3    H122906   0.641   5.821   4.869  1.1045 -0.3569 -1.8723
  497TIP3    H222907   0.616   5.672   4.880  0.1780 -0.1110 -0.2430
  498TIP3   OH222908   5.442   6.248  14.720  0.1147  0.1791 -0.9203
  498TIP3    H122909   5.358   6.202  14.709 -0.8665  1.8596 -0.8826
  498TIP3    H222910   5.489   6.231  14.639 -0.4862 -0.3501 -1.1692
  499TIP3   OH222911   1.684   5.167   6.339 -1.0320  0.0760 -0.3423
  499TIP3    H122912   1.751   5.099   6.336  0.2303  1.3080 -1.7852
  499TIP3    H222913   1.654   5.175   6.249 -2.4164  0.2660  0.1134
  500TIP3   OH222914   3.405   0.273   3.110 -0.2704  0.1870  0.0582
  500TIP3    H122915   3.364   0.225   3.038 -0.1596 -0.8177  0.6407
  500TIP3    H222916   3.369   0.361   3.105  0.7787  0.5549 -2.0742
  501TIP3   OH222917   6.447   5.057   2.904 -0.6263  0.4638  0.3128
  501TIP3    H122918   6.381   5.077   2.836  0.0577 -2.5465 -1.3908
  501TIP3    H222919   6.530   5.055   2.856 -0.1447 -1.9128  1.1490
  502TIP3   OH222920   1.370   3.478   3.116 -0.2832  0.4148  0.0023
  502TIP3    H122921   1.465   3.461   3.115 -0.3580 -0.0589  0.4191
  502TIP3    H222922   1.362   3.571   3.137  0.1037  0.5966 -0.6341
  503TIP3   OH222923   1.040   1.618   4.927 -0.2355 -0.1533 -0.8210
  503TIP3    H122924   1.118   1.562   4.932 -1.1648 -1.4884 -0.8099
  503TIP3    H222925   1.072   1.700   4.891  1.5893  0.1020  1.1687
  504TIP3   OH222926   5.745   1.914  14.205 -0.2251 -0.2028 -0.1598
  504TIP3    H122927   5.773   1.969  14.132 -0.4129  0.6022  0.3623
  504TIP3    H222928   5.817   1.851  14.217  0.6394  0.7984  0.1104
  505TIP3   OH222929   1.923   6.472  14.739  0.3691  0.1000 -0.3936
  505TIP3    H122930   1.893   6.550  14.787 -0.1587  0.0006 -0.5508
  505TIP3    H222931   1.906   6.399  14.799  0.9799  0.1140 -0.1959
  506TIP3   OH222932   1.438   3.272  16.364 -0.2641  0.0458 -0.2101
  506TIP3    H122933   1.362   3.322  16.392 -1.0295 -0.7116 -0.8668
  506TIP3    H222934   1.402   3.191  16.327  0.9447 -1.3146  1.3940
  507TIP3   OH222935   2.872   1.997   0.977  0.4907  0.4082  0.2176
  507TIP3    H122936   2.890   1.907   1.004 -1.6502 -0.5457 -1.2876
  507TIP3    H222937   2.806   2.027   1.040 -2.1333 -0.7246 -1.7976
  508TIP3   OH222938   1.228   5.740  12.206  0.2372  0.0451 -0.0092
  508TIP3    H122939   1.256   5.744  12.297 -0.6783  0.2488  0.2760
  508TIP3    H222940   1.225   5.832  12.178  1.4649 -0.0624 -0.5620
  509TIP3   OH222941   0.309   4.378  13.417 -0.3340  0.1665 -0.2755
  509TIP3    H122942   0.222   4.382  13.378 -0.0437 -0.6248 -1.0309
  509TIP3    H222943   0.293   4.353  13.509 -0.9657  1.2289 -0.0790
  510TIP3   OH222944   0.992   0.868  13.963  0.0771  0.2166  0.2786
  510TIP3    H122945   1.065   0.884  14.022 -0.6269  1.0288  0.9422
  510TIP3    H222946   0.946   0.952  13.957 -0.8718 -0.3088 -0.0429
  511TIP3   OH222947   2.702   5.234  14.336  0.4631 -0.2701  0.3624
  511TIP3    H122948   2.762   5.240  14.262  2.3874  0.5256  1.8938
  511TIP3    H222949   2.636   5.300  14.319  0.7828 -0.2209 -0.7275
  512TIP3   OH222950   1.231   2.279   4.337  0.0962  0.2191 -0.4999
  512TIP3    H122951   1.184   2.362   4.338  0.8250  0.6455 -0.7097
  512TIP3    H222952   1.304   2.293   4.276  0.9553 -0.1586  0.4024
  513TIP3   OH222953   0.963   0.346  11.138  0.2922  0.5944  0.4042
  513TIP3    H122954   0.875   0.318  11.112  0.4287 -0.7027  1.2589
  513TIP3    H222955   0.965   0.440  11.117 -1.4851  0.7869  0.8802
  514TIP3   OH222956   6.130   3.751  15.417  0.2935  0.2691 -0.3438
  514TIP3    H122957   6.136   3.818  15.484  0.3673  0.4302 -0.5121
  514TIP3    H222958   6.068   3.785  15.353 -0.7329 -0.4162  0.2516
  515TIP3   OH222959   3.755   1.258  15.835 -0.3101 -0.1207 -0.6488
  515TIP3    H122960   3.701   1.203  15.777 -2.0577  1.4291 -0.5935
  515TIP3    H222961   3.746   1.217  15.921 -0.5208 -0.5010 -0.8443
  516TIP3   OH222962   5.252   4.165   0.341  0.3866 -0.1438  0.0591
  516TIP3    H122963   5.243   4.074   0.368 -0.9397 -0.3957 -1.1314
  516TIP3    H222964   5.194   4.173   0.265 -0.6919  2.0798  1.0482
  517TIP3   OH222965   4.367   2.703  11.167 -0.5112 -0.0666 -0.1680
  517TIP3    H122966   4.290   2.661  11.128 -0.0634 -0.1866 -0.9563
  517TIP3    H222967   4.436   2.637  11.158 -0.2692  0.1152  0.3525
  518TIP3   OH222968   3.937   1.075  10.731  0.1901 -0.0941 -0.2497
  518TIP3    H122969   3.865   1.127  10.766 -0.4387 -1.1947  0.1286
  518TIP3    H222970   3.978   1.132  10.666  1.3648  2.0177  2.1596
  519TIP3   OH222971   6.546   5.159   1.408 -0.1604  0.1903 -0.2881
  519TIP3    H122972   6.587   5.244   1.393  1.2471 -0.5691 -0.9758
  519TIP3    H222973   6.481   5.150   1.338 -0.3045  0.6793 -0.2203
  520TIP3   OH222974   5.676   0.582  15.799 -0.6314  0.5122  0.0416
  520TIP3    H122975   5.675   0.597  15.893  2.1796  0.1976  0.2099
  520TIP3    H222976   5.752   0.629  15.767 -0.7106 -0.5191 -1.8663
  521TIP3   OH222977   3.880   3.878  13.469 -0.1000 -0.0077 -0.4104
  521TIP3    H122978   3.784   3.881  13.461 -0.1971  1.8344  0.9178
  521TIP3    H222979   3.911   3.870  13.379 -1.4883 -0.7631 -0.8610
  522TIP3   OH222980   4.646   5.493  13.319 -0.4247  0.0890 -0.1631
  522TIP3    H122981   4.652   5.530  13.231 -1.9447 -0.9196 -0.7451
  522TIP3    H222982   4.657   5.568  13.378  1.3460  0.6616 -1.1784
  523TIP3   OH222983   6.037   4.514  11.914 -0.2681  0.2266  0.0578
  523TIP3    H122984   6.090   4.586  11.878  3.6151 -1.8485  0.9971
  523TIP3    H222985   6.011   4.545  12.001  4.2257 -0.4089  1.9008
  524TIP3   OH222986   0.452   0.416   5.669  0.1049  0.0622 -0.0112
  524TIP3    H122987   0.380   0.359   5.642  1.4824 -0.6059 -2.5327
  524TIP3    H222988   0.428   0.444   5.757 -2.2970 -1.6418 -0.0276
  525TIP3   OH222989   6.105   1.273   3.287 -0.4572  0.3946 -0.2560
  525TIP3    H122990   6.138   1.358   3.318  1.6930 -0.4240 -0.1659
  525TIP3    H222991   6.091   1.222   3.366  1.1387 -0.3241 -0.4120
  526TIP3   OH222992   4.313   3.704   5.904 -0.2786  0.1347 -0.5243
  526TIP3    H122993   4.393   3.754   5.919  1.1547 -2.0179 -0.5311
  526TIP3    H222994   4.292   3.719   5.812  0.7689 -0.1034 -0.8156
  527TIP3   OH222995   0.230   4.737  15.161 -0.4167  0.4864 -0.3300
  527TIP3    H122996   0.188   4.823  15.161  1.2340  1.4485 -3.1066
  527TIP3    H222997   0.200   4.696  15.079 -0.9894 -1.5348  0.8364
  528TIP3   OH222998   4.566   3.084   3.983  0.5077  0.3542  0.3216
  528TIP3    H122999   4.509   3.157   3.960  0.2323 -0.8726 -3.6858
  528TIP3    H223000   4.653   3.122   3.989  0.2042  1.2448 -0.5560
  529TIP3   OH223001   1.092   5.899  13.823  0.5123 -0.1326  0.3200
  529TIP3    H123002   1.161   5.933  13.765  0.3003 -0.1001  0.0834
  529TIP3    H223003   1.139   5.848  13.889  0.8023  0.2775  0.4354
  530TIP3   OH223004   5.279   6.675   2.041 -0.2198  0.4631  0.3809
  530TIP3    H123005   5.193   6.711   2.062 -0.7723 -1.8376  2.6103
  530TIP3    H223006   5.336   6.751   2.033 -1.9220  1.9370  1.5390
  531TIP3   OH223007   3.160   1.748   0.070  0.7724  0.0881 -0.2196
  531TIP3    H123008   3.141   1.658   0.042  0.4920 -0.8415  2.6763
  531TIP3    H223009   3.255   1.755   0.066  1.0172 -1.2547  1.8804
  532TIP3   OH223010   5.751   1.486  17.083 -0.0357  0.1983 -0.2879
  532TIP3    H123011   5.825   1.520  17.033  0.2162 -0.8360 -0.6452
  532TIP3    H223012   5.753   1.533  17.166  0.1234  1.2461 -0.8802
  533TIP3   OH223013   0.608   0.240   6.437  0.1805  0.0623 -0.1744
  533TIP3    H123014   0.577   0.301   6.504 -2.7957 -0.8914 -0.5601
  533TIP3    H223015   0.604   0.154   6.480 -0.1241 -0.3678 -1.0467
  534TIP3   OH223016   6.183   2.364   1.560 -0.1123  0.8557  0.1898
  534TIP3    H123017   6.169   2.440   1.618 -0.3724 -0.6274  2.1909
  534TIP3    H223018   6.278   2.352   1.559  0.0486  1.9939 -1.2683
  535TIP3   OH223019   0.709   4.513  16.688  0.1621  0.0355  0.1670
  535TIP3    H123020   0.674   4.572  16.755  0.8556  1.4700 -0.7005
  535TIP3    H223021   0.803   4.526  16.691  0.5067 -2.2178  1.0103
  536TIP3   OH223022   5.461   3.435   1.556 -0.3856 -0.7346  0.1583
  536TIP3    H123023   5.505   3.421   1.472  0.5501 -0.2906  0.5668
  536TIP3    H223024   5.437   3.527   1.556 -2.0662 -1.1339 -0.3953
  537TIP3   OH223025   1.502   2.425  14.089  0.7133 -0.1625 -0.1632
  537TIP3    H123026   1.540   2.438  14.002 -0.0075 -0.2203 -0.4862
  537TIP3    H223027   1.456   2.507  14.108  0.5357 -0.2987 -0.0026
  538TIP3   OH223028   5.438   3.821  15.424  0.2645 -0.2115  0.3027
  538TIP3    H123029   5.468   3.775  15.346 -1.7202 -3.3495  1.2130
  538TIP3    H223030   5.357   3.864  15.396 -0.6383 -1.6312  0.6578
  539TIP3   OH223031   6.474   2.085  12.397  0.4294 -0.2226  0.7919
  539TIP3    H123032   6.562   2.068  12.363  0.0090 -0.6574 -0.1085
  539TIP3    H223033   6.466   2.028  12.473  1.0740  0.1361  1.1393
  540TIP3   OH223034   4.825   3.021  17.004 -0.5306 -0.3180 -0.2629
  540TIP3    H123035   4.815   2.978  16.919  2.2468  0.4326 -1.0706
  540TIP3    H223036   4.803   3.113  16.987 -0.0803 -0.1894 -0.1684
  541TIP3   OH223037   6.222   5.930  15.334  0.2189  0.0453  0.0230
  541TIP3    H123038   6.220   6.022  15.306  0.7120 -0.0030 -0.1862
  541TIP3    H223039   6.220   5.881  15.252  0.2155 -0.1253  0.1260
  542TIP3   OH223040   2.105   5.409  15.225 -0.7959 -0.1335 -0.3018
  542TIP3    H123041   2.059   5.364  15.154 -1.1248  0.0553 -0.2115
  542TIP3    H223042   2.121   5.341  15.290 -0.7222 -0.2539 -0.4449
  543TIP3   OH223043   2.670   0.840  14.566  0.4847 -0.0390 -0.5575
  543TIP3    H123044   2.711   0.821  14.650 -1.7405  0.8485  0.8167
  543TIP3    H223045   2.722   0.790  14.502  2.3050 -0.6423  1.2910
  544TIP3   OH223046   1.740   4.038   1.300  0.0811 -0.9597  0.0907
  544TIP3    H123047   1.814   4.014   1.355  0.0212 -0.2814  0.4785
  544TIP3    H223048   1.753   3.989   1.219  1.7941  0.2996 -0.4540
  545TIP3   OH223049   4.812   6.374   4.633  0.0283 -0.2099 -0.1873
  545TIP3    H123050   4.730   6.421   4.649  0.5929  0.5387  0.5916
  545TIP3    H223051   4.784   6.288   4.602 -1.0794 -0.2490  0.8197
  546TIP3   OH223052   5.971   5.380   1.552  0.2822  0.1815  0.6127
  546TIP3    H123053   5.966   5.375   1.647  0.2334 -0.3477  0.5833
  546TIP3    H223054   5.927   5.301   1.521  1.3404 -0.2583  0.1706
  547TIP3   OH223055   5.109   0.806  14.768 -0.4646 -0.1791  0.6922
  547TIP3    H123056   5.156   0.853  14.700 -1.8023  1.7043  0.9932
  547TIP3    H223057   5.151   0.720  14.771  1.7205  0.7753 -0.2686
  548TIP3   OH223058   2.628   5.384   2.276  0.0140 -0.3281 -0.4333
  548TIP3    H123059   2.644   5.370   2.369  2.1138  0.0830 -0.6939
  548TIP3    H223060   2.538   5.417   2.272 -0.8267 -2.2308  1.2378
  549TIP3   OH223061   2.602   0.672   5.911  0.4910  0.1990  0.1334
  549TIP3    H123062   2.543   0.621   5.856 -1.0726  0.7810  1.2075
  549TIP3    H223063   2.568   0.761   5.907  1.8062  0.7201  0.1294
  550TIP3   OH223064   5.311   4.791   0.006 -0.0195 -0.6408 -0.1475
  550TIP3    H123065   5.256   4.766   0.081  0.4700 -0.8468  0.1505
  550TIP3    H223066   5.263   4.862  -0.035 -2.1539 -2.8551 -1.8225
  551TIP3   OH223067   6.106   3.719   5.268 -1.0268 -0.8024 -0.0282
  551TIP3    H123068   6.138   3.646   5.321  0.9763  1.0316  1.4760
  551TIP3    H223069   6.033   3.755   5.319 -0.7807 -0.6114  0.1915
  552TIP3   OH223070   3.767   6.225  16.871 -0.4498 -0.1207  0.1136
  552TIP3    H123071   3.712   6.223  16.792  1.1800  0.5978 -1.0835
  552TIP3    H223072   3.726   6.290  16.928 -0.8738  0.3615 -0.7332
  553TIP3   OH223073   2.073   3.811   0.641  0.2094 -0.1285 -0.0264
  553TIP3    H123074   2.007   3.768   0.696 -1.8425  0.2877 -2.0105
  553TIP3    H223075   2.109   3.880   0.696 -1.6252  0.1605  0.8817
  554TIP3   OH223076   4.767   3.891  12.263  0.3661  0.2663 -0.0637
  554TIP3    H123077   4.710   3.845  12.324 -1.7098  2.7928  0.0832
  554TIP3    H223078   4.804   3.963  12.314 -1.9404  2.8365 -1.7818
  555TIP3   OH223079   0.326   2.247  14.605  0.1053 -0.2678  0.2420
  555TIP3    H123080   0.356   2.166  14.563  0.5229 -0.7926  1.5023
  555TIP3    H223081   0.401   2.276  14.657 -0.6453 -0.0707  1.2460
  556TIP3   OH223082   1.746   1.472  16.353  0.0675  0.0699  0.2641
  556TIP3    H123083   1.804   1.511  16.287  0.3074 -0.9885 -0.1753
  556TIP3    H223084   1.742   1.536  16.423 -0.0441  1.1438 -0.7021
  557TIP3   OH223085   3.523   2.070   0.905 -0.3013 -0.5403 -0.0366
  557TIP3    H123086   3.482   2.155   0.888 -0.7287 -0.9147 -0.8976
  557TIP3    H223087   3.592   2.090   0.968 -1.1305  0.2622  0.6510
  558TIP3   OH223088   2.628   0.600  11.682  0.1490  0.0856 -0.0867
  558TIP3    H123089   2.568   0.657  11.633 -0.0323  0.6970  0.8199
  558TIP3    H223090   2.630   0.519  11.631 -1.3253  0.1061 -0.2374
  559TIP3   OH223091   5.746   3.548   2.354 -0.2220  0.0236  1.3089
  559TIP3    H123092   5.687   3.558   2.279 -0.6114  1.7895  1.8021
  559TIP3    H223093   5.695   3.499   2.418 -0.7431  0.5459  1.2991
  560TIP3   OH223094   6.269   5.943  14.525  0.4709 -0.0686  0.3123
  560TIP3    H123095   6.365   5.941  14.529  0.5238 -2.3078 -0.7587
  560TIP3    H223096   6.249   6.023  14.477  1.8760 -0.2392 -0.6029
  561TIP3   OH223097   4.954   0.860   0.269 -0.0773 -0.0014 -0.3445
  561TIP3    H123098   4.922   0.945   0.239 -3.7302 -1.3140 -0.6159
  561TIP3    H223099   4.975   0.813   0.188  1.7479  0.4908 -0.2013
  562TIP3   OH223100   2.754   2.201  13.346  0.2200 -0.2266  0.4218
  562TIP3    H123101   2.699   2.219  13.270  0.4055 -0.2811  0.2737
  562TIP3    H223102   2.817   2.273  13.348  2.3901 -1.9082 -1.4779
  563TIP3   OH223103   2.112   1.057  17.297 -0.4775 -0.5048 -0.3433
  563TIP3    H123104   2.168   1.105  17.358 -2.3436  1.8415 -0.3089
  563TIP3    H223105   2.166   1.042  17.220  0.2679  1.5351 -0.2573
  564TIP3   OH223106   2.709   2.320   4.459  0.2141  0.2707  0.1064
  564TIP3    H123107   2.721   2.330   4.553 -1.1244  0.8085  0.2364
  564TIP3    H223108   2.789   2.276   4.429  1.1498  1.1126  1.3056
  565TIP3   OH223109   3.133   0.778   4.844 -0.2679  0.7527 -0.4804
  565TIP3    H123110   3.040   0.797   4.835 -0.5359 -0.4305 -0.3600
  565TIP3    H223111   3.160   0.827   4.922 -1.0082  0.3311  0.0476
  566TIP3   OH223112   3.042   3.557  11.415  0.0271 -0.3001 -0.4925
  566TIP3    H123113   3.024   3.601  11.498  0.8744  1.1692 -1.0462
  566TIP3    H223114   3.082   3.474  11.441 -0.0352 -0.0151  0.5814
  567TIP3   OH223115   3.489   3.091   4.985 -0.0422  0.0164  0.1472
  567TIP3    H123116   3.479   3.022   5.051 -0.2847 -0.4127 -0.3277
  567TIP3    H223117   3.426   3.158   5.010 -0.8587 -0.6008 -0.2107
  568TIP3   OH223118   5.686   5.412  12.040 -1.2088 -0.6190 -0.0327
  568TIP3    H123119   5.772   5.380  12.013 -1.1047 -2.1260  1.8546
  568TIP3    H223120   5.633   5.406  11.960  0.4261  0.5543 -1.2932
  569TIP3   OH223121   3.232   5.729   1.027 -0.0203  0.3971  0.2258
  569TIP3    H123122   3.267   5.652   0.982  0.4430  0.5765  0.2748
  569TIP3    H223123   3.253   5.715   1.119  0.1612  0.6293  0.2221
  570TIP3   OH223124   1.246   2.538  14.264  0.3346 -0.3590 -0.5264
  570TIP3    H123125   1.209   2.615  14.308 -1.1166 -0.3547 -1.6733
  570TIP3    H223126   1.213   2.543  14.175  1.8595 -1.2636 -1.1832
  571TIP3   OH223127   1.510   6.732  13.684  0.4376  0.2448  0.3774
  571TIP3    H123128   1.441   6.798  13.693  0.9888  0.8882 -0.0539
  571TIP3    H223129   1.578   6.760  13.745  0.8699  0.3352 -0.1376
  572TIP3   OH223130   2.203   1.689   3.590 -0.4697  0.0687 -0.1920
  572TIP3    H123131   2.281   1.681   3.535 -0.5624  2.0372 -0.6853
  572TIP3    H223132   2.173   1.779   3.576 -1.1169  0.3056  2.2888
  573TIP3   OH223133   4.135   4.907  11.272 -0.5426 -1.1648 -0.2183
  573TIP3    H123134   4.205   4.973  11.272 -2.1695  0.7442  1.7544
  573TIP3    H223135   4.169   4.835  11.218  2.6411 -0.0819  0.1253
  574TIP3   OH223136   0.012   5.954  15.752  0.2212  0.4800  0.0325
  574TIP3    H123137   0.108   5.957  15.757  0.4518 -1.0678 -2.1424
  574TIP3    H223138  -0.009   5.993  15.667 -0.9681 -0.3253 -0.0650
  575TIP3   OH223139   1.238   4.442  14.112 -0.1314  0.2783  0.6589
  575TIP3    H123140   1.271   4.428  14.201 -1.6786 -0.0077  1.2092
  575TIP3    H223141   1.172   4.511  14.122  0.2073  0.7749 -0.4002
  576TIP3   OH223142   3.542   2.539   1.780  0.2651  0.3774 -0.3598
  576TIP3    H123143   3.520   2.453   1.816  2.5403 -0.3426 -0.5367
  576TIP3    H223144   3.620   2.566   1.827  0.3077  1.7881 -1.1824
  577TIP3   OH223145   3.553   2.395  17.125  0.2344  0.7139  0.2221
  577TIP3    H123146   3.613   2.337  17.078  0.0652  0.9380 -0.2816
  577TIP3    H223147   3.543   2.471  17.067  1.1592  1.6633  1.2709
  578TIP3   OH223148   2.886   2.602  14.245  0.0460  0.6839  0.1334
  578TIP3    H123149   2.979   2.615  14.228  0.0031 -0.1628 -0.8986
  578TIP3    H223150   2.842   2.659  14.182 -0.1144 -0.3892 -0.7685
  579TIP3   OH223151   3.754   2.514   3.963  0.3623 -0.2975 -0.0917
  579TIP3    H123152   3.791   2.432   3.995 -1.2441 -1.2385 -0.5711
  579TIP3    H223153   3.822   2.549   3.905  1.2098 -1.0821  0.3918
  580TIP3   OH223154   1.130   2.276  11.138  0.2764 -0.3324 -0.3653
  580TIP3    H123155   1.133   2.245  11.048  2.3872 -1.6871  0.1031
  580TIP3    H223156   1.062   2.222  11.179 -0.5294  0.1300 -1.0592
  581TIP3   OH223157   3.309   2.388   1.560 -0.5012  0.0706  0.0609
  581TIP3    H123158   3.327   2.349   1.475 -2.0512 -0.4852 -0.0338
  581TIP3    H223159   3.261   2.320   1.608 -0.9667  0.9182  0.8214
  582TIP3   OH223160   0.276   6.288  14.625  0.2345  0.3462 -0.1947
  582TIP3    H123161   0.342   6.247  14.569 -0.5742  1.7560 -2.3292
  582TIP3    H223162   0.237   6.216  14.674  0.6205 -1.0694 -1.8744
  583TIP3   OH223163   5.123   6.564   2.929 -0.3349 -0.1727  0.1882
  583TIP3    H123164   5.130   6.490   2.868 -1.4134 -0.2262  0.0981
  583TIP3    H223165   5.192   6.624   2.903  2.1680 -2.1844  1.7486
  584TIP3   OH223166   6.464   2.558  14.390 -0.0270 -0.5846 -0.1882
  584TIP3    H123167   6.552   2.567  14.354 -0.2692 -0.4673 -0.7499
  584TIP3    H223168   6.452   2.637  14.443  0.4825 -0.9503  0.4923
  585TIP3   OH223169   6.497   4.857   5.728  0.3342 -0.2177  0.4768
  585TIP3    H123170   6.543   4.880   5.809 -0.0552  1.2608  0.3116
  585TIP3    H223171   6.517   4.929   5.668  0.1876 -1.0301 -0.5731
  586TIP3   OH223172   1.242   4.654   4.271 -0.4321  0.5506  0.2773
  586TIP3    H123173   1.181   4.623   4.203 -1.1903  1.8147  0.3556
  586TIP3    H223174   1.324   4.609   4.251 -1.3739 -1.2408  0.1937
  587TIP3   OH223175   2.499   0.443   0.490 -0.0451  0.0592 -0.0670
  587TIP3    H123176   2.501   0.364   0.436  0.3341 -0.2456  0.3865
  587TIP3    H223177   2.530   0.512   0.432  0.9172 -0.3646 -0.0805
  588TIP3   OH223178   5.073   1.635   5.292  0.6685 -0.1744 -0.8116
  588TIP3    H123179   4.996   1.677   5.253  0.3079 -0.1317 -0.0695
  588TIP3    H223180   5.106   1.578   5.223 -0.3637 -0.6219 -0.9530
  589TIP3   OH223181   2.560   4.324   3.918  0.4661  0.1440 -0.3814
  589TIP3    H123182   2.573   4.248   3.974  2.0336  0.2644 -0.5511
  589TIP3    H223183   2.523   4.288   3.837  0.8407 -0.3871 -0.3178
  590TIP3   OH223184   2.677   0.280   4.587  0.1417  0.2850 -0.1915
  590TIP3    H123185   2.676   0.358   4.532 -2.1449  1.6244  1.5429
  590TIP3    H223186   2.714   0.310   4.670 -1.5749 -0.1666  0.7924
  591TIP3   OH223187   3.732   4.231  15.511 -0.5836 -0.5783 -0.5209
  591TIP3    H123188   3.792   4.157  15.509 -1.9771 -1.7292 -2.3030
  591TIP3    H223189   3.662   4.203  15.570 -0.7833 -0.3970 -0.6705
  592TIP3   OH223190   4.835   0.018   1.768  0.1078  0.0581  0.2027
  592TIP3    H123191   4.752   0.058   1.794  0.3223  0.2535  0.5822
  592TIP3    H223192   4.892   0.028   1.844 -0.3017 -2.3288  0.8908
  593TIP3   OH223193   4.040   1.532  16.353  0.3581  0.0182 -0.2367
  593TIP3    H123194   4.047   1.602  16.418  1.0499 -0.1179 -0.1523
  593TIP3    H223195   4.080   1.456  16.397 -1.6697 -0.8402  0.2421
  594TIP3   OH223196   6.516   3.839  11.278  0.2245 -0.3703 -0.1388
  594TIP3    H123197   6.559   3.908  11.227  0.2907 -0.5572 -0.3360
  594TIP3    H223198   6.535   3.758  11.230 -1.4762 -0.3113 -0.9725
  595TIP3   OH223199   2.289   1.137   1.527  0.0050 -0.1365 -0.4687
  595TIP3    H123200   2.292   1.169   1.436  1.6343  1.3470  0.0482
  595TIP3    H223201   2.367   1.082   1.536 -0.3586 -0.5939 -0.0702
  596TIP3   OH223202   2.645   5.532  12.185  0.6737  0.5991  0.2480
  596TIP3    H123203   2.647   5.545  12.090 -0.9235  2.9029  0.4428
  596TIP3    H223204   2.553   5.516  12.205  1.3948 -3.9817  1.0966
  597TIP3   OH223205   2.722   6.749  11.744  0.0459 -0.0839 -0.0903
  597TIP3    H123206   2.799   6.799  11.771 -1.6317  2.5675  0.1705
  597TIP3    H223207   2.694   6.705  11.824  0.7313 -0.2642  0.0552
  598TIP3   OH223208   3.724   0.481   6.017 -0.2276 -0.5236 -0.1460
  598TIP3    H123209   3.710   0.512   6.106  0.6445 -0.3907 -0.0473
  598TIP3    H223210   3.640   0.443   5.991 -0.2868 -1.1883  0.9774
  599TIP3   OH223211   5.097   0.154   0.706 -0.9702 -0.2024  0.0432
  599TIP3    H123212   5.104   0.089   0.636  1.2661  0.4300 -0.3790
  599TIP3    H223213   5.091   0.238   0.661 -2.7166  0.0234  0.6127
  600TIP3   OH223214   4.517   2.858   1.546  0.4480 -0.1048  0.4458
  600TIP3    H123215   4.442   2.827   1.597 -0.8790 -0.1192 -1.4032
  600TIP3    H223216   4.498   2.831   1.456  0.2103  4.0151 -0.9890
  601TIP3   OH223217   2.983   6.224   6.283  0.1953  0.5026  0.0062
  601TIP3    H123218   2.898   6.179   6.280  0.2674 -0.2042  3.4324
  601TIP3    H223219   2.971   6.292   6.350  1.6300  2.2133 -1.3706
  602TIP3   OH223220   1.616   0.858  16.053  0.1701  0.2751 -0.1710
  602TIP3    H123221   1.578   0.910  15.982 -0.6742  0.7144  0.5834
  602TIP3    H223222   1.544   0.843  16.114  0.4486 -1.6287 -0.2572
  603TIP3   OH223223   2.359   0.227  11.571  0.4235  0.8362  0.2820
  603TIP3    H123224   2.276   0.236  11.523 -0.5231 -2.0661  1.1523
  603TIP3    H223225   2.346   0.279  11.650  1.2404  4.0196 -1.4894
  604TIP3   OH223226   1.446   0.558   3.184 -0.2860  0.9401 -0.4746
  604TIP3    H123227   1.425   0.548   3.091 -0.4171 -1.9440 -0.2268
  604TIP3    H223228   1.534   0.522   3.193 -0.8922 -0.3926  0.7108
  605TIP3   OH223229   5.711   2.311  14.472  0.6340  0.1781 -0.7476
  605TIP3    H123230   5.681   2.222  14.455  0.6205 -0.4327  2.0182
  605TIP3    H223231   5.645   2.367  14.432  0.1050 -1.0429 -1.6450
  606TIP3   OH223232   3.544   3.876   4.895  0.1090  0.2992  0.8118
  606TIP3    H123233   3.612   3.908   4.954  0.2037  1.0152  0.3157
  606TIP3    H223234   3.523   3.950   4.838  0.1501 -0.4304 -0.1824
  607TIP3   OH223235   4.446   3.679   3.265  0.1846  0.4315  0.0675
  607TIP3    H123236   4.394   3.736   3.322 -0.0145 -0.1581  0.4752
  607TIP3    H223237   4.536   3.693   3.294  0.0264 -0.3221  0.9335
  608TIP3   OH223238   3.511   6.383   2.333  0.0896 -0.2206  0.0816
  608TIP3    H123239   3.450   6.453   2.309  0.5613  0.6962  1.3969
  608TIP3    H223240   3.466   6.302   2.309 -0.6977  0.5068 -0.9938
  609TIP3   OH223241   1.149   3.928  13.505 -0.7445 -0.0854 -0.1479
  609TIP3    H123242   1.103   3.864  13.559 -2.6127  0.9813 -0.3836
  609TIP3    H223243   1.118   3.910  13.416  0.2294 -0.0981 -0.4953
  610TIP3   OH223244   2.968   4.840   3.307 -0.4261 -0.1672 -0.3685
  610TIP3    H123245   2.877   4.855   3.335  0.0834  1.8425  0.4388
  610TIP3    H223246   3.013   4.811   3.387  0.1188  1.2671 -0.1191
  611TIP3   OH223247   3.042   1.484  14.326  0.3673 -0.4613  0.2035
  611TIP3    H123248   3.061   1.531  14.407  0.2720  1.5268 -0.8476
  611TIP3    H223249   3.089   1.401  14.334  2.1592  0.5954  1.3921
  612TIP3   OH223250   2.136   5.990   5.382  0.2692  0.3894  0.1060
  612TIP3    H123251   2.225   6.011   5.409  0.3639 -0.8214  0.8290
  612TIP3    H223252   2.090   6.074   5.382  0.7232  0.6994  2.3912
  613TIP3   OH223253   2.008   3.265  12.173 -0.7849  0.1873  0.1062
  613TIP3    H123254   2.006   3.171  12.192  0.0125 -0.0477 -0.9276
  613TIP3    H223255   2.001   3.306  12.259 -0.2280 -0.8280  0.6581
  614TIP3   OH223256   0.434   4.325   4.438  0.6414  0.3548 -0.1668
  614TIP3    H123257   0.371   4.291   4.374  0.5777 -1.6497  0.8736
  614TIP3    H223258   0.385   4.394   4.485  0.2164  0.8354 -1.2764
  615TIP3   OH223259   3.735   6.671  11.584  0.2868 -0.1707  0.4509
  615TIP3    H123260   3.770   6.650  11.671 -2.0670 -0.8710  1.3182
  615TIP3    H223261   3.744   6.591  11.534 -1.0964 -0.7511  1.0731
  616TIP3   OH223262   0.084   3.460   3.206 -0.0960  0.2632  0.0492
  616TIP3    H123263   0.170   3.477   3.244 -0.0900 -0.5466  0.4153
  616TIP3    H223264   0.100   3.393   3.139 -0.1935  1.2803 -1.0217
  617TIP3   OH223265   4.515   4.688  17.106 -0.2311  0.1939 -0.4020
  617TIP3    H123266   4.571   4.697  17.183  1.2873 -1.1692 -1.2931
  617TIP3    H223267   4.462   4.610  17.124  1.1662 -1.0258 -1.2796
  618TIP3   OH223268   4.759   5.441  15.128  0.2708 -0.3119  0.3046
  618TIP3    H123269   4.709   5.471  15.052  1.5587 -0.4413 -0.6224
  618TIP3    H223270   4.723   5.354  15.146  0.0863 -0.3617 -0.2723
  619TIP3   OH223271   1.240   5.449  16.764 -0.3823 -0.0565  0.7842
  619TIP3    H123272   1.299   5.425  16.835 -1.6593  0.8806  2.2528
  619TIP3    H223273   1.216   5.540  16.783 -1.7688 -0.2075 -0.1039
  620TIP3   OH223274   1.630   5.663  14.654 -0.5449  0.3601 -0.2960
  620TIP3    H123275   1.700   5.688  14.714 -1.6118  1.7038  0.4251
  620TIP3    H223276   1.630   5.567  14.657  1.3547  0.3120 -0.4550
  621TIP3   OH223277   3.896   3.738  11.333 -0.3413 -0.1836 -0.2376
  621TIP3    H123278   3.882   3.685  11.254  1.7733 -0.9443 -0.1698
  621TIP3    H223279   3.956   3.807  11.305 -0.8629  0.5085  0.3419
  622TIP3   OH223280   5.561   4.989  16.898  0.3370  0.4366  0.2314
  622TIP3    H123281   5.522   5.056  16.955  0.1132 -0.7749  1.5951
  622TIP3    H223282   5.535   5.014  16.810 -1.6974  0.9249  0.8951
  623TIP3   OH223283   1.622   4.256  11.420 -0.3461 -0.1690  0.2656
  623TIP3    H123284   1.649   4.165  11.404 -0.5947 -0.1748 -0.1372
  623TIP3    H223285   1.551   4.271  11.357  0.4420  0.6618 -0.4552
  624TIP3   OH223286   1.339   3.285   4.966 -0.6390 -0.2386 -0.2511
  624TIP3    H123287   1.419   3.264   5.014  0.1368  1.9661 -0.4665
  624TIP3    H223288   1.297   3.353   5.018 -1.5600 -0.2553 -0.9553
  625TIP3   OH223289   5.737   6.755   0.967  0.2081 -0.5267 -0.1173
  625TIP3    H123290   5.724   6.781   1.058 -0.7090  1.0226 -0.6387
  625TIP3    H223291   5.697   6.668   0.960  0.6729 -0.8461  1.0431
  626TIP3   OH223292   1.246   0.601  13.203  0.3572  0.7730 -0.4789
  626TIP3    H123293   1.199   0.638  13.278  0.4182 -0.3468  0.1357
  626TIP3    H223294   1.317   0.662  13.186  1.0018  0.5016  1.0833
  627TIP3   OH223295   6.628   2.066  10.825  0.0515  0.0019 -0.1248
  627TIP3    H123296   6.674   2.141  10.789  1.2222 -1.0662 -0.9454
  627TIP3    H223297   6.686   1.992  10.808 -1.0613 -1.0960  0.6622
  628TIP3   OH223298   0.107   2.102   1.898  0.1350  0.1853 -0.3239
  628TIP3    H123299   0.055   2.122   1.820  0.2421 -3.3070 -1.4664
  628TIP3    H223300   0.195   2.133   1.876 -0.4645  2.0847 -0.2169
  629TIP3   OH223301   6.543   3.538   3.171 -0.5346  0.3250 -0.4736
  629TIP3    H123302   6.634   3.551   3.143  0.3615 -0.9112  1.5961
  629TIP3    H223303   6.551   3.503   3.260 -3.0836  1.1013  0.1289
  630TIP3   OH223304   3.826   1.464   3.060  0.0900  0.2437 -0.1515
  630TIP3    H123305   3.864   1.490   3.143  2.2735 -1.4337 -0.5126
  630TIP3    H223306   3.756   1.403   3.084 -0.2998  0.9193  0.4671
  631TIP3   OH223307   3.464   4.797   4.291  0.2898 -0.2139 -0.0249
  631TIP3    H123308   3.401   4.846   4.343 -0.8375 -1.7478  0.1199
  631TIP3    H223309   3.509   4.740   4.353  0.1272 -0.8499 -0.4835
  632TIP3   OH223310   0.084   3.835  15.050 -0.2640 -0.0151  0.7037
  632TIP3    H123311   0.000   3.791  15.063 -0.3195 -0.5736 -1.2688
  632TIP3    H223312   0.065   3.907  14.989  1.0067 -1.5180 -1.6307
  633TIP3   OH223313   0.239   5.751   5.245  0.0235  0.0455 -0.0058
  633TIP3    H123314   0.237   5.655   5.250 -0.9743  0.0229 -0.6645
  633TIP3    H223315   0.260   5.770   5.154  1.3547  0.4683  0.3691
  634TIP3   OH223316   1.188   6.597   0.164 -0.5908  0.4963  0.6230
  634TIP3    H123317   1.201   6.689   0.140 -1.0766  0.6258  0.8288
  634TIP3    H223318   1.268   6.573   0.210  0.1731  0.3619 -0.7287
  635TIP3   OH223319   6.461   3.980  11.908  0.2572  0.7146 -0.1176
  635TIP3    H123320   6.501   3.899  11.878  0.9689  1.3809 -1.0221
  635TIP3    H223321   6.536   4.038  11.926 -0.1988  0.8364  1.5266
  636TIP3   OH223322   6.590   3.784  16.003 -0.0837 -0.2456 -0.9832
  636TIP3    H123323   6.656   3.717  16.018  0.8207  0.7354 -0.3860
  636TIP3    H223324   6.601   3.845  16.076 -1.5523  0.0286 -0.9645
  637TIP3   OH223325   2.520   0.794   6.543  0.0640 -0.4882 -0.4239
  637TIP3    H123326   2.586   0.845   6.590 -0.0750 -0.5017 -0.2156
  637TIP3    H223327   2.486   0.856   6.478  0.4639 -0.5594 -0.7077
  638TIP3   OH223328   6.425   4.622  15.369  0.1067  0.8353  0.2975
  638TIP3    H123329   6.510   4.586  15.341 -0.8962 -1.3706 -0.1790
  638TIP3    H223330   6.376   4.633  15.288 -1.1506 -1.0378  0.7293
  639TIP3   OH223331   2.855   3.406  16.502  0.3521  0.6669 -0.2020
  639TIP3    H123332   2.928   3.372  16.450  1.0553 -1.6698  2.0814
  639TIP3    H223333   2.897   3.444  16.579 -0.7650  1.5814 -0.0218
  640TIP3   OH223334   2.366   1.502   4.756  0.1333 -0.0480 -0.2184
  640TIP3    H123335   2.277   1.535   4.744 -0.9498 -2.5928 -0.0092
  640TIP3    H223336   2.355   1.426   4.814  2.1642 -1.4826 -1.5661
  641TIP3   OH223337   5.097   1.389  15.030 -0.0769  0.2791 -0.1261
  641TIP3    H123338   5.012   1.431  15.039 -0.2658 -0.0294 -0.4596
  641TIP3    H223339   5.086   1.302  15.067  0.0593  0.1921 -0.2863
  642TIP3   OH223340   0.305   6.498  12.730  0.2884  0.4614 -0.2703
  642TIP3    H123341   0.387   6.467  12.768 -0.2517 -0.4228  0.2125
  642TIP3    H223342   0.308   6.468  12.639 -0.2587 -1.1376  0.2105
  643TIP3   OH223343   6.442   0.828  12.976  0.0657 -0.6457 -0.9323
  643TIP3    H123344   6.437   0.879  13.058  1.3087  1.8873 -2.2960
  643TIP3    H223345   6.353   0.829  12.942 -0.0542  0.1704 -0.6297
  644TIP3   OH223346   6.261   0.912   6.212 -0.0523  0.1117  0.1201
  644TIP3    H123347   6.173   0.901   6.248  0.0845  0.0184  0.4247
  644TIP3    H223348   6.297   0.824   6.207  0.0084  0.1449 -0.0510
  645TIP3   OH223349   6.309   0.131  12.841 -0.2287 -0.4566 -0.1431
  645TIP3    H123350   6.390   0.118  12.792 -1.3588 -1.0925 -1.9054
  645TIP3    H223351   6.273   0.214  12.808 -0.8785 -0.7590 -0.2112
  646TIP3   OH223352   2.848   2.274  16.689 -0.0521  0.2546 -0.0881
  646TIP3    H123353   2.814   2.301  16.603  1.4612 -0.7524 -1.0369
  646TIP3    H223354   2.814   2.186  16.702 -1.8272  1.0750  1.2599
  647TIP3   OH223355   0.900   1.866   4.742  0.2564 -0.0396 -0.3097
  647TIP3    H123356   0.855   1.924   4.680  0.0793 -1.8006 -1.9430
  647TIP3    H223357   0.977   1.836   4.694 -0.1818 -1.8950  0.0701
  648TIP3   OH223358   6.627   3.389  14.216  0.2061 -0.5091  0.1757
  648TIP3    H123359   6.585   3.310  14.180  0.7310 -0.6282 -0.1772
  648TIP3    H223360   6.675   3.357  14.293 -1.5579 -0.1301  1.5011
  649TIP3   OH223361   0.299   5.184   2.603 -0.3856 -0.2968 -0.0251
  649TIP3    H123362   0.289   5.089   2.595 -2.1679 -0.1098 -0.5234
  649TIP3    H223363   0.255   5.206   2.685  0.1129  0.0928  0.1410
  650TIP3   OH223364   3.354   6.590  17.042  0.3197  0.5198  0.6917
  650TIP3    H123365   3.372   6.520  16.979  1.6859 -0.2711  1.8860
  650TIP3    H223366   3.259   6.599  17.041  0.1738 -0.8344 -0.0619
  651TIP3   OH223367   1.334   2.195   1.227 -1.1562 -0.1081 -0.1462
  651TIP3    H123368   1.243   2.226   1.227 -0.8136  0.9588  0.8254
  651TIP3    H223369   1.359   2.194   1.319 -0.0227  0.0657 -0.4378
  652TIP3   OH223370   5.917   4.114   1.212 -0.2056  0.0496 -0.5747
  652TIP3    H123371   5.980   4.055   1.170  1.0500 -0.5632  2.0185
  652TIP3    H223372   5.947   4.202   1.186  3.3163 -0.0536  2.3440
  653TIP3   OH223373   4.167   4.364  15.402 -0.0205  0.4288  0.1187
  653TIP3    H123374   4.095   4.426  15.388  0.1648  0.4916 -0.6019
  653TIP3    H223375   4.218   4.369  15.321 -0.3749 -1.1614 -0.2273
  654TIP3   OH223376   0.580   0.855  12.837 -0.1541 -0.1914  0.3614
  654TIP3    H123377   0.626   0.785  12.791 -1.3244 -1.5562  1.1630
  654TIP3    H223378   0.503   0.812  12.875 -2.7943  2.1490 -1.8582
  655TIP3   OH223379   6.606   1.967   5.456 -0.2296  0.0207  0.0360
  655TIP3    H123380   6.542   1.954   5.526  0.4125  0.3387  0.6972
  655TIP3    H223381   6.681   1.913   5.481  1.2840  2.4668  1.2927
  656TIP3   OH223382   1.980   2.406   0.522 -0.1522  0.5776 -0.0336
  656TIP3    H123383   1.998   2.317   0.550 -0.7176  0.7109  0.7732
  656TIP3    H223384   1.923   2.442   0.589 -1.9303  0.7603 -1.5509
  657TIP3   OH223385   1.441   6.007  12.751 -0.1432  0.0068  0.4071
  657TIP3    H123386   1.390   5.937  12.791 -2.9451  2.1188  0.7955
  657TIP3    H223387   1.389   6.036  12.676  2.0554  0.2164 -1.1508
  658TIP3   OH223388   5.423   4.330  17.258 -0.6482 -0.2576  0.4047
  658TIP3    H123389   5.382   4.416  17.273 -3.0463 -1.0040 -1.2398
  658TIP3    H223390   5.426   4.290  17.344 -2.4670  0.2808  0.7571
  659TIP3   OH223391   2.203   5.500  11.442 -0.5613 -0.0217  0.3600
  659TIP3    H123392   2.198   5.404  11.434  0.7489 -0.1103  0.4408
  659TIP3    H223393   2.128   5.523  11.498 -0.9072 -0.9898  0.3184
  660TIP3   OH223394   1.032   4.410   0.332 -0.3379  0.2578 -0.4707
  660TIP3    H123395   1.077   4.375   0.255 -2.5805  0.0416 -1.7687
  660TIP3    H223396   0.950   4.446   0.298 -1.9694 -0.9181  1.9403
  661TIP3   OH223397   5.776   6.305  10.394 -0.6580 -0.0893 -0.3571
  661TIP3    H123398   5.773   6.299  10.489 -1.6721  0.6728 -0.3111
  661TIP3    H223399   5.844   6.244  10.367  2.5394  2.4846  1.1057
  662TIP3   OH223400   1.803   1.524  16.745 -0.0040  0.3219  0.5856
  662TIP3    H123401   1.748   1.548  16.820  1.6619  0.2549  1.8757
  662TIP3    H223402   1.793   1.429  16.739  1.3022  0.0661  1.9508
  663TIP3   OH223403   6.335   5.405   1.950 -0.2295  0.0014  0.1136
  663TIP3    H123404   6.261   5.360   1.992 -0.6436 -0.0162 -0.6127
  663TIP3    H223405   6.371   5.340   1.889 -0.4265  0.4275 -0.4676
  664TIP3   OH223406   1.300   2.635   4.176 -0.2561  0.0820  0.1209
  664TIP3    H123407   1.325   2.656   4.086 -3.1975 -0.9633 -1.0472
  664TIP3    H223408   1.335   2.708   4.228  0.4647  1.3427 -2.0141
  665TIP3   OH223409   1.733   1.302   6.034 -0.2688  0.2681  0.2495
  665TIP3    H123410   1.690   1.384   6.010 -0.3456  0.1334 -0.0754
  665TIP3    H223411   1.683   1.234   5.990 -0.9840 -0.0785  1.5288
  666TIP3   OH223412   5.575   3.109   6.608  0.4656 -0.2868  0.2906
  666TIP3    H123413   5.646   3.062   6.563 -0.5839  0.3727 -2.2241
  666TIP3    H223414   5.495   3.066   6.577 -0.4395  1.9575 -0.6931
  667TIP3   OH223415   1.675   3.995  14.550 -0.3442 -0.5453  0.1014
  667TIP3    H123416   1.717   4.040  14.476 -0.7034  1.5240  1.0688
  667TIP3    H223417   1.581   4.006  14.534 -0.4498 -1.4728  0.0690
  668TIP3   OH223418   3.902   5.377   3.372 -0.0344  1.2382 -0.1892
  668TIP3    H123419   3.854   5.295   3.382  0.4716  0.9004 -0.5235
  668TIP3    H223420   3.861   5.436   3.436  0.4271  0.3490  0.9665
  669TIP3   OH223421   2.430   3.135   4.583  0.0548  0.4244  0.2128
  669TIP3    H123422   2.414   3.228   4.564 -1.1417  0.8498  2.8365
  669TIP3    H223423   2.462   3.135   4.673  0.7527 -1.6792 -0.0019
  670TIP3   OH223424   3.419   2.329   5.733 -0.7068 -0.5356 -0.7803
  670TIP3    H123425   3.463   2.265   5.676 -1.0136 -1.3501 -0.1252
  670TIP3    H223426   3.485   2.397   5.748  0.4702 -1.8954  0.4547
  671TIP3   OH223427   1.731   6.468   4.171  0.0644  0.4458 -0.0213
  671TIP3    H123428   1.819   6.479   4.208  0.9185 -1.5580 -1.3219
  671TIP3    H223429   1.676   6.451   4.247  1.5975 -2.5689  0.5835
  672TIP3   OH223430   4.940   1.798   2.328  0.0404  0.0470 -0.1144
  672TIP3    H123431   4.970   1.870   2.384  1.5617  0.0120 -0.8388
  672TIP3    H223432   4.883   1.746   2.385  1.9429 -0.2844  1.6092
  673TIP3   OH223433   0.180   0.374   2.201 -0.3473  0.4378  0.2149
  673TIP3    H123434   0.123   0.384   2.124 -0.7956 -1.9034  0.1756
  673TIP3    H223435   0.265   0.349   2.165  0.8686  3.9642  0.2747
  674TIP3   OH223436   0.577   0.780  14.782 -0.1877  0.3717 -0.3770
  674TIP3    H123437   0.579   0.695  14.826  0.5647  0.1374 -0.8470
  674TIP3    H223438   0.603   0.843  14.849  0.1467  0.1183 -0.2691
  675TIP3   OH223439   2.172   4.035  12.594 -0.6579 -0.3403 -0.6697
  675TIP3    H123440   2.139   4.125  12.590  0.5981  0.1507 -0.7561
  675TIP3    H223441   2.248   4.036  12.534 -1.0954 -1.6707 -1.2729
  676TIP3   OH223442   4.447   3.174   0.472 -0.5078  0.1224 -0.1452
  676TIP3    H123443   4.516   3.227   0.511  0.0604 -0.7602  0.0983
  676TIP3    H223444   4.384   3.161   0.542  0.2189 -0.9627  0.3441
  677TIP3   OH223445   1.933   6.000  15.812 -0.3692  0.0130 -0.4442
  677TIP3    H123446   1.907   6.076  15.865 -0.6624 -0.7488  0.5493
  677TIP3    H223447   2.010   5.966  15.857 -1.3763 -1.4142  0.2991
  678TIP3   OH223448   1.417   0.016  11.121  0.4101  0.5207 -0.7995
  678TIP3    H123449   1.498   0.025  11.172 -1.5407 -0.1596  2.7582
  678TIP3    H223450   1.392   0.106  11.101  0.7427  0.8883  0.3625
  679TIP3   OH223451   0.488   2.905  16.084  0.2497 -0.9465 -0.0435
  679TIP3    H123452   0.494   2.913  16.179 -0.4896  2.1659 -0.1476
  679TIP3    H223453   0.560   2.959  16.051 -0.6853 -0.3629 -1.2118
  680TIP3   OH223454   4.565   4.357  12.832 -0.2886 -0.4295 -0.9240
  680TIP3    H123455   4.603   4.444  12.828  0.2788 -0.6697 -0.8512
  680TIP3    H223456   4.554   4.340  12.925 -0.6677 -0.3245 -0.9479
  681TIP3   OH223457   6.219   0.653   5.832  0.1402  0.4622  0.4360
  681TIP3    H123458   6.126   0.659   5.809  0.2771 -0.1680 -0.3686
  681TIP3    H223459   6.239   0.735   5.877 -1.2500 -0.1702  2.3214
  682TIP3   OH223460   2.117   6.139  17.269  0.0916  1.1927  0.3157
  682TIP3    H123461   2.211   6.134  17.287  0.0590 -0.5758  0.1048
  682TIP3    H223462   2.075   6.112  17.350 -0.1453 -1.0038 -0.4686
  683TIP3   OH223463   0.885   6.571   2.978  0.0125 -0.4123  0.0792
  683TIP3    H123464   0.810   6.620   2.944 -0.1928 -1.0051 -0.3402
  683TIP3    H223465   0.940   6.556   2.901  0.3432 -0.3744  0.3051
  684TIP3   OH223466   5.142   1.264  13.717 -0.0330  0.9995 -0.0150
  684TIP3    H123467   5.098   1.260  13.632  1.3140 -0.5863 -0.6880
  684TIP3    H223468   5.097   1.335  13.763 -1.4792  1.2291 -1.6472
  685TIP3   OH223469   4.031   1.133   1.038  0.1549  0.3169  0.2526
  685TIP3    H123470   3.957   1.169   1.088  0.2057 -1.6382  1.8866
  685TIP3    H223471   4.080   1.210   1.009 -0.4634  1.6011  2.3770
  686TIP3   OH223472   5.980   6.253   0.951 -0.0106 -0.0982  0.0436
  686TIP3    H123473   6.024   6.168   0.954 -2.2312 -1.2961  0.4285
  686TIP3    H223474   5.924   6.255   1.028  1.1590  2.4637  0.9718
  687TIP3   OH223475   1.301   4.438  16.130 -0.0760  0.0790 -0.3891
  687TIP3    H123476   1.283   4.529  16.105  0.0462  0.2942  0.2882
  687TIP3    H223477   1.252   4.386  16.066  1.6465  0.5568 -2.2070
  688TIP3   OH223478   0.547   1.915   3.131  0.0166 -0.4505  0.4263
  688TIP3    H123479   0.489   1.916   3.055 -0.8179  0.3070  1.0604
  688TIP3    H223480   0.633   1.893   3.094 -0.4439 -0.5020 -0.6765
  689TIP3   OH223481   2.003   5.568   5.928  0.1288 -0.2901  0.0222
  689TIP3    H123482   1.979   5.476   5.917  1.0264 -0.4376 -0.8597
  689TIP3    H223483   2.098   5.566   5.944  0.4955  0.5711 -1.8209
  690TIP3   OH223484   4.940   1.812  15.647  0.5732  0.2307 -0.1231
  690TIP3    H123485   4.874   1.880  15.632  0.3355 -0.4308 -2.4731
  690TIP3    H223486   4.898   1.752  15.709 -0.7010  0.3044 -0.8735
  691TIP3   OH223487   2.212   1.638  13.494 -0.2409 -0.7782 -0.0712
  691TIP3    H123488   2.225   1.545  13.476  1.2860 -0.1951 -2.6273
  691TIP3    H223489   2.278   1.660  13.560 -0.8622 -1.5666  0.8175
  692TIP3   OH223490   5.234   1.141  11.327  0.1695  0.5514  0.0136
  692TIP3    H123491   5.263   1.103  11.245  1.3459  2.9088 -0.7603
  692TIP3    H223492   5.300   1.114  11.391  0.6927  0.8445 -0.3973
  693TIP3   OH223493   2.167   6.515   2.996  0.3792 -0.2908  0.0866
  693TIP3    H123494   2.168   6.512   3.092  1.0815  0.7231  0.1251
  693TIP3    H223495   2.165   6.608   2.975  0.5952 -0.4958 -0.8889
  694TIP3   OH223496   5.246   5.084   4.551  0.0436  0.5898  0.6748
  694TIP3    H123497   5.307   5.040   4.491  0.1083  1.6112 -0.0157
  694TIP3    H223498   5.290   5.165   4.576 -1.4038  1.8438 -0.6137
  695TIP3   OH223499   5.893   2.498  11.060 -0.6438  0.3683  0.2980
  695TIP3    H123500   5.835   2.571  11.077  0.4630  1.1107  1.0354
  695TIP3    H223501   5.841   2.420  11.080 -1.3026  1.0221  1.1700
  696TIP3   OH223502   6.486   2.966   3.935  0.2462 -0.4414  0.2021
  696TIP3    H123503   6.482   3.027   3.861 -0.2291 -0.0669  0.5295
  696TIP3    H223504   6.578   2.940   3.939  0.4197  0.1111 -0.0668
  697TIP3   OH223505   4.622   5.782   4.402 -0.1039 -0.0025  0.6805
  697TIP3    H123506   4.695   5.795   4.462  0.2393  0.6858  0.1334
  697TIP3    H223507   4.628   5.691   4.376  0.7774  0.1372  0.3656
  698TIP3   OH223508   2.334   3.483   3.389 -0.0819  0.3807 -0.2911
  698TIP3    H123509   2.256   3.437   3.357  0.5112  0.0895 -1.3749
  698TIP3    H223510   2.300   3.548   3.451 -1.2071  0.3798 -0.8884
  699TIP3   OH223511   2.728   0.759   2.666 -0.2288  0.2673  0.1020
  699TIP3    H123512   2.731   0.762   2.762 -1.3754  0.1823  0.1620
  699TIP3    H223513   2.809   0.715   2.640  0.0907  0.2929  1.0332
  700TIP3   OH223514   3.600   4.976   2.870  0.4143 -0.4261  0.4576
  700TIP3    H123515   3.649   4.898   2.845  1.9966  0.6619 -0.0025
  700TIP3    H223516   3.571   5.014   2.787  0.9130  0.2362  0.5745
  701TIP3   OH223517   0.133   2.666  14.514  0.0939 -0.6522 -0.3195
  701TIP3    H123518   0.114   2.679  14.607  0.1102 -0.5569 -0.3291
  701TIP3    H223519   0.182   2.744  14.489 -0.8899 -0.1366 -0.6835
  702TIP3   OH223520   3.106   1.615  14.042  0.8621 -0.3169 -0.3111
  702TIP3    H123521   3.036   1.666  14.001 -0.3765 -1.6503  0.0352
  702TIP3    H223522   3.084   1.617  14.136  0.5189 -1.8306 -0.3398
  703TIP3   OH223523   1.931   3.530   5.484 -0.6332  0.3967  0.5763
  703TIP3    H123524   1.853   3.501   5.437  1.2722 -0.7528 -2.1378
  703TIP3    H223525   1.979   3.582   5.420  1.8246 -0.7312  1.3959
  704TIP3   OH223526   3.580   6.521  14.042 -0.1004 -0.0633 -0.0341
  704TIP3    H123527   3.552   6.480  13.960  0.1187  0.5292 -0.4166
  704TIP3    H223528   3.558   6.614  14.031  2.0786  0.4680 -0.4147
  705TIP3   OH223529   3.215   1.036   3.026  0.0266  0.3160  0.3320
  705TIP3    H123530   3.271   0.963   3.001  0.7762  0.1967  2.1923
  705TIP3    H223531   3.249   1.064   3.111 -1.0353  2.0255  0.2340
  706TIP3   OH223532   3.041   6.142   3.517 -0.1507  0.1740  0.8083
  706TIP3    H123533   3.065   6.232   3.542 -0.3928  0.7662 -0.9874
  706TIP3    H223534   2.946   6.145   3.506 -0.3214 -0.6345  1.9174
  707TIP3   OH223535   1.931   0.099  12.454 -0.0009 -0.3918 -0.3588
  707TIP3    H123536   1.970   0.070  12.537 -2.3396  0.4858  1.1690
  707TIP3    H223537   1.993   0.072  12.387  2.6127 -0.0633  1.7672
  708TIP3   OH223538   0.544   0.376  17.161  0.2742 -0.2692  0.0439
  708TIP3    H123539   0.488   0.416  17.228 -0.2214 -0.4833 -0.2388
  708TIP3    H223540   0.628   0.419  17.173  0.0665  0.0292  0.5038
  709TIP3   OH223541   5.321   4.575  15.404  0.0494  0.0995 -0.3478
  709TIP3    H123542   5.416   4.569  15.416  0.0622 -4.0920 -0.8422
  709TIP3    H223543   5.307   4.557  15.311 -1.2451  2.7281 -0.7457
  710TIP3   OH223544   3.705   4.778   1.800 -0.5683  0.1247 -0.3668
  710TIP3    H123545   3.766   4.735   1.861 -1.0139 -0.2946 -0.2069
  710TIP3    H223546   3.706   4.722   1.722 -1.4497 -0.4152 -0.0090
  711TIP3   OH223547   5.624   0.410   5.416  0.9309 -0.5472 -0.2460
  711TIP3    H123548   5.556   0.350   5.444  1.7101 -1.7742 -0.9143
  711TIP3    H223549   5.582   0.465   5.350 -0.3507  1.0530  1.7698
  712TIP3   OH223550   5.665   5.350  15.444 -0.1432 -0.0140 -0.1967
  712TIP3    H123551   5.584   5.313  15.481  0.2386 -0.5529  0.1203
  712TIP3    H223552   5.731   5.336  15.513  0.2374  0.3537 -0.4807
  713TIP3   OH223553   3.758   0.526   5.181  0.6670  0.0968 -0.2730
  713TIP3    H123554   3.700   0.450   5.174 -0.5720  1.1231 -1.9379
  713TIP3    H223555   3.822   0.513   5.111  0.1802  0.7830 -0.8559
  714TIP3   OH223556   2.296   0.369  14.016 -0.3445  0.3573 -0.4890
  714TIP3    H123557   2.283   0.348  14.108  0.9278  2.0502  0.1230
  714TIP3    H223558   2.282   0.286  13.970 -0.4650 -0.6348  1.2647
  715TIP3   OH223559   3.181   4.131   2.786  0.5657  0.3163 -0.0513
  715TIP3    H123560   3.240   4.186   2.734 -1.0810  1.8490 -0.3881
  715TIP3    H223561   3.236   4.096   2.856  1.4710  3.4535  0.9592
  716TIP3   OH223562   1.975   0.259   4.666  0.0725  0.0613 -0.3434
  716TIP3    H123563   1.918   0.270   4.742  1.8963  0.8985  0.9764
  716TIP3    H223564   2.051   0.211   4.699  1.2456  1.1041 -1.4179
  717TIP3   OH223565   5.686   6.234   1.951  0.4333  0.0176 -0.7849
  717TIP3    H123566   5.635   6.154   1.962  0.1586  0.1517 -1.0405
  717TIP3    H223567   5.751   6.212   1.884  0.8480 -0.2155 -0.3085
  718TIP3   OH223568   2.985   4.631  17.243  0.3771 -0.1591 -0.5289
  718TIP3    H123569   2.968   4.578  17.320  1.0137  0.2068 -0.1279
  718TIP3    H223570   2.955   4.719  17.266 -2.4703 -0.6503 -1.8550
  719TIP3   OH223571   0.280   5.593  13.438  0.2654 -0.1970  0.4441
  719TIP3    H123572   0.239   5.633  13.514  1.4317 -0.4103  1.2062
  719TIP3    H223573   0.370   5.625  13.438  0.9858 -2.0649  0.5591
  720TIP3   OH223574   5.390   4.239  11.999 -0.1869 -0.2433  0.5556
  720TIP3    H123575   5.429   4.176  12.060 -0.1915  0.1971  1.0194
  720TIP3    H223576   5.343   4.301  12.054  0.9721  0.9901  0.2365
  721TIP3   OH223577   0.309   4.109  15.139 -0.6298  0.0293 -0.3942
  721TIP3    H123578   0.225   4.136  15.103 -1.1356 -0.9010  0.0554
  721TIP3    H223579   0.341   4.042  15.079 -0.6015 -0.2018 -0.1235
  722TIP3   OH223580   0.959   4.089   4.915  0.0761  0.2766  0.0901
  722TIP3    H123581   1.033   4.098   4.975  0.1964 -0.5631  0.0793
  722TIP3    H223582   0.988   4.133   4.835  0.7605 -0.4439 -0.0722
  723TIP3   OH223583   1.357   6.017  11.921 -0.2175 -0.0337  0.2798
  723TIP3    H123584   1.306   6.016  12.002 -2.2663  0.5229 -0.9377
  723TIP3    H223585   1.322   5.945  11.869  0.6785 -0.0238 -0.3569
  724TIP3   OH223586   0.017   6.718  10.939 -0.4302 -0.0350  0.3269
  724TIP3    H123587  -0.062   6.772  10.931 -1.5382 -1.3363  1.7938
  724TIP3    H223588  -0.016   6.629  10.947  1.0125 -0.4609  2.9584
  725TIP3   OH223589   3.203   6.038  14.506 -0.3538 -0.0431  0.3953
  725TIP3    H123590   3.288   6.007  14.537 -0.9536 -1.7616  0.4227
  725TIP3    H223591   3.169   5.966  14.454 -2.3461  0.1018  1.4193
  726TIP3   OH223592   5.774   1.927   1.432  0.4192 -0.1326  0.7784
  726TIP3    H123593   5.809   1.844   1.399 -1.8905 -0.9567  0.2076
  726TIP3    H223594   5.773   1.985   1.356 -1.4107 -0.8180  0.2472
  727TIP3   OH223595   1.266   3.985  15.717 -0.1352  0.2234  0.2008
  727TIP3    H123596   1.284   3.923  15.646  0.0874  2.1696 -1.5046
  727TIP3    H223597   1.302   3.942  15.795 -1.3886 -2.5036 -0.5739
  728TIP3   OH223598   2.589   0.486  16.768  0.1892 -0.3191  0.2105
  728TIP3    H123599   2.606   0.436  16.848 -0.1016 -1.6702 -0.5286
  728TIP3    H223600   2.636   0.438  16.700  1.6837  1.6620 -0.2232
  729TIP3   OH223601   1.987   2.499  12.432  0.0866 -0.7556 -0.1589
  729TIP3    H123602   2.051   2.564  12.461  0.0226 -0.9919  0.5408
  729TIP3    H223603   1.950   2.535  12.351  0.6745 -0.3391 -0.2502
  730TIP3   OH223604   2.670   2.538  12.337  0.3887  0.5056 -0.0197
  730TIP3    H123605   2.589   2.532  12.387  0.7237 -0.1665  0.4397
  730TIP3    H223606   2.701   2.627  12.354  0.0843  0.5531  0.3085
  731TIP3   OH223607   5.035   1.541  13.730 -0.2651 -0.1032 -0.4362
  731TIP3    H123608   4.985   1.540  13.649  0.4626  1.5023 -0.9651
  731TIP3    H223609   5.008   1.622  13.774 -1.0503 -1.2074  1.2175
  732TIP3   OH223610   2.774   6.510   1.426  0.1789 -0.1317  0.2724
  732TIP3    H123611   2.701   6.451   1.408  0.5247 -0.0908 -1.4925
  732TIP3    H223612   2.733   6.591   1.455 -0.5080 -0.0912 -0.7467
  733TIP3   OH223613   2.206   1.331  13.429 -0.3118  0.3130  0.0068
  733TIP3    H123614   2.122   1.300  13.393 -1.0244 -1.1886  2.6891
  733TIP3    H223615   2.272   1.292  13.373 -1.3670 -0.0474 -1.0312
  734TIP3   OH223616   4.668   3.042  15.132 -0.4222 -0.3685 -0.1092
  734TIP3    H123617   4.735   3.053  15.199 -0.5676 -0.3126  0.0280
  734TIP3    H223618   4.687   3.111  15.068 -0.2822 -0.4239 -0.1274
  735TIP3   OH223619   5.063   3.666   0.609  0.1162  0.2911 -0.4317
  735TIP3    H123620   4.983   3.648   0.560 -0.4705 -0.4382  0.7283
  735TIP3    H223621   5.073   3.590   0.666  0.9500  0.9508  0.3283
  736TIP3   OH223622   3.391   4.721   3.026 -0.4707 -0.2067 -0.4363
  736TIP3    H123623   3.400   4.811   2.994 -1.9629  0.4652  0.8790
  736TIP3    H223624   3.327   4.681   2.968 -0.5178 -0.1149 -0.4484
  737TIP3   OH223625   3.208   6.289   4.370  0.3447 -0.5204  0.3751
  737TIP3    H123626   3.187   6.220   4.307  1.4302  0.8508 -1.5762
  737TIP3    H223627   3.171   6.257   4.453  1.6520 -3.9005 -0.1699
  738TIP3   OH223628   2.237   6.188  15.395 -0.3973  0.0053  0.2619
  738TIP3    H123629   2.309   6.229  15.442 -0.2856 -1.9861  1.9797
  738TIP3    H223630   2.172   6.168  15.463 -1.5842 -0.2712 -0.9067
  739TIP3   OH223631   6.463   5.418  12.677  0.1693 -0.0034  0.4578
  739TIP3    H123632   6.499   5.464  12.753  0.3552 -1.9820  1.6416
  739TIP3    H223633   6.508   5.334  12.676 -2.1248 -1.3301  0.1328
  740TIP3   OH223634   5.304   2.687   5.583  0.5838  0.7744 -0.4016
  740TIP3    H123635   5.385   2.704   5.631  0.9178 -0.2452 -0.5665
  740TIP3    H223636   5.327   2.615   5.523 -0.1523  1.2037 -1.2169
  741TIP3   OH223637   2.799   6.141   4.113  0.1015  0.2070 -0.2315
  741TIP3    H123638   2.741   6.101   4.048  0.1977  0.4814 -0.4882
  741TIP3    H223639   2.869   6.182   4.062 -0.0310  0.7608  0.0209
  742TIP3   OH223640   3.992   6.296   4.613 -0.2074 -0.2774 -0.2155
  742TIP3    H123641   3.946   6.253   4.686 -0.0395  2.9861  2.0172
  742TIP3    H223642   3.923   6.310   4.548 -1.0246 -0.8406  0.4917
  743TIP3   OH223643   3.003   2.162   4.949  0.2535 -0.2326  0.0572
  743TIP3    H123644   3.089   2.147   4.910 -0.8117 -0.0990 -2.5766
  743TIP3    H223645   2.943   2.111   4.894 -1.3893 -0.2490  1.7622
  744TIP3   OH223646   0.722   0.423   4.835 -0.4545  0.6946 -0.0197
  744TIP3    H123647   0.701   0.376   4.916 -1.1075  1.2698  0.1631
  744TIP3    H223648   0.812   0.452   4.847  0.0833 -0.8189 -0.3039
  745TIP3   OH223649   2.350   2.831  15.142  0.2127  0.7989 -0.4777
  745TIP3    H123650   2.318   2.909  15.097 -1.0330  0.7463  0.2590
  745TIP3    H223651   2.407   2.865  15.211  0.7305  0.9764 -0.9901
  746TIP3   OH223652   4.889   1.939   2.105 -0.1963  0.3559 -0.1371
  746TIP3    H123653   4.903   1.869   2.169  0.9763  1.1866  0.5578
  746TIP3    H223654   4.929   1.907   2.025 -0.5376 -0.1694 -0.1018
  747TIP3   OH223655   5.567   4.296   4.939  0.0571 -0.0240 -0.1251
  747TIP3    H123656   5.595   4.232   4.874  2.2426 -0.3920  1.0536
  747TIP3    H223657   5.474   4.281   4.950 -0.3572 -0.1064 -2.9360
  748TIP3   OH223658   4.466   3.848  17.382 -0.0342  0.0067  0.6038
  748TIP3    H123659   4.477   3.935  17.421 -1.6025  0.5217  0.0090
  748TIP3    H223660   4.547   3.802  17.401 -0.0382  0.8299  2.9256
  749TIP3   OH223661   3.982   5.885   5.312  0.5490 -0.0708 -0.2073
  749TIP3    H123662   4.008   5.816   5.373  1.6156  0.5467  0.0691
  749TIP3    H223663   4.004   5.966   5.358  0.6018  0.4242 -1.0893
  750TIP3   OH223664   3.825   6.114  14.329 -0.3237 -0.3439  1.2805
  750TIP3    H123665   3.807   6.171  14.253 -1.4107 -0.2452  1.6012
  750TIP3    H223666   3.899   6.156  14.372  0.0040 -0.1361  0.5368
  751TIP3   OH223667   6.375   3.198  13.992 -0.0135 -0.2653 -0.5574
  751TIP3    H123668   6.455   3.160  14.028 -0.4103 -2.1024 -1.4857
  751TIP3    H223669   6.400   3.286  13.964  1.0558  0.0625  1.3005
  752TIP3   OH223670   0.793   2.173  13.812  0.1723 -0.2249  0.2324
  752TIP3    H123671   0.773   2.260  13.846 -2.3091 -0.4439 -0.4942
  752TIP3    H223672   0.828   2.125  13.887 -1.6230  0.4088  1.5367
  753TIP3   OH223673   1.036   1.839  14.525  0.0114  0.2180 -0.2763
  753TIP3    H123674   1.080   1.885  14.454 -0.3848  0.2574 -0.5026
  753TIP3    H223675   0.946   1.870  14.521 -0.7206 -1.8313 -1.5611
  754TIP3   OH223676   2.505   5.955  12.483  0.4246  0.1922  0.3783
  754TIP3    H123677   2.537   6.037  12.446  1.1669  0.6691  1.9799
  754TIP3    H223678   2.585   5.909  12.510  0.0243 -1.1056 -0.5645
  755TIP3   OH223679   3.142   4.833   4.058 -0.1723 -0.5463  0.6249
  755TIP3    H123680   3.122   4.833   4.151  2.7484 -1.4046  1.3892
  755TIP3    H223681   3.127   4.742   4.031 -3.4356  0.1977 -0.4784
  756TIP3   OH223682   2.932   2.847   1.654 -0.0878 -0.4295 -0.6883
  756TIP3    H123683   2.925   2.816   1.563  0.6484  0.9327 -1.2469
  756TIP3    H223684   2.892   2.933   1.653 -0.6606 -0.6667  0.4502
  757TIP3   OH223685   2.064   5.660   5.555  0.1246  0.3764 -0.0564
  757TIP3    H123686   2.115   5.677   5.476  1.3367  0.1482  0.6443
  757TIP3    H223687   2.080   5.568   5.576  0.7227  0.7144  1.0580
  758TIP3   OH223688   6.486   3.424  13.295  0.0300  0.0679  0.4535
  758TIP3    H123689   6.555   3.488  13.310  0.5877 -0.2865 -0.5316
  758TIP3    H223690   6.528   3.339  13.306 -0.6388 -0.1487  1.4674
  759TIP3   OH223691   5.191   6.146  10.553  0.3791  0.0435  0.2394
  759TIP3    H123692   5.256   6.194  10.604 -0.5357  1.3411  0.2606
  759TIP3    H223693   5.232   6.062  10.533  1.6315  0.4166  1.1418
  760TIP3   OH223694   6.082   0.839   1.648  0.3421  0.0727  0.1588
  760TIP3    H123695   6.010   0.902   1.651 -0.2588 -0.6266  1.3190
  760TIP3    H223696   6.123   0.846   1.734 -1.3133 -2.8524  1.3107
  761TIP3   OH223697   1.017   3.139  12.224  0.8265  0.1751 -0.2210
  761TIP3    H123698   1.025   3.168  12.315  0.5473 -1.5334  0.3804
  761TIP3    H223699   0.938   3.086  12.222  1.9015 -1.4793 -0.9759
  762TIP3   OH223700   2.322   2.002   4.140 -0.2868  0.1975 -0.6715
  762TIP3    H123701   2.280   2.079   4.102 -1.0093 -0.0906 -0.4815
  762TIP3    H223702   2.377   1.967   4.070  0.0139  0.8563 -0.7699
  763TIP3   OH223703   6.217   5.466  11.354  0.4309  0.1244  0.8268
  763TIP3    H123704   6.202   5.406  11.427  1.9443 -0.5331  0.6507
  763TIP3    H223705   6.139   5.521  11.351 -1.9929 -3.0867 -0.2600
  764TIP3   OH223706   5.000   1.497  14.068 -0.5274 -0.1304  0.3051
  764TIP3    H123707   4.974   1.414  14.028 -0.4972 -0.1272  0.2777
  764TIP3    H223708   5.095   1.497  14.063 -0.5276 -0.0943  0.3057
  765TIP3   OH223709   1.667   0.613  15.840 -0.6280 -0.1939 -0.0395
  765TIP3    H123710   1.667   0.619  15.935 -2.5887 -0.9332  0.0604
  765TIP3    H223711   1.759   0.604  15.816  0.1450  2.3747  1.5760
  766TIP3   OH223712   6.535   3.022  16.634 -0.2369  0.7804 -0.5803
  766TIP3    H123713   6.619   2.987  16.603 -1.1882 -0.9471 -1.3331
  766TIP3    H223714   6.537   3.114  16.610  0.9508  0.5042 -1.6561
  767TIP3   OH223715   0.198   5.799  16.699  0.0025  0.2030  0.4930
  767TIP3    H123716   0.162   5.886  16.680  1.2991  0.6233 -0.1933
  767TIP3    H223717   0.194   5.753  16.615 -0.4758 -0.3241  0.8046
  768TIP3   OH223718   2.081   3.395   4.709 -0.7532  0.9398 -0.0042
  768TIP3    H123719   2.006   3.344   4.740 -0.5085 -0.0306 -0.9614
  768TIP3    H223720   2.138   3.402   4.785 -0.9118 -0.0116  0.2190
  769TIP3   OH223721   3.868   0.423  16.827  0.0560 -0.0725 -0.3976
  769TIP3    H123722   3.825   0.368  16.761 -0.8151  0.8540 -0.6384
  769TIP3    H223723   3.960   0.421  16.803  0.0127 -1.2409 -0.5234
  770TIP3   OH223724   6.670   3.216  12.830 -0.5527  0.1301 -0.4907
  770TIP3    H123725   6.605   3.145  12.839  0.5269 -0.8176  0.1806
  770TIP3    H223726   6.619   3.292  12.804 -1.6421 -1.1264 -2.2547
  771TIP3   OH223727   0.353   1.245   4.939 -0.2014 -0.1741 -0.2027
  771TIP3    H123728   0.386   1.158   4.962  0.8114  0.3768  0.5208
  771TIP3    H223729   0.376   1.256   4.847  1.5709  0.1312  0.2332
  772TIP3   OH223730   3.342   5.270  15.578  0.3050 -0.3262  0.2092
  772TIP3    H123731   3.378   5.192  15.620  1.5319 -1.0939 -2.0917
  772TIP3    H223732   3.416   5.308  15.531 -0.9931  0.4255 -1.3098
  773TIP3   OH223733   0.696   3.095   2.233  0.1085  0.5075  0.1455
  773TIP3    H123734   0.785   3.061   2.239 -1.2856 -4.2244 -1.2791
  773TIP3    H223735   0.693   3.139   2.148  0.9979  0.4197  0.0592
  774TIP3   OH223736   2.715   4.485  11.631 -0.2104 -0.3262  0.7204
  774TIP3    H123737   2.633   4.532  11.649 -0.1272  1.8468 -3.3075
  774TIP3    H223738   2.687   4.400  11.597 -0.8866  0.4262 -0.6968
  775TIP3   OH223739   0.902   2.258  12.126 -0.2622  0.0124  0.3703
  775TIP3    H123740   0.903   2.172  12.084  1.0615 -0.5923  1.5399
  775TIP3    H223741   0.974   2.306  12.084  0.2655 -0.1599  1.0616
  776TIP3   OH223742   6.741   0.184  16.666 -0.0677 -0.4650 -0.2722
  776TIP3    H123743   6.701   0.271  16.674  0.0230 -0.4004 -0.4902
  776TIP3    H223744   6.671   0.123  16.688 -0.7238 -0.4056 -2.0459
  777TIP3   OH223745   1.380   0.881   2.883  0.4636 -0.3771  0.6397
  777TIP3    H123746   1.370   0.801   2.831 -2.1101  0.3625 -0.1238
  777TIP3    H223747   1.328   0.865   2.962 -1.7699  1.1988 -0.4179
  778TIP3   OH223748   0.662   6.430  16.976 -0.4860 -0.1513 -0.1927
  778TIP3    H123749   0.644   6.396  16.889  2.2241  0.4160 -1.0774
  778TIP3    H223750   0.732   6.375  17.010 -0.7035  0.3541  1.1725
  779TIP3   OH223751   5.270   3.103   6.362  0.4156  0.2417 -0.0185
  779TIP3    H123752   5.237   3.014   6.375  0.6290  0.2734  0.8134
  779TIP3    H223753   5.303   3.129   6.448 -2.4496  2.2971  0.5776
  780TIP3   OH223754   4.838   5.817   5.599  0.2445  0.2962  0.0705
  780TIP3    H123755   4.902   5.773   5.655 -0.0587  0.3026  0.4237
  780TIP3    H223756   4.874   5.904   5.585  1.2339 -0.2994 -1.2630
  781TIP3   OH223757   5.139   4.282   3.793  0.1099  0.2357 -0.2353
  781TIP3    H123758   5.126   4.188   3.796  1.4242  0.0461  0.9841
  781TIP3    H223759   5.061   4.319   3.835  0.2305 -0.4131  0.5915
  782TIP3   OH223760   2.956   4.733  14.308 -0.5008  0.4623  0.4175
  782TIP3    H123761   2.880   4.677  14.319  0.3181 -0.9446 -0.7443
  782TIP3    H223762   2.929   4.800  14.245 -1.3558  1.1650  1.4997
  783TIP3   OH223763   1.527   4.818  13.160  0.1210 -0.2788  0.0785
  783TIP3    H123764   1.620   4.807  13.182  0.5780  4.5635  1.6888
  783TIP3    H223765   1.527   4.884  13.090 -2.1601 -1.6263 -1.3294
  784TIP3   OH223766   2.429   2.622   0.738  0.3616 -0.1743 -0.3095
  784TIP3    H123767   2.414   2.707   0.696  1.3350  0.1909  0.0602
  784TIP3    H223768   2.420   2.558   0.667  0.3347  0.2910 -0.7323
  785TIP3   OH223769   2.441   4.952  14.195 -0.0411  0.7978 -0.2490
  785TIP3    H123770   2.416   4.871  14.240  1.5214 -0.1783 -1.0413
  785TIP3    H223771   2.506   4.924  14.130  1.1301  2.8044 -0.0231
  786TIP3   OH223772   6.002   1.808  15.342  0.3562 -0.0937  0.5119
  786TIP3    H123773   5.971   1.882  15.395  0.3711  0.1123  0.2397
  786TIP3    H223774   5.953   1.816  15.260 -0.0255 -0.6944  0.6779
  787TIP3   OH223775   3.477   0.218  16.342 -0.2459 -0.1647  0.4986
  787TIP3    H123776   3.533   0.253  16.411  1.6515  1.4213 -1.6792
  787TIP3    H223777   3.392   0.262  16.355  0.9580  2.4900  0.1393
  788TIP3   OH223778   2.517   1.964  16.985  0.4072 -0.0510 -0.4486
  788TIP3    H123779   2.581   1.918  17.039  0.4289 -0.0870 -0.5044
  788TIP3    H223780   2.521   2.055  17.016  1.0807  0.1149 -1.0096
  789TIP3   OH223781   6.664   5.976   3.621 -0.3430  0.0465  0.3350
  789TIP3    H123782   6.571   5.996   3.612 -0.3253  1.8283  3.0504
  789TIP3    H223783   6.667   5.903   3.683  0.0459  1.7513  2.4500
  790TIP3   OH223784   0.838   3.462  16.390  0.3726 -0.0683  0.8833
  790TIP3    H123785   0.895   3.385  16.387  0.4344  0.0232 -0.8492
  790TIP3    H223786   0.893   3.532  16.426  0.2648 -0.8206  2.6557
  791TIP3   OH223787   1.015   2.813  12.593 -0.0596  0.7673  0.5989
  791TIP3    H123788   0.956   2.741  12.570 -0.4492  1.0478  0.7180
  791TIP3    H223789   1.005   2.822  12.688  3.3707 -2.0561  1.4426
  792TIP3   OH223790   1.656   5.599   4.559  0.0731 -0.3612  0.0311
  792TIP3    H123791   1.561   5.606   4.549 -0.2543  1.3168  3.1123
  792TIP3    H223792   1.684   5.544   4.486 -3.2831 -1.1538 -0.8171
  793TIP3   OH223793   4.954   6.009   0.626  0.1717  0.1491 -0.0301
  793TIP3    H123794   4.876   6.059   0.650  1.2256  1.5201  0.6533
  793TIP3    H223795   5.024   6.074   0.621  1.4603 -1.1613  0.1867
  794TIP3   OH223796   3.164   5.076  13.066  0.0019 -0.6525 -0.0688
  794TIP3    H123797   3.196   4.995  13.027 -0.9567  0.2968 -3.1327
  794TIP3    H223798   3.232   5.141  13.048 -0.2881 -0.2624  0.2115
  795TIP3   OH223799   3.475   6.055   2.963  0.3252 -0.2608  0.8871
  795TIP3    H123800   3.458   6.009   2.881 -2.3164 -0.9966  1.7523
  795TIP3    H223801   3.561   6.023   2.991  0.9309 -0.5717 -1.1501
  796TIP3   OH223802   6.136   1.986   4.371  0.1795 -0.0950  0.5085
  796TIP3    H123803   6.211   2.040   4.396 -0.0122 -0.1028  1.1088
  796TIP3    H223804   6.127   1.922   4.441  0.3066 -0.8136 -0.1304
  797TIP3   OH223805   4.683   2.603   6.281 -0.5219  0.0594  0.6679
  797TIP3    H123806   4.760   2.655   6.304 -1.0011  0.3725  1.6202
  797TIP3    H223807   4.628   2.606   6.359 -1.5905  0.0047 -0.0558
  798TIP3   OH223808   2.024   1.037   5.092 -0.0921  0.3488 -0.0621
  798TIP3    H123809   2.092   0.972   5.110  1.5650  2.4250  1.7051
  798TIP3    H223810   1.977   1.045   5.175 -0.9490  0.6817 -0.5698
  799TIP3   OH223811   5.636   1.491   4.512 -0.1277  0.1484 -0.3766
  799TIP3    H123812   5.671   1.413   4.471  0.0097  0.2222 -0.4006
  799TIP3    H223813   5.673   1.564   4.462 -0.4501  0.2224 -0.5070
  800TIP3   OH223814   1.621   4.483   3.748  0.3201 -0.1080  0.5309
  800TIP3    H123815   1.576   4.479   3.663 -0.2721  1.4484  0.7517
  800TIP3    H223816   1.701   4.432   3.734 -0.1250 -0.5203 -0.7258
  801TIP3   OH223817   4.820   3.656  13.308 -0.3148  0.2379 -0.1903
  801TIP3    H123818   4.731   3.677  13.336 -0.5456  0.0241 -0.7602
  801TIP3    H223819   4.841   3.575  13.355  0.0376  0.9137  0.8753
  802TIP3   OH223820   5.291   3.603  14.700  0.5133  0.0060  0.2375
  802TIP3    H123821   5.276   3.686  14.653  0.9467 -0.1770 -0.2313
  802TIP3    H223822   5.348   3.553  14.642 -1.8740 -1.7403 -0.7507
  803TIP3   OH223823   0.664   1.450  11.605 -0.1597 -0.1898 -0.0481
  803TIP3    H123824   0.627   1.526  11.649 -1.5714 -0.6022 -0.4548
  803TIP3    H223825   0.664   1.474  11.512  1.9206  0.3160  0.0336
  804TIP3   OH223826   5.752   4.128   3.500  0.5182 -0.0390  0.4990
  804TIP3    H123827   5.749   4.037   3.528  2.8844 -0.3274 -0.0063
  804TIP3    H223828   5.833   4.162   3.537  1.8775  0.6242 -2.7614
  805TIP3   OH223829   2.729   3.463  10.905 -0.0665  0.4646 -0.1413
  805TIP3    H123830   2.777   3.484  10.985  0.9578 -2.1153  0.0250
  805TIP3    H223831   2.638   3.457  10.933  0.1861  0.3125  0.6799
  806TIP3   OH223832   0.029   6.495   5.649 -1.1429  0.3360 -0.8402
  806TIP3    H123833   0.042   6.401   5.654 -0.7046  0.4747  1.3523
  806TIP3    H223834  -0.062   6.505   5.621 -0.8985 -0.7022 -2.1016
  807TIP3   OH223835   4.700   2.315  13.332 -0.5309 -0.4853  0.3315
  807TIP3    H123836   4.775   2.262  13.303 -1.2910 -1.2519 -0.3023
  807TIP3    H223837   4.695   2.299  13.427  0.1084 -0.4211  0.3808
  808TIP3   OH223838   2.492   5.986   4.725  0.1359  0.0724  0.2452
  808TIP3    H123839   2.416   6.041   4.745  0.5375  0.7290  0.0304
  808TIP3    H223840   2.498   5.988   4.629 -1.6996 -2.9454 -0.0457
  809TIP3   OH223841   4.208   5.354   3.010  0.3466  0.5911 -0.2049
  809TIP3    H123842   4.135   5.363   2.950  0.4471  0.5434 -0.3370
  809TIP3    H223843   4.172   5.310   3.086  0.4982 -0.5762 -0.7784
  810TIP3   OH223844   3.724   4.048  11.382 -0.2666  0.0407  0.1339
  810TIP3    H123845   3.738   3.954  11.378 -0.1968 -0.1265  2.8193
  810TIP3    H223846   3.807   4.085  11.352  0.6946 -0.8241  1.6002
  811TIP3   OH223847   1.717   5.287  11.928 -0.0334 -0.1715  0.1077
  811TIP3    H123848   1.681   5.210  11.972 -4.3743  1.1829 -0.6544
  811TIP3    H223849   1.724   5.353  11.997  0.1960 -0.1935  0.1053
  812TIP3   OH223850   2.647   6.301  12.580 -0.5365 -0.1122  0.6179
  812TIP3    H123851   2.679   6.232  12.637 -3.4092 -0.5847  1.8764
  812TIP3    H223852   2.637   6.259  12.495 -1.1107 -0.9464  1.0778
  813TIP3   OH223853   0.195   5.121   6.127 -0.9612  0.1048 -0.5925
  813TIP3    H123854   0.147   5.200   6.153 -0.7807  0.1466 -0.3790
  813TIP3    H223855   0.169   5.055   6.192 -1.9678 -0.3330 -1.4131
  814TIP3   OH223856   6.185   4.302  15.238  0.5478  0.4269  0.2810
  814TIP3    H123857   6.273   4.276  15.209  0.6279 -1.2072  1.8106
  814TIP3    H223858   6.198   4.331  15.328 -0.7109 -1.6593  1.1968
  815TIP3   OH223859   3.595   3.014  12.080 -0.3545 -0.1531  0.2223
  815TIP3    H123860   3.667   3.053  12.129  1.1128  0.0095 -1.9414
  815TIP3    H223861   3.555   2.952  12.142  0.6696  0.8463  1.9585
  816TIP3   OH223862   2.468   3.499  12.813  0.1699 -0.9633 -0.4559
  816TIP3    H123863   2.399   3.535  12.757 -2.7190 -1.7017  2.3073
  816TIP3    H223864   2.474   3.407  12.787  0.9992 -0.6249 -1.4916
  817TIP3   OH223865   0.370   4.591  13.746  0.5692  0.8018 -0.2735
  817TIP3    H123866   0.330   4.675  13.725  1.2180  1.2204  0.1141
  817TIP3    H223867   0.457   4.614  13.780  0.1219  0.0964  1.4433
  818TIP3   OH223868   2.175   6.572  16.982 -0.1044 -0.4794 -0.7133
  818TIP3    H123869   2.243   6.580  16.915 -0.0105 -2.1741 -0.8546
  818TIP3    H223870   2.095   6.550  16.933  0.1232 -2.4788 -0.2555
  819TIP3   OH223871   3.875   2.786  16.792  0.2721  0.0335  0.2570
  819TIP3    H123872   3.864   2.829  16.877  2.3628  0.1269  0.5305
  819TIP3    H223873   3.946   2.722  16.807  1.0647  0.4452 -1.5351
  820TIP3   OH223874   3.060   3.041  12.320  0.0830 -0.2393  0.0975
  820TIP3    H123875   3.006   2.962  12.321 -0.5874  0.2128  0.9307
  820TIP3    H223876   3.101   3.043  12.406 -0.5979  0.7762  0.4142
  821TIP3   OH223877   2.849   3.922  14.274 -0.8054 -0.2086 -0.6862
  821TIP3    H123878   2.833   3.930  14.180 -2.2730 -0.5135 -0.4853
  821TIP3    H223879   2.886   3.834  14.285  1.6821  0.6854 -1.2163
  822TIP3   OH223880   6.063   4.575   4.823 -0.1329  0.0591 -0.5469
  822TIP3    H123881   6.044   4.654   4.772 -1.9829  0.0696  0.0771
  822TIP3    H223882   5.977   4.540   4.845  0.4822  0.6514  3.5418
  823TIP3   OH223883   0.228   4.486  15.267  0.5984  0.3716 -0.6226
  823TIP3    H123884   0.205   4.442  15.185  1.5525  0.3700 -0.8981
  823TIP3    H223885   0.223   4.579  15.247 -1.8414  0.4771  0.0753
  824TIP3   OH223886   1.772   5.509   0.359  0.0612  0.1844  0.3547
  824TIP3    H123887   1.811   5.519   0.273 -1.6658 -0.7496 -0.6026
  824TIP3    H223888   1.838   5.462   0.410  0.4402 -0.8292 -1.0085
  825TIP3   OH223889   2.724   0.518   0.102  0.0952 -0.1661 -0.0716
  825TIP3    H123890   2.809   0.560   0.119 -0.3715  0.7189  0.1230
  825TIP3    H223891   2.671   0.537   0.179 -1.0459  1.3323 -1.1570
  826TIP3   OH223892   2.836   5.552   0.040 -0.2644 -0.1649  0.7124
  826TIP3    H123893   2.837   5.458   0.022 -2.4957 -0.2626  0.7820
  826TIP3    H223894   2.928   5.578   0.036  0.2572 -1.9455 -1.3719
  827TIP3   OH223895   1.057   1.899   5.833  0.6149 -0.1266 -0.0251
  827TIP3    H123896   1.123   1.830   5.844  0.5312 -0.1069  0.6818
  827TIP3    H223897   0.975   1.851   5.824  0.3315 -0.1352  2.0524
  828TIP3   OH223898   4.076   4.060  14.841 -0.1805  0.5953 -0.0660
  828TIP3    H123899   4.016   3.990  14.813 -0.2732  0.3658  0.6930
  828TIP3    H223900   4.113   4.028  14.923  1.7509  0.2822 -1.0093
  829TIP3   OH223901   4.008   5.590  10.837 -0.1947  0.1553  0.0548
  829TIP3    H123902   4.058   5.668  10.813  0.0715  0.0832  0.3598
  829TIP3    H223903   3.926   5.624  10.872 -0.1618  0.2918  0.0020
  830TIP3   OH223904   4.633   0.002   3.308 -0.1746 -0.2503 -0.2955
  830TIP3    H123905   4.621  -0.075   3.254  0.6892  0.2435 -1.2222
  830TIP3    H223906   4.565  -0.005   3.375 -0.0884 -1.8151 -0.3368
  831TIP3   OH223907   1.778   2.322  16.954  0.3916  0.8883  0.2255
  831TIP3    H123908   1.686   2.309  16.931  0.9038  0.4986 -1.8180
  831TIP3    H223909   1.785   2.289  17.043 -0.6829 -2.9325 -0.8812
  832TIP3   OH223910   6.232   6.647   6.128 -0.6316 -0.3663  0.0780
  832TIP3    H123911   6.307   6.687   6.172 -0.8045 -1.4641  1.4439
  832TIP3    H223912   6.159   6.708   6.144 -0.3395  0.0338 -0.0938
  833TIP3   OH223913   0.862   5.111  17.089  0.6887  0.0371  0.9518
  833TIP3    H123914   0.945   5.106  17.040  0.9415  0.3859  1.3407
  833TIP3    H223915   0.855   5.203  17.114 -0.7197  0.4116 -0.6223
  834TIP3   OH223916   4.526   1.268  13.552  0.0548 -0.7062 -0.0178
  834TIP3    H123917   4.517   1.275  13.457 -0.6559 -1.7682 -0.0501
  834TIP3    H223918   4.488   1.348  13.586 -1.1786 -1.0306 -0.5789
  835TIP3   OH223919   3.478   6.105  17.387  0.1031  0.8410 -0.0888
  835TIP3    H123920   3.469   6.151  17.304 -1.1328  0.2003 -0.3199
  835TIP3    H223921   3.537   6.032  17.367 -0.2017  0.6804 -0.4028
  836TIP3   OH223922   1.553   2.837   0.569 -0.1432  0.1219 -0.0498
  836TIP3    H123923   1.473   2.798   0.603 -1.1444 -0.0335 -2.3926
  836TIP3    H223924   1.604   2.762   0.536 -0.3556  0.4173 -1.1116
  837TIP3   OH223925   4.649   1.417  11.434  0.0502  0.2270 -0.6592
  837TIP3    H123926   4.735   1.414  11.476 -0.0930  0.6491 -0.3275
  837TIP3    H223927   4.639   1.509  11.408 -0.1610  0.1103 -0.9901
  838TIP3   OH223928   5.947   0.377   1.190  0.4497 -0.5689  0.4567
  838TIP3    H123929   5.897   0.429   1.127  1.0977  0.5162  0.8098
  838TIP3    H223930   5.881   0.323   1.233 -0.3293  0.2954  0.4050
  839TIP3   OH223931   4.453   0.525  13.239  0.5276  0.6430  0.3746
  839TIP3    H123932   4.370   0.565  13.212 -0.2241 -1.2625 -0.3008
  839TIP3    H223933   4.520   0.589  13.214 -0.6540  1.7965  0.0375
  840TIP3   OH223934   5.174   0.145   2.927 -0.5303 -0.0228  0.1494
  840TIP3    H123935   5.110   0.105   2.987 -0.4879 -0.1924  0.0829
  840TIP3    H223936   5.254   0.093   2.940 -0.6001 -0.2355 -0.2534
  841TIP3   OH223937   4.551   1.764   6.481 -0.2664  0.3346  0.3484
  841TIP3    H123938   4.603   1.719   6.547  0.6148  0.0943 -0.4836
  841TIP3    H223939   4.608   1.769   6.404 -2.1196 -1.7746 -1.3180
  842TIP3   OH223940   0.842   0.007  16.283 -0.3705 -0.2847  0.0117
  842TIP3    H123941   0.928   0.002  16.241 -0.7810  1.1557 -1.0771
  842TIP3    H223942   0.860   0.027  16.375  0.4603 -0.7038 -0.0529
  843TIP3   OH223943   1.237   2.675  11.855 -0.4050 -0.4099  0.7033
  843TIP3    H123944   1.230   2.615  11.780 -0.2828 -0.4128  0.6934
  843TIP3    H223945   1.330   2.676  11.876 -0.3153  0.2680  0.3006
  844TIP3   OH223946   6.647   5.233   2.551 -0.1673 -0.2403  0.0748
  844TIP3    H123947   6.728   5.216   2.600  0.5508  0.1607 -0.9302
  844TIP3    H223948   6.618   5.147   2.522 -0.0714 -0.3804  0.3840
  845TIP3   OH223949   0.541   6.268   0.639 -0.2014  0.1110 -0.1728
  845TIP3    H123950   0.564   6.219   0.560 -2.0650 -1.1283 -0.0002
  845TIP3    H223951   0.565   6.211   0.711  0.7692  0.9127  0.1575
  846TIP3   OH223952   2.519   2.157   0.038 -0.4717  0.3816  0.3472
  846TIP3    H123953   2.573   2.099  -0.015  0.2105  0.6123  0.7704
  846TIP3    H223954   2.519   2.118   0.125 -0.9843  0.3926  0.3576
  847TIP3   OH223955   1.927   0.616  12.621 -0.2455 -0.2867 -0.1904
  847TIP3    H123956   2.005   0.665  12.595 -0.9347  0.7037 -0.4287
  847TIP3    H223957   1.949   0.525  12.600  1.9389 -0.4664  2.3955
  848TIP3   OH223958   1.184   6.722  13.459 -0.1637 -0.6293  0.1638
  848TIP3    H123959   1.119   6.728  13.529 -0.0797  1.3504  0.1275
  848TIP3    H223960   1.191   6.628  13.441 -0.2369 -1.1929  2.7367
  849TIP3   OH223961   6.649   2.450   4.882 -0.3243  0.1420  0.6177
  849TIP3    H123962   6.570   2.441   4.828  0.3195 -0.2027 -0.2919
  849TIP3    H223963   6.652   2.369   4.934 -0.5399  0.1400  0.6283
  850TIP3   OH223964   0.714   5.009  16.448  0.6075 -0.0618 -0.8574
  850TIP3    H123965   0.619   5.013  16.459  0.5814  0.4419 -1.2203
  850TIP3    H223966   0.738   4.920  16.474 -0.0954 -0.5213 -1.7334
  851TIP3   OH223967   3.094   3.098  10.699  0.1182  0.1441  0.2130
  851TIP3    H123968   3.014   3.115  10.748  0.2192  2.2326 -0.2241
  851TIP3    H223969   3.069   3.034  10.633 -1.0286  0.2560  0.5162
  852TIP3   OH223970   4.950   3.057  14.717  0.3027  0.2886  0.1774
  852TIP3    H123971   5.003   3.018  14.647  2.2822  1.3103  1.0410
  852TIP3    H223972   4.870   3.003  14.719  1.0457 -0.9820 -1.5205
  853TIP3   OH223973   0.147   2.480   4.660  0.1058  0.2873 -0.1811
  853TIP3    H123974   0.078   2.468   4.725  0.1223  0.2364 -0.1732
  853TIP3    H223975   0.197   2.399   4.663  1.0995  0.8960  0.9180
  854TIP3   OH223976   6.693   4.062  15.909 -0.2065  0.5889 -0.2418
  854TIP3    H123977   6.751   4.138  15.908 -1.0231  1.2203 -0.6256
  854TIP3    H223978   6.719   4.013  15.987  0.3307  1.2541  0.0076
  855TIP3   OH223979   4.555   3.635   3.927 -0.1150 -0.3932 -0.4437
  855TIP3    H123980   4.629   3.695   3.931  0.6722 -1.3770  0.2290
  855TIP3    H223981   4.495   3.675   3.864 -0.8459  2.4156  1.8195
  856TIP3   OH223982   5.794   1.291   3.901  0.1064  0.0528 -0.6539
  856TIP3    H123983   5.766   1.277   3.991 -0.5845  0.2394 -0.8282
  856TIP3    H223984   5.880   1.250   3.895 -0.4255 -1.1672 -0.2817
  857TIP3   OH223985   5.331   3.190   5.168  0.2962 -0.3203 -0.6082
  857TIP3    H123986   5.398   3.123   5.154 -0.3208 -1.0344 -0.2589
  857TIP3    H223987   5.258   3.162   5.113  0.2218  0.3602 -0.8637
  858TIP3   OH223988   0.392   4.195  13.146 -0.3462  0.5912  0.0462
  858TIP3    H123989   0.347   4.278  13.130 -0.6608  0.4192  0.0114
  858TIP3    H223990   0.348   4.159  13.222  1.9202  1.9587  2.1335
  859TIP3   OH223991   1.308   4.548  15.130  0.0837 -0.4818  0.1690
  859TIP3    H123992   1.381   4.525  15.073  1.4742  2.8343  0.3493
  859TIP3    H223993   1.336   4.520  15.217 -0.1168 -1.6545 -0.1280
  860TIP3   OH223994   1.574   6.647  14.727  0.0426 -0.6561  0.3683
  860TIP3    H123995   1.653   6.648  14.782 -1.3325 -0.9942  2.4451
  860TIP3    H223996   1.541   6.558  14.733 -0.9109 -0.3309  0.1510
  861TIP3   OH223997   6.092   5.114  16.565 -0.2377 -0.1922  0.0391
  861TIP3    H123998   6.138   5.106  16.648 -0.1367  1.1892  0.1487
  861TIP3    H223999   6.100   5.207  16.543 -2.4519 -0.0323 -0.2444
  862TIP3   OH224000   0.572   1.829  13.170  0.1614  0.4339 -0.3605
  862TIP3    H124001   0.498   1.889  13.156 -1.3332 -1.4271 -0.8212
  862TIP3    H224002   0.592   1.796  13.082  2.1569  1.5171 -0.3717
  863TIP3   OH224003   4.215   1.976   0.419 -0.2006  0.6371 -0.0415
  863TIP3    H124004   4.170   2.056   0.443  0.6978  1.6419 -1.5117
  863TIP3    H224005   4.204   1.970   0.324  0.6757 -0.3930 -0.1064
  864TIP3   OH224006   2.797   1.096  11.962  0.1160 -0.1842  0.1503
  864TIP3    H124007   2.820   1.064  12.049  0.4774  0.3698  0.2665
  864TIP3    H224008   2.723   1.042  11.935 -0.9944  0.6340  1.4419
  865TIP3   OH224009   2.981   5.487   5.474  0.3217 -0.6428 -0.1191
  865TIP3    H124010   3.012   5.507   5.386 -1.3931  0.2747 -0.5650
  865TIP3    H224011   2.998   5.567   5.524 -2.2825  0.3879 -0.6969
  866TIP3   OH224012   6.218   2.651  15.922  0.3732  0.1887  0.4439
  866TIP3    H124013   6.168   2.605  15.989 -1.3040  0.0200 -0.8360
  866TIP3    H224014   6.275   2.585  15.884  2.1297  0.5135  2.3241
  867TIP3   OH224015   4.378   5.199   3.731  0.2465 -0.1449 -0.5017
  867TIP3    H124016   4.462   5.235   3.704 -0.7214  1.9705 -0.9098
  867TIP3    H224017   4.394   5.161   3.817  1.0419  2.9356  0.8377
  868TIP3   OH224018   0.094   4.561  11.809  0.1028  0.0210 -0.1055
  868TIP3    H124019   0.139   4.477  11.795 -0.2457 -0.2077  0.1440
  868TIP3    H224020   0.002   4.537  11.820  0.2718  0.2183  2.1809
  869TIP3   OH224021   2.968   6.532   6.501  0.1896  0.0635 -0.6174
  869TIP3    H124022   2.959   6.454   6.554  1.6027  0.5001  0.3195
  869TIP3    H224023   2.879   6.568   6.494  0.1303  0.9483  2.9691
  870TIP3   OH224024   1.938   3.555  11.769  0.5005  0.2411  0.6201
  870TIP3    H124025   1.910   3.464  11.766 -0.1715  0.4523  0.3201
  870TIP3    H224026   1.857   3.606  11.766  0.8863  0.8597  0.1288
  871TIP3   OH224027   0.985   6.726  12.528 -0.1210 -0.2196 -0.0820
  871TIP3    H124028   1.006   6.634  12.514 -0.0955 -0.2481  0.1364
  871TIP3    H224029   0.999   6.767  12.443 -0.2779 -0.4436 -0.2160
  872TIP3   OH224030   2.439   6.631   5.921 -0.4063  0.3744  0.0186
  872TIP3    H124031   2.436   6.676   6.006 -2.8384 -0.0367  0.2116
  872TIP3    H224032   2.375   6.678   5.868 -0.1995 -0.4966 -1.0147
  873TIP3   OH224033   6.053   2.555   4.672 -0.5859  0.2985  0.4652
  873TIP3    H124034   6.004   2.499   4.612  1.4158 -1.4667  0.3317
  873TIP3    H224035   6.007   2.546   4.756 -1.4471  0.0752 -0.0164
  874TIP3   OH224036   6.516   3.287   2.204  0.1903  0.2987 -0.0477
  874TIP3    H124037   6.549   3.344   2.134 -1.3677  0.5144 -0.6608
  874TIP3    H224038   6.431   3.325   2.227  0.6797  0.2549  2.0193
  875TIP3   OH224039   2.920   3.237   0.032 -0.0094 -0.1498 -0.5359
  875TIP3    H124040   2.957   3.255   0.118 -0.0393  0.6553 -0.6756
  875TIP3    H224041   2.950   3.310  -0.022 -1.9445  0.6594 -0.6173
  876TIP3   OH224042   4.877   5.581   3.920 -0.4815 -0.0908 -0.5968
  876TIP3    H124043   4.862   5.486   3.921  0.1911 -0.2507 -2.4993
  876TIP3    H224044   4.831   5.613   3.997  1.4701 -2.2867  1.6840
  877TIP3   OH224045   3.971   6.423   5.244  0.0766 -0.1638  0.1367
  877TIP3    H124046   4.005   6.501   5.199  1.8123 -0.3595  1.0203
  877TIP3    H224047   4.002   6.433   5.335 -1.3559 -0.9277  0.7379
  878TIP3   OH224048   2.039   6.736  17.308  0.1224  0.3759  0.4601
  878TIP3    H124049   2.103   6.677  17.348 -0.4289 -0.8525 -0.3946
  878TIP3    H224050   2.077   6.823  17.318  0.3934  0.0570  2.8728
  879TIP3   OH224051   2.515   1.002   4.931 -0.5027  0.0710 -0.1641
  879TIP3    H124052   2.604   1.035   4.941 -0.1548 -0.8122 -0.3011
  879TIP3    H224053   2.526   0.909   4.911 -1.4235  0.0978 -0.8726
  880TIP3   OH224054   3.443   1.813  12.475 -0.6075 -0.2955 -0.1535
  880TIP3    H124055   3.523   1.865  12.474 -0.7298  0.0626  2.1890
  880TIP3    H224056   3.387   1.853  12.409  0.2386  0.9801 -0.1263
  881TIP3   OH224057   0.852   2.744   2.062  0.5425  0.3212 -0.3218
  881TIP3    H124058   0.867   2.799   2.138 -2.4701  0.8790 -0.0180
  881TIP3    H224059   0.805   2.799   2.000 -0.7112 -1.2757 -0.8758
  882TIP3   OH224060   0.359   3.185  15.975 -0.5464  0.3587 -0.2819
  882TIP3    H124061   0.292   3.236  15.930 -0.9800 -0.6792 -0.8209
  882TIP3    H224062   0.393   3.125  15.909  1.7318  1.5913 -0.3713
  883TIP3   OH224063   3.815   1.574   0.137 -0.3057  0.0934 -0.2117
  883TIP3    H124064   3.723   1.589   0.157  0.3844  1.1792  2.6092
  883TIP3    H224065   3.858   1.657   0.159  1.5616 -0.9429  0.2044
  884TIP3   OH224066   1.511   4.051  16.535 -0.8091 -0.0901 -0.6602
  884TIP3    H124067   1.583   4.044  16.597 -1.4078 -0.5250 -0.0037
  884TIP3    H224068   1.441   4.094  16.584 -2.0510 -2.3537 -0.3058
  885TIP3   OH224069   6.741   5.002   5.446  0.1319 -0.0807 -0.0237
  885TIP3    H124070   6.824   4.995   5.493 -0.4031 -0.8849  0.8447
  885TIP3    H224071   6.696   5.076   5.487 -0.0741 -0.3925  0.3183
  886TIP3   OH224072   0.226   1.779  14.256  0.0562  0.5082 -0.2002
  886TIP3    H124073   0.232   1.736  14.171 -0.7707  0.7300 -0.3863
  886TIP3    H224074   0.187   1.714  14.313 -0.8564  0.8752 -0.3910
  887TIP3   OH224075   1.921   4.158   3.480 -0.1286 -0.4145 -0.7469
  887TIP3    H124076   1.861   4.172   3.406  0.7229 -2.4736 -1.9162
  887TIP3    H224077   2.002   4.201   3.453 -0.3619  0.4356 -0.1484
  888TIP3   OH224078   3.780   3.435  12.353  0.0610 -0.5793  0.0338
  888TIP3    H124079   3.703   3.492  12.350 -0.6604 -1.4951  0.6329
  888TIP3    H224080   3.848   3.484  12.307 -0.6879  0.5361  0.0844
  889TIP3   OH224081   0.896   5.515  11.007 -0.3392 -0.2835  0.1342
  889TIP3    H124082   0.845   5.439  10.977 -1.2642  0.1551  0.5631
  889TIP3    H224083   0.838   5.590  10.991 -0.1884  0.1355  1.4512
  890TIP3   OH224084   0.192   1.010   2.642  0.0784  0.4205 -0.1505
  890TIP3    H124085   0.247   0.947   2.596 -0.0103  0.9759 -1.0309
  890TIP3    H224086   0.143   0.957   2.705  0.1128 -0.3748 -0.7742
  891TIP3   OH224087   3.090   0.953   1.719  0.1594  0.3847  0.3697
  891TIP3    H124088   3.044   0.958   1.803  2.7162  1.2430  1.8235
  891TIP3    H224089   3.095   1.044   1.689 -0.1867  0.1498 -0.4362
  892TIP3   OH224090   3.956   3.812   5.721  0.4451  0.7278  0.2497
  892TIP3    H124091   3.938   3.769   5.805 -1.8624  1.0673 -0.0163
  892TIP3    H224092   3.939   3.744   5.655 -2.5387  1.7393 -0.1363
  893TIP3   OH224093   1.916   1.229  11.231 -0.4325 -0.2040  0.1511
  893TIP3    H124094   1.921   1.287  11.307 -0.9645 -0.5466  0.4616
  893TIP3    H224095   2.001   1.185  11.228 -0.0875  0.4615  0.0115
  894TIP3   OH224096   3.518   0.474  13.942  0.1381 -0.5352 -0.1195
  894TIP3    H124097   3.448   0.454  14.004  1.0733 -0.7330  0.9022
  894TIP3    H224098   3.587   0.411  13.962  0.6587 -0.2849 -1.0472
  895TIP3   OH224099   4.797   0.397   3.230  0.5623 -0.0959  0.4239
  895TIP3    H124100   4.768   0.467   3.170  0.1554  0.7214  1.5386
  895TIP3    H224101   4.802   0.319   3.175  0.8380  0.7676 -0.8147
  896TIP3   OH224102   1.045   1.808   2.908  0.0894 -0.1782  0.6142
  896TIP3    H124103   1.039   1.837   2.817  1.4194 -0.1561  0.5141
  896TIP3    H224104   1.118   1.746   2.909  0.3357  0.1021  1.7259
  897TIP3   OH224105   0.881   5.229   0.598  0.3757 -0.4849 -0.2729
  897TIP3    H124106   0.889   5.133   0.601  2.2879 -0.3691  2.7774
  897TIP3    H224107   0.935   5.260   0.671 -0.1488  2.9625 -1.1668
  898TIP3   OH224108   3.283   3.910  15.359  0.2090 -0.2416 -0.3768
  898TIP3    H124109   3.316   3.982  15.413  1.7812 -1.6550  0.6589
  898TIP3    H224110   3.354   3.846  15.358 -1.1469 -1.8224 -1.2054
  899TIP3   OH224111   4.866   2.043  17.165  0.0388  0.0316 -0.1892
  899TIP3    H124112   4.837   1.981  17.232 -0.1759  0.0260 -0.2868
  899TIP3    H224113   4.922   1.991  17.108  1.0413  0.2687  0.5503
  900TIP3   OH224114   4.500   4.245  13.088 -0.1525  0.1197  0.2842
  900TIP3    H124115   4.528   4.157  13.062  0.0212  0.2582  0.0065
  900TIP3    H224116   4.523   4.250  13.181  1.6497  0.5768 -0.1475
  901TIP3   OH224117   0.677   0.439  11.321 -0.0430 -0.3402  0.5861
  901TIP3    H124118   0.680   0.387  11.241 -0.3944 -0.5966  0.7355
  901TIP3    H224119   0.704   0.526  11.294 -1.2473 -0.1423 -0.0462
  902TIP3   OH224120   4.991   5.503   1.489  0.2731  0.0683 -0.4581
  902TIP3    H124121   4.929   5.468   1.553 -0.0925  1.0764 -0.2273
  902TIP3    H224122   5.071   5.517   1.539 -0.4059  2.1182  0.1783
  903TIP3   OH224123   0.913   2.801   0.196  0.0468  0.7691  0.7204
  903TIP3    H124124   0.852   2.766   0.133 -0.0766  1.6079  0.3550
  903TIP3    H224125   0.958   2.872   0.149  2.6292 -0.9884  0.3696
  904TIP3   OH224126   0.633   6.038   2.926  0.1208  0.0287  0.1865
  904TIP3    H124127   0.656   6.059   3.016  0.0498 -1.6257  0.6362
  904TIP3    H224128   0.552   6.085   2.910 -2.0381 -2.5868  2.3854
  905TIP3   OH224129   0.684   0.882  16.339 -0.1407 -0.5109  0.3202
  905TIP3    H124130   0.655   0.966  16.305  1.1624 -0.1402  0.0724
  905TIP3    H224131   0.614   0.821  16.314  0.4130 -0.1273 -2.4444
  906TIP3   OH224132   5.196   0.452  12.141 -0.4755 -0.2984  0.6638
  906TIP3    H124133   5.173   0.367  12.105 -0.8299  0.4110 -0.8543
  906TIP3    H224134   5.133   0.513  12.103  1.1867  1.0073 -0.1445
  907TIP3   OH224135   3.387   4.902   0.109 -0.7334  0.5476 -0.2940
  907TIP3    H124136   3.406   4.961   0.036 -0.4059  0.6221 -0.1467
  907TIP3    H224137   3.443   4.825   0.093 -1.1154  0.2962 -0.4546
  908TIP3   OH224138   5.447   3.778  16.383  0.4979  0.4743 -0.4859
  908TIP3    H124139   5.388   3.823  16.323  2.2598  0.7897 -2.0568
  908TIP3    H224140   5.468   3.696  16.339 -2.3075 -1.8957  2.1290
  909TIP3   OH224141   2.512   2.774   6.122  0.2859 -0.0275 -0.2069
  909TIP3    H124142   2.570   2.699   6.109 -0.5240 -0.5945 -0.5677
  909TIP3    H224143   2.464   2.753   6.202  0.2950  0.2720 -0.1207
  910TIP3   OH224144   5.327   3.685   1.606  0.6738 -0.5583 -0.0718
  910TIP3    H124145   5.285   3.769   1.585  0.5240 -1.0977 -2.1787
  910TIP3    H224146   5.254   3.625   1.619  0.7675 -0.2673  2.1083
  911TIP3   OH224147   1.898   6.275  16.301  0.2220  0.0910  0.7562
  911TIP3    H124148   1.893   6.219  16.378 -0.9607  0.3980  0.9120
  911TIP3    H224149   1.934   6.358  16.334  1.5354 -0.3973  0.6066
  912TIP3   OH224150   6.695   1.014  15.259  0.3073 -0.1018  0.3586
  912TIP3    H124151   6.697   1.019  15.163  0.1373 -0.8634  0.3083
  912TIP3    H224152   6.617   0.962  15.278 -0.8953  1.8422  1.0014
  913TIP3   OH224153   4.836   0.517  15.251 -0.7977  0.2692 -0.4338
  913TIP3    H124154   4.754   0.468  15.239 -1.1004  0.6446  0.0508
  913TIP3    H224155   4.897   0.477  15.189 -1.2748 -0.1823 -0.6235
  914TIP3   OH224156   2.711   0.325  13.523  0.5175  0.3330  0.0991
  914TIP3    H124157   2.644   0.367  13.469 -0.5416 -0.8231  0.4624
  914TIP3    H224158   2.684   0.342  13.613  1.4272  0.9423  0.2670
  915TIP3   OH224159   1.758   0.887  14.935  0.1930  0.8261 -0.0713
  915TIP3    H124160   1.820   0.951  14.898  0.5472  2.0118  2.3890
  915TIP3    H224161   1.672   0.926  14.919  0.1514  0.1351 -1.7311
  916TIP3   OH224162   3.978   3.429   0.713 -0.2159 -0.1958 -0.7608
  916TIP3    H124163   4.029   3.484   0.773 -1.2579  0.1967 -0.2065
  916TIP3    H224164   4.010   3.340   0.730  1.6494  0.2131 -1.8280
  917TIP3   OH224165   1.574   1.353   2.955 -0.2642 -0.3233 -0.1691
  917TIP3    H124166   1.553   1.279   2.897  0.6424  0.3858 -1.4394
  917TIP3    H224167   1.557   1.431   2.903 -1.8430  0.4363  1.3761
  918TIP3   OH224168   1.456   1.086  15.330 -0.4912 -0.2153 -0.6004
  918TIP3    H124169   1.528   1.057  15.273  0.2414 -0.2553  0.3236
  918TIP3    H224170   1.460   1.026  15.405 -0.3564  0.8886  0.2936
  919TIP3   OH224171   3.530   6.279  12.587  0.0505  0.1755  0.5218
  919TIP3    H124172   3.603   6.231  12.627  0.1140  0.6715  1.0081
  919TIP3    H224173   3.451   6.237  12.622  0.1030  0.0069  0.4388
  920TIP3   OH224174   6.358   5.010   5.519 -0.4504  0.2367 -0.3152
  920TIP3    H124175   6.396   5.096   5.535 -1.8552  1.0473 -1.0745
  920TIP3    H224176   6.265   5.021   5.539 -0.5107 -1.3706  0.4645
  921TIP3   OH224177   2.580   3.881  15.957  0.6198  0.3020  0.1159
  921TIP3    H124178   2.647   3.813  15.967 -0.0665 -0.2928  0.7474
  921TIP3    H224179   2.626   3.963  15.973  0.9521 -0.1772  1.8220
  922TIP3   OH224180   3.867   4.331  14.904  0.5633  0.4851 -0.2738
  922TIP3    H124181   3.875   4.420  14.870  0.2687  0.3445 -0.7214
  922TIP3    H224182   3.935   4.281  14.859 -0.2006  0.1700 -1.1035
  923TIP3   OH224183   0.703   5.305   3.532 -0.1888 -0.3098 -0.1158
  923TIP3    H124184   0.657   5.375   3.484  0.7504 -0.7144 -1.6708
  923TIP3    H224185   0.698   5.230   3.473  0.8866 -0.8678  0.4966
  924TIP3   OH224186   3.699   6.725   4.912 -0.7318 -0.2687 -0.6253
  924TIP3    H124187   3.699   6.646   4.966 -1.6127 -0.7182 -1.2380
  924TIP3    H224188   3.782   6.721   4.864 -0.7787 -0.8485 -0.6723
  925TIP3   OH224189   2.934   5.098   6.443  0.0450  0.0910 -0.2451
  925TIP3    H124190   2.960   5.190   6.439  0.4472 -0.0331 -0.5877
  925TIP3    H224191   3.016   5.050   6.450 -0.2237 -0.1673  1.6624
  926TIP3   OH224192   1.872   3.642   2.205 -0.1360 -0.2655  0.7419
  926TIP3    H124193   1.784   3.678   2.194  0.2513  0.2715 -0.8623
  926TIP3    H224194   1.895   3.663   2.295 -1.0550  0.9643  0.7161
  927TIP3   OH224195   5.090   6.712  15.873 -0.4367 -0.4415 -0.1703
  927TIP3    H124196   5.142   6.785  15.842 -2.4939  1.3392  0.3480
  927TIP3    H224197   5.005   6.721  15.829 -1.0835 -1.9115  0.6793
  928TIP3   OH224198   0.513   6.610   4.480  0.3505 -0.7001  0.2571
  928TIP3    H124199   0.511   6.706   4.472 -0.9703 -0.6985  0.4908
  928TIP3    H224200   0.590   6.593   4.535  1.0233  0.1712 -0.3834
  929TIP3   OH224201   1.186   4.616   3.857 -0.2981 -0.1974  0.3608
  929TIP3    H124202   1.243   4.547   3.823 -0.5301  0.0985 -0.6439
  929TIP3    H224203   1.122   4.569   3.911 -0.1648 -0.7128  0.0759
  930TIP3   OH224204   6.301   1.109   4.340 -0.4200  0.2344 -0.6040
  930TIP3    H124205   6.249   1.134   4.264 -0.1742  0.0679 -0.8282
  930TIP3    H224206   6.369   1.177   4.347 -0.2201  0.0495 -0.7525
  931TIP3   OH224207   4.306   1.184   0.802 -0.2228  0.0418  0.5885
  931TIP3    H124208   4.303   1.128   0.880  1.3604 -0.4383  0.3583
  931TIP3    H224209   4.395   1.219   0.802  0.1133 -0.6642 -1.4487
  932TIP3   OH224210   6.192   3.915   2.819  0.1495 -0.4739 -0.5222
  932TIP3    H124211   6.214   3.979   2.751  0.3283 -1.2720 -1.2303
  932TIP3    H224212   6.266   3.854   2.819  0.7788  0.2075  1.2805
  933TIP3   OH224213   0.018   3.901  14.318  0.5511  0.3283  0.6414
  933TIP3    H124214   0.104   3.933  14.290  0.4045  0.0658 -0.1292
  933TIP3    H224215   0.002   3.824  14.264  0.3090 -0.2740  1.5492
  934TIP3   OH224216   3.509   1.197   4.866  0.0018 -0.2521 -0.2220
  934TIP3    H124217   3.522   1.232   4.778  1.4466 -1.1080 -0.3674
  934TIP3    H224218   3.586   1.225   4.915 -0.0625 -1.0615  0.3578
  935TIP3   OH224219   0.210   5.910  11.150 -0.0795  0.1853  0.3729
  935TIP3    H124220   0.285   5.966  11.132  1.6392 -2.6398 -2.1192
  935TIP3    H224221   0.134   5.968  11.137  1.5693  2.1112 -1.4468
  936TIP3   OH224222   2.379   6.124   4.246  0.0069  0.0551 -0.2434
  936TIP3    H124223   2.405   6.216   4.247 -0.9951  0.3520  0.2419
  936TIP3    H224224   2.343   6.111   4.158 -0.1284  0.2145 -0.2135
  937TIP3   OH224225   2.198   1.219   1.270  0.2463 -0.1940  0.3745
  937TIP3    H124226   2.136   1.177   1.211 -1.9751  1.8227  1.1090
  937TIP3    H224227   2.231   1.294   1.221  0.0387  0.2563  0.9090
  938TIP3   OH224228   0.887   2.166   4.891  0.3436 -0.6087 -0.6260
  938TIP3    H124229   0.870   2.077   4.923 -1.1121 -0.3104 -0.4800
  938TIP3    H224230   0.843   2.170   4.806 -1.9970  0.7319  0.5301
  939TIP3   OH224231   3.140   5.332   4.283  0.4017 -0.3260 -0.0680
  939TIP3    H124232   3.108   5.350   4.195 -1.1492 -0.4316  0.4318
  939TIP3    H224233   3.225   5.289   4.270  1.1768  1.5035 -1.4178
  940TIP3   OH224234   2.944   5.030   5.567 -0.0380 -0.2476  0.4885
  940TIP3    H124235   2.869   4.983   5.604  0.8690 -2.1038  0.0645
  940TIP3    H224236   2.931   5.023   5.472  0.5433 -0.3656  0.4180
  941TIP3   OH224237   3.485   1.690  13.501 -0.7878 -0.0807  0.7807
  941TIP3    H124238   3.533   1.699  13.418 -0.2794  0.4283  1.1196
  941TIP3    H224239   3.397   1.665  13.476 -0.4862 -0.4837  0.1090
  942TIP3   OH224240   5.031   5.610   5.676 -0.0556 -0.6967 -0.4193
  942TIP3    H124241   4.966   5.540   5.685 -0.5029 -0.3189 -0.6452
  942TIP3    H224242   5.109   5.576   5.720 -0.7941 -0.6693  0.9747
  943TIP3   OH224243   3.353   6.050  11.786 -0.3138  0.4350 -0.6701
  943TIP3    H124244   3.315   6.115  11.727  0.9959  1.6589 -0.2277
  943TIP3    H224245   3.445   6.076  11.793  0.3794 -1.8054 -0.9021
  944TIP3   OH224246   2.726   2.424   1.084  0.6975 -0.2733 -0.2619
  944TIP3    H124247   2.730   2.383   1.170  0.5947 -1.4539 -0.7941
  944TIP3    H224248   2.809   2.400   1.042  0.9138  0.6148 -0.3601
  945TIP3   OH224249   2.481   3.461   1.040  0.1422 -0.4435 -0.5368
  945TIP3    H124250   2.513   3.378   1.005  0.0897 -0.0684 -1.4930
  945TIP3    H224251   2.387   3.458   1.027  0.2087  0.0275 -1.1431
  946TIP3   OH224252   5.551   3.683  13.055 -0.7381 -0.1258  0.0561
  946TIP3    H124253   5.509   3.743  12.993 -0.0227  0.1462 -0.1740
  946TIP3    H224254   5.619   3.736  13.097 -1.0841 -0.3612  0.9427
  947TIP3   OH224255   6.619   2.471  17.359 -0.1233  0.8790 -0.3152
  947TIP3    H124256   6.565   2.393  17.369 -0.1104  0.3698 -3.2020
  947TIP3    H224257   6.699   2.453  17.408  0.1342 -1.2134 -1.4246
  948TIP3   OH224258   3.153   5.342  10.934  0.4973  0.0677 -0.3277
  948TIP3    H124259   3.080   5.280  10.929 -0.2091  0.4853  2.9186
  948TIP3    H224260   3.118   5.424  10.899 -0.2871 -0.0123  0.2511
  949TIP3   OH224261   0.807   5.258   3.822 -0.1405  0.3150 -0.3112
  949TIP3    H124262   0.840   5.316   3.892 -1.6429 -0.8301  1.4334
  949TIP3    H224263   0.755   5.316   3.766 -0.5269  0.9157  0.6440
  950TIP3   OH224264   4.608   0.320  13.737  0.5454 -0.1887  0.5112
  950TIP3    H124265   4.666   0.244  13.739 -1.1896 -1.5809  0.9699
  950TIP3    H224266   4.527   0.289  13.778  0.2578  2.3548  2.0585
  951TIP3   OH224267   0.151   4.258   4.225 -0.1146  0.6235  0.2207
  951TIP3    H124268   0.105   4.184   4.186 -0.6325  0.6261  0.8195
  951TIP3    H224269   0.242   4.247   4.198 -0.5526  0.9770 -1.5308
  952TIP3   OH224270   1.192   5.600  14.740 -0.4743  0.4080  0.0638
  952TIP3    H124271   1.255   5.530  14.756 -0.9034  0.0521  0.2245
  952TIP3    H224272   1.245   5.677  14.719  0.0056 -0.6275 -3.1298
  953TIP3   OH224273   1.139   0.028  15.508 -0.5185 -0.1321 -0.6479
  953TIP3    H124274   1.163  -0.025  15.584  0.2171 -0.3940 -1.0544
  953TIP3    H224275   1.086  -0.031  15.454  0.1070 -0.3848 -0.9902
  954TIP3   OH224276   4.610   0.381   1.232 -0.2582 -0.5234  0.1708
  954TIP3    H124277   4.584   0.332   1.154 -0.0188  0.1375 -0.3384
  954TIP3    H224278   4.530   0.426   1.260 -0.1645 -0.1284 -0.1763
  955TIP3   OH224279   6.102   2.442   3.821 -0.4953  0.1600 -0.2762
  955TIP3    H124280   6.137   2.524   3.789  1.3593 -1.3396 -2.3298
  955TIP3    H224281   6.059   2.465   3.904  1.8505  2.8085  0.3498
  956TIP3   OH224282   2.267   3.069   5.936  0.2080  0.5232 -0.3889
  956TIP3    H124283   2.208   2.995   5.945 -1.4960  1.2737 -3.6036
  956TIP3    H224284   2.354   3.030   5.930 -0.1149 -0.7866  2.1627
  957TIP3   OH224285   4.922   6.012  14.314 -0.2744  0.5471  0.8222
  957TIP3    H124286   4.859   5.953  14.356 -1.7890  0.7185 -1.0727
  957TIP3    H224287   5.001   5.959  14.302 -1.6627 -1.2378 -1.0132
  958TIP3   OH224288   2.944   1.728   0.702  0.3542  0.5848 -0.4094
  958TIP3    H124289   2.911   1.742   0.791 -0.4571 -1.9342 -0.2320
  958TIP3    H224290   3.034   1.759   0.705  0.2450  0.8424  1.2046
  959TIP3   OH224291   2.220   1.316   0.060 -0.1982  0.4305 -0.5419
  959TIP3    H124292   2.245   1.224   0.058 -1.2683  0.1300 -1.0109
  959TIP3    H224293   2.270   1.353   0.132  2.7633  0.2678 -2.3482
  960TIP3   OH224294   0.396   1.037  16.043 -0.4376 -0.0330 -0.6810
  960TIP3    H124295   0.377   1.119  16.088  0.5191  0.2316 -0.7181
  960TIP3    H224296   0.487   1.048  16.014  0.2016 -1.6663  0.5701
  961TIP3   OH224297   6.291   4.615  11.766  0.2536  0.3610  0.5428
  961TIP3    H124298   6.321   4.565  11.842 -0.2640 -0.7877  0.0279
  961TIP3    H224299   6.260   4.548  11.704  0.0620  1.2993 -0.4142
  962TIP3   OH224300   4.861   2.988  11.484 -0.0956  0.0331  0.2015
  962TIP3    H124301   4.802   2.996  11.559  0.7980  2.0134  0.7731
  962TIP3    H224302   4.916   3.067  11.488  1.0645 -0.6062 -1.6129
  963TIP3   OH224303   0.161   3.969   1.550 -0.4282  0.6466 -0.1135
  963TIP3    H124304   0.075   3.991   1.515  0.2199  1.9375 -0.9849
  963TIP3    H224305   0.163   4.009   1.637 -0.7798  0.4349 -0.0081
  964TIP3   OH224306   4.772   0.691  12.218  0.5091  0.0790 -0.0048
  964TIP3    H124307   4.796   0.733  12.301  0.6853  0.6305 -0.3253
  964TIP3    H224308   4.708   0.750  12.179  0.5693 -0.0837 -0.3485
  965TIP3   OH224309   2.082   5.704   1.591 -0.7701 -0.1907 -0.2162
  965TIP3    H124310   2.009   5.647   1.614 -1.1974  0.3539 -0.1887
  965TIP3    H224311   2.134   5.710   1.671  0.8719 -2.7912 -0.9719
  966TIP3   OH224312   1.133   0.267  15.941 -0.0340 -0.4745  0.3031
  966TIP3    H124313   1.055   0.250  15.887  0.8682 -1.0654 -0.8610
  966TIP3    H224314   1.154   0.182  15.979  1.5922 -0.9834 -1.5667
  967TIP3   OH224315   6.435   6.335  16.562 -0.3108  0.0359  0.0949
  967TIP3    H124316   6.506   6.384  16.601  0.0639 -0.2396 -0.2379
  967TIP3    H224317   6.358   6.391  16.574 -0.1370  0.1139  0.8944
  968TIP3   OH224318   4.911   4.752  12.696  0.2646 -0.9043  0.4492
  968TIP3    H124319   4.996   4.766  12.739 -0.9562  1.1363  2.4236
  968TIP3    H224320   4.897   4.832  12.645 -0.2198 -1.4996 -0.3682
  969TIP3   OH224321   5.329   1.434   4.047 -0.2120  0.0365  0.3070
  969TIP3    H124322   5.335   1.353   3.997 -2.7295 -0.5666  0.8324
  969TIP3    H224323   5.383   1.496   3.998  1.1804 -1.7065 -0.5288
  970TIP3   OH224324   5.360   1.819   0.324 -0.1609 -0.3908  0.3625
  970TIP3    H124325   5.397   1.863   0.247 -0.5967  0.8228  0.8155
  970TIP3    H224326   5.282   1.775   0.290 -0.7415  0.7108  0.2094
  971TIP3   OH224327   2.558   0.784  11.322  0.7004  0.0096 -0.1576
  971TIP3    H124328   2.462   0.780  11.320  0.6614  0.8756 -0.9836
  971TIP3    H224329   2.581   0.837  11.245  1.7507  1.1120  0.8662
  972TIP3   OH224330   4.691   5.049   5.907 -0.1359 -0.0211 -0.3394
  972TIP3    H124331   4.674   5.108   5.834  1.9817  1.7362  0.4765
  972TIP3    H224332   4.722   4.968   5.866 -1.4977 -0.0231 -1.4208
  973TIP3   OH224333   2.163   6.342   3.859 -0.3099  0.2390  0.4393
  973TIP3    H124334   2.240   6.313   3.810  0.3880  2.0004  0.4258
  973TIP3    H224335   2.199   6.385   3.936 -1.2993  0.8344  0.5816
  974TIP3   OH224336   6.053   4.961   5.528  0.4169 -0.2224 -0.2048
  974TIP3    H124337   6.020   5.050   5.542  0.6572 -0.1678  0.0366
  974TIP3    H224338   5.986   4.918   5.476 -0.2703 -0.2592  0.6785
  975TIP3   OH224339   3.600   0.666  15.962 -0.0832 -0.0907 -0.0422
  975TIP3    H124340   3.532   0.732  15.966  0.2265  0.1784  1.1779
  975TIP3    H224341   3.678   0.713  15.934  0.0152 -0.0425  0.3123
  976TIP3   OH224342   6.478   5.822  13.344 -0.1845 -0.7074 -0.1121
  976TIP3    H124343   6.552   5.863  13.300 -1.8154  4.1134  1.0141
  976TIP3    H224344   6.517   5.772  13.416  2.0742 -2.7325 -2.5865
  977TIP3   OH224345   3.897   5.509   1.566 -0.0496  0.1927  0.1749
  977TIP3    H124346   3.972   5.499   1.507 -1.8274  0.7236 -2.3114
  977TIP3    H224347   3.836   5.440   1.539 -1.7449  1.6867  0.0605
  978TIP3   OH224348   5.717   4.619   5.119  0.1141  0.3029  0.4569
  978TIP3    H124349   5.772   4.543   5.138 -0.3264 -0.0200  0.4422
  978TIP3    H224350   5.682   4.645   5.204 -0.8363 -0.3613  0.2854
  979TIP3   OH224351   3.914   2.382  13.945 -0.3921 -0.0229 -0.3972
  979TIP3    H124352   3.996   2.341  13.916 -0.5975 -0.9968  0.3655
  979TIP3    H224353   3.912   2.367  14.039 -0.9724  0.8728 -0.2614
  980TIP3   OH224354   4.196   0.764  11.517 -0.4384 -0.1937  0.5514
  980TIP3    H124355   4.186   0.702  11.445 -1.3988  1.8314 -1.1872
  980TIP3    H224356   4.113   0.810  11.521  0.3588  1.2583  1.4856
  981TIP3   OH224357   6.337   5.059   5.236 -0.5378 -0.1468  0.0790
  981TIP3    H124358   6.257   5.032   5.191 -0.0324  0.5220 -1.2651
  981TIP3    H224359   6.307   5.098   5.318 -1.5198 -0.6967 -0.0081
  982TIP3   OH224360   2.984   1.869   5.116 -0.2374 -0.1810  0.1573
  982TIP3    H124361   3.072   1.905   5.121  0.4557 -1.7160  5.2781
  982TIP3    H224362   2.997   1.779   5.084 -0.1416 -0.0265 -0.2428
  983TIP3   OH224363   3.047   2.914   3.528  0.4000  0.5508  0.6836
  983TIP3    H124364   3.124   2.880   3.483 -0.2901  0.3006 -0.3695
  983TIP3    H224365   2.978   2.850   3.509 -0.5627  1.7717 -0.1314
  984TIP3   OH224366   4.950   0.700  14.311  0.0237  0.1986 -0.3566
  984TIP3    H124367   4.920   0.718  14.400 -0.5964 -0.0294 -0.5154
  984TIP3    H224368   5.027   0.644  14.323 -1.1731 -1.4411  0.0044
  985TIP3   OH224369   6.517   3.645  12.565  0.6581 -0.3560 -0.4261
  985TIP3    H124370   6.494   3.574  12.625 -2.5115  1.2552  0.4988
  985TIP3    H224371   6.556   3.712  12.621 -0.4726  0.3489 -0.4379
  986TIP3   OH224372   1.282   1.239   5.539  0.1398  0.4441  0.3698
  986TIP3    H124373   1.302   1.328   5.568 -0.4932 -0.0158  2.4143
  986TIP3    H224374   1.305   1.237   5.446  0.3635  2.6684  0.3403
  987TIP3   OH224375   6.232   5.140   2.718  0.0588 -0.1852 -0.0263
  987TIP3    H124376   6.160   5.088   2.755  1.6722 -2.1307  0.6098
  987TIP3    H224377   6.217   5.138   2.624 -0.8516 -0.3763  0.1146
  988TIP3   OH224378   3.712   2.200   4.696 -0.4829 -0.4274 -0.6160
  988TIP3    H124379   3.747   2.119   4.660  1.3801  0.4756 -0.9465
  988TIP3    H224380   3.784   2.238   4.746 -1.1865  1.1864 -0.7368
  989TIP3   OH224381   4.799   4.711  15.425  0.1335 -0.9533 -0.5791
  989TIP3    H124382   4.835   4.631  15.463  2.5817  0.1275 -0.4397
  989TIP3    H224383   4.725   4.734  15.481  1.7787 -1.0570  1.7627
  990TIP3   OH224384   6.204   6.649   2.929  0.2172  0.0042  0.3490
  990TIP3    H124385   6.213   6.685   2.841 -1.5903 -1.6899 -0.6145
  990TIP3    H224386   6.267   6.698   2.982  1.7380  0.7119 -1.9768
  991TIP3   OH224387   4.641   4.369  17.358  0.2466  0.4857  0.2377
  991TIP3    H124388   4.612   4.330  17.276  1.7057  0.6007 -0.3507
  991TIP3    H224389   4.736   4.358  17.359  0.3909  1.5147  1.3741
  992TIP3   OH224390   4.554   5.088   3.488 -0.0036  0.5798  0.5515
  992TIP3    H124391   4.486   5.022   3.478  0.1266  0.2044  1.9209
  992TIP3    H224392   4.520   5.165   3.443 -1.6490  0.6181  1.7897
  993TIP3   OH224393   5.143   3.862  14.685  0.3314 -0.1380 -0.1869
  993TIP3    H124394   5.132   3.885  14.592 -0.8820 -3.1095 -0.9219
  993TIP3    H224395   5.054   3.848  14.716  0.7808  0.0348  1.2205
  994TIP3   OH224396   2.863   3.838  13.169  0.1097  0.1379  0.9460
  994TIP3    H124397   2.783   3.817  13.218  0.6395 -0.5383  1.5537
  994TIP3    H224398   2.917   3.887  13.231 -0.3442  1.7362  0.1283
  995TIP3   OH224399   0.936   1.785   4.372 -0.2433  0.0474 -0.0038
  995TIP3    H124400   0.991   1.791   4.450 -0.2814 -0.9514  0.1080
  995TIP3    H224401   0.861   1.841   4.391  0.0230  0.2577  0.4402
  996TIP3   OH224402   3.513   2.400   2.685 -1.0873  0.0847 -0.1240
  996TIP3    H124403   3.424   2.383   2.653 -0.4907 -1.3589 -1.1383
  996TIP3    H224404   3.565   2.411   2.606 -0.9995  5.4128  0.3479
  997TIP3   OH224405   5.359   5.068   2.072  0.3259  0.4015  0.1076
  997TIP3    H124406   5.311   5.025   2.001  0.7572 -2.7630  1.5920
  997TIP3    H224407   5.292   5.114   2.122 -0.8273 -1.7563  0.6299
  998TIP3   OH224408   0.216   2.683   3.359  0.2027  0.3796  0.5530
  998TIP3    H124409   0.193   2.764   3.404  0.0420  0.4518  0.3449
  998TIP3    H224410   0.281   2.641   3.416 -0.1726  0.3505  0.9668
  999TIP3   OH224411   6.317   5.538   3.533  0.1350  0.0641 -0.2630
  999TIP3    H124412   6.307   5.593   3.610  0.0716 -1.1611  0.6202
  999TIP3    H224413   6.268   5.585   3.464  0.2794  1.2161  0.3881
 1000TIP3   OH224414   5.198   1.971   5.214 -0.0957 -0.0809  0.0291
 1000TIP3    H124415   5.144   1.912   5.161  0.3810 -0.4153 -0.0926
 1000TIP3    H224416   5.215   1.923   5.295 -1.4850  0.7457  0.8375
 1001TIP3   OH224417   1.407   0.558  10.683  0.0068 -0.3205 -0.1812
 1001TIP3    H124418   1.422   0.546  10.590 -0.7464  2.2691 -0.7355
 1001TIP3    H224419   1.451   0.484  10.725  0.8228 -1.2579 -2.5284
 1002TIP3   OH224420   2.106   1.387  10.314 -0.5365  0.0420 -0.2102
 1002TIP3    H124421   2.095   1.482  10.307  0.9767  0.2157 -0.4338
 1002TIP3    H224422   2.112   1.370  10.408 -1.2822  0.0958 -0.1462
 1003TIP3   OH224423   4.421   1.118  16.931  0.3073 -0.8336 -0.1192
 1003TIP3    H124424   4.457   1.207  16.935 -1.1617 -0.2209  0.3820
 1003TIP3    H224425   4.420   1.089  17.022 -1.7153 -0.2535  0.1110
 1004TIP3   OH224426   1.552   2.556   6.364 -0.5642  0.2024  0.6514
 1004TIP3    H124427   1.598   2.512   6.436 -2.2140  0.8820  2.2150
 1004TIP3    H224428   1.539   2.646   6.395 -0.7181  0.7106 -0.8087
 1005TIP3   OH224429   1.507   3.666   0.538  0.2548 -0.4067  0.0932
 1005TIP3    H124430   1.519   3.738   0.600  1.3654 -0.3136 -0.2147
 1005TIP3    H224431   1.556   3.593   0.576 -0.2969 -0.8024  0.0587
 1006TIP3   OH224432   1.965   6.187   4.689  0.4437 -0.3100  0.1989
 1006TIP3    H124433   1.903   6.118   4.667 -1.3912  1.9608 -2.4966
 1006TIP3    H224434   1.916   6.268   4.674  3.0516  1.6027  1.3680
 1007TIP3   OH224435   4.741   4.407   3.303 -0.5453  0.2300  0.1866
 1007TIP3    H124436   4.776   4.407   3.392  0.9860 -3.3677 -0.2504
 1007TIP3    H224437   4.790   4.476   3.257  0.9813 -0.0525  1.3457
 1008TIP3   OH224438   3.721   3.402   2.175  0.4678  0.2302 -0.6231
 1008TIP3    H124439   3.696   3.376   2.087  1.4728 -0.0225 -0.8524
 1008TIP3    H224440   3.748   3.493   2.167 -1.8225  1.0327 -0.0663
 1009TIP3   OH224441   5.814   0.679   4.128 -0.1094  0.2119 -0.4729
 1009TIP3    H124442   5.853   0.628   4.057 -2.9831 -1.1782 -1.2081
 1009TIP3    H224443   5.818   0.620   4.204  1.8260  1.2173  0.2559
 1010TIP3   OH224444   4.759   3.317   3.854  0.2689 -0.3475  0.2785
 1010TIP3    H124445   4.727   3.391   3.905  0.1723  2.3116 -3.2681
 1010TIP3    H224446   4.835   3.285   3.903  0.6892  2.4927  1.6871
 1011TIP3   OH224447   2.134   4.625   1.419 -0.1830  0.0746 -0.9904
 1011TIP3    H124448   2.152   4.559   1.485 -3.4419 -0.3626 -0.3497
 1011TIP3    H224449   2.126   4.707   1.468 -0.6991  0.1027 -1.1163
 1012TIP3   OH224450   5.775   6.616   2.729 -0.0945 -0.4215  0.0264
 1012TIP3    H124451   5.813   6.661   2.804  0.6147 -0.1215 -0.4975
 1012TIP3    H224452   5.696   6.666   2.708  0.5765  0.4616 -0.4229
 1013TIP3   OH224453   4.327   5.518   1.477  0.5242  0.5786  0.6057
 1013TIP3    H124454   4.365   5.606   1.471 -0.1041  0.8571  0.6473
 1013TIP3    H224455   4.396   5.465   1.516  0.3685  1.4127  2.1297
 1014TIP3   OH224456   5.515   6.218  11.523  0.2716 -0.1061  0.3716
 1014TIP3    H124457   5.469   6.138  11.498 -1.6433  0.9661  0.2742
 1014TIP3    H224458   5.574   6.235  11.450 -1.9761  0.5087 -1.4479
 1015TIP3   OH224459   5.128   1.645  13.464  0.1488 -0.0370 -0.0757
 1015TIP3    H124460   5.053   1.701  13.441 -0.2450 -0.9668 -1.1225
 1015TIP3    H224461   5.153   1.675  13.551 -0.4926  1.3002 -0.3174
 1016TIP3   OH224462   2.241   4.285   2.695 -0.4209  1.2976  0.3024
 1016TIP3    H124463   2.255   4.304   2.602 -2.8932  3.0766  0.1871
 1016TIP3    H224464   2.174   4.348   2.722 -0.9141 -0.2083  2.9039
 1017TIP3   OH224465   3.164   0.319   1.561  0.4474 -0.3996  0.2505
 1017TIP3    H124466   3.149   0.232   1.598  0.6691  0.5327  2.6362
 1017TIP3    H224467   3.134   0.380   1.628  0.4359  1.4081 -1.3039
 1018TIP3   OH224468   3.435   1.583  16.740 -0.0653  0.3409 -0.4218
 1018TIP3    H124469   3.530   1.584  16.729 -0.1975  1.2144 -1.8210
 1018TIP3    H224470   3.414   1.494  16.767  1.5069  1.0880  3.9392
 1019TIP3   OH224471   5.493   6.274   0.377 -0.0619  0.1255 -0.0004
 1019TIP3    H124472   5.510   6.180   0.385  0.2912  0.2474  0.7410
 1019TIP3    H224473   5.540   6.314   0.450  0.0208  0.9141 -0.4681
 1020TIP3   OH224474   2.575   1.892  14.130 -0.5827 -0.1421 -0.1874
 1020TIP3    H124475   2.545   1.932  14.048 -1.3790  0.2544  0.2853
 1020TIP3    H224476   2.549   1.954  14.198  1.3534  0.2301  0.2767
 1021TIP3   OH224477   2.273   3.725   4.734  0.5271  0.1825  0.5693
 1021TIP3    H124478   2.250   3.756   4.821  1.4200  0.0224  0.8647
 1021TIP3    H224479   2.298   3.804   4.686 -0.4333  0.3388  0.2900
 1022TIP3   OH224480   2.537   0.998  14.924 -0.4282 -0.2498 -0.0435
 1022TIP3    H124481   2.489   0.918  14.904  0.9014 -1.6344  1.8680
 1022TIP3    H224482   2.628   0.969  14.934  0.0094  1.3823  1.2356
 1023TIP3   OH224483   2.262   2.769   4.703  0.3163 -0.0922  0.0326
 1023TIP3    H124484   2.312   2.688   4.690 -0.5864 -0.5314 -0.8011
 1023TIP3    H224485   2.227   2.761   4.792  1.3419  0.0151  0.4611
 1024TIP3   OH224486   4.264   0.840   3.123 -0.1636 -0.0133  0.4044
 1024TIP3    H124487   4.302   0.755   3.143  0.2118  0.4112  1.6588
 1024TIP3    H224488   4.280   0.853   3.030  1.2381 -0.6060  0.5385
 1025TIP3   OH224489   4.596   0.128   5.053 -0.2814  0.4124 -0.3214
 1025TIP3    H124490   4.631   0.149   4.967  0.6120 -0.8243 -0.2866
 1025TIP3    H224491   4.666   0.150   5.114 -0.3951  0.0108 -0.0390
 1026TIP3   OH224492   6.089   3.565  15.094 -0.5637  0.0174  0.3180
 1026TIP3    H124493   6.023   3.497  15.082  2.9881 -3.6325 -0.7156
 1026TIP3    H224494   6.103   3.568  15.189 -1.3132 -0.1178  0.4382
 1027TIP3   OH224495   2.881   0.132  13.618  0.4432  0.0458 -0.1872
 1027TIP3    H124496   2.969   0.169  13.613  0.4070  0.7768  2.5857
 1027TIP3    H224497   2.830   0.182  13.555  1.1245  2.6793  1.1831
 1028TIP3   OH224498   6.458   1.424  12.737 -0.1430  0.3945 -0.0380
 1028TIP3    H124499   6.425   1.425  12.826 -0.5427 -2.0120 -0.0853
 1028TIP3    H224500   6.392   1.375  12.687  0.8260  0.3118 -1.3006
 1029TIP3   OH224501   1.658   3.166  15.632  0.4942 -0.1559  0.6577
 1029TIP3    H124502   1.651   3.090  15.690  2.1218 -0.3978  0.5946
 1029TIP3    H224503   1.717   3.226  15.677  1.0634  0.0456 -0.3228
 1030TIP3   OH224504   6.410   0.545   6.633  0.1485  0.6089 -0.1246
 1030TIP3    H124505   6.366   0.530   6.717 -0.4692 -1.6099 -0.8043
 1030TIP3    H224506   6.351   0.604   6.585 -0.7678 -0.1794  0.0142
 1031TIP3   OH224507   5.388   5.279  13.538 -0.1614 -0.0144 -0.0984
 1031TIP3    H124508   5.374   5.359  13.487  0.9026 -0.6015 -1.3533
 1031TIP3    H224509   5.453   5.229  13.488  0.0167 -1.1685  1.2233
 1032TIP3   OH224510   1.445   5.006   6.041 -0.1490 -0.0668 -0.1953
 1032TIP3    H124511   1.424   5.090   6.000  0.4669  0.6790  0.9587
 1032TIP3    H224512   1.383   4.998   6.113  1.6190  0.8594  1.5439
 1033TIP3   OH224513   2.976   0.203  12.690 -0.0172  0.4864  0.2260
 1033TIP3    H124514   2.930   0.201  12.606  1.0812  0.4949 -0.3942
 1033TIP3    H224515   2.989   0.111  12.712 -0.3657  0.4832  0.4338
 1034TIP3   OH224516   2.753   4.866   0.968 -0.1433 -0.2712  0.4613
 1034TIP3    H124517   2.660   4.857   0.948  0.4219 -1.4838 -1.9930
 1034TIP3    H224518   2.789   4.778   0.957  1.6971  0.5933 -1.1170
 1035TIP3   OH224519   4.546   5.945   3.721  0.1226 -0.1864 -0.5968
 1035TIP3    H124520   4.600   5.869   3.744  1.2782  0.8197  0.1445
 1035TIP3    H224521   4.550   6.001   3.799  0.0354  1.0411 -1.4554
 1036TIP3   OH224522   5.178   5.197   1.783  0.5364  0.0862  0.0696
 1036TIP3    H124523   5.175   5.114   1.832  0.6954  1.0073  1.7131
 1036TIP3    H224524   5.189   5.264   1.850  2.1025  1.3310 -1.3386
 1037TIP3   OH224525   5.086   0.619  16.815 -0.7285 -0.1716  0.2300
 1037TIP3    H124526   5.104   0.668  16.895 -1.7274  0.5156  0.0603
 1037TIP3    H224527   5.118   0.676  16.745  0.3681 -0.8793  0.1372
 1038TIP3   OH224528   5.581   0.489  16.219  0.1621  0.2878  0.0298
 1038TIP3    H124529   5.488   0.479  16.238  0.6636 -2.3121  1.6252
 1038TIP3    H224530   5.592   0.449  16.132 -0.3631  1.7753 -0.7505
 1039TIP3   OH224531   0.620   5.715   4.578 -0.5585 -0.2987 -0.4660
 1039TIP3    H124532   0.547   5.773   4.600  0.1737  0.1551  0.9158
 1039TIP3    H224533   0.660   5.756   4.501 -0.9600  0.1880 -0.4229
 1040TIP3   OH224534   1.287   0.471   0.344 -0.1716  0.1134  0.3846
 1040TIP3    H124535   1.349   0.543   0.348 -1.0011  1.0465 -1.6754
 1040TIP3    H224536   1.326   0.402   0.397  2.3469  0.8539 -0.3584
 1041TIP3   OH224537   5.374   1.421  11.239  0.0004 -1.0497  0.1817
 1041TIP3    H124538   5.454   1.462  11.206 -0.8270 -0.0559 -0.6808
 1041TIP3    H224539   5.366   1.339  11.191  0.9315 -1.5650  0.8868
 1042TIP3   OH224540   0.840   3.858   0.895 -0.0425  0.6700 -0.3095
 1042TIP3    H124541   0.831   3.807   0.814 -0.0610  0.4567 -0.1726
 1042TIP3    H224542   0.882   3.798   0.956 -0.6648  0.6036  0.0561
 1043TIP3   OH224543   2.924   6.616   4.288 -0.3111  0.2875 -0.2292
 1043TIP3    H124544   2.970   6.700   4.298  1.2131 -0.4855 -0.5788
 1043TIP3    H224545   2.850   6.623   4.349  1.4714  0.7352  2.0087
 1044TIP3   OH224546   0.491   4.219   5.790  0.0962  0.3891  0.9705
 1044TIP3    H124547   0.561   4.277   5.759  0.4896  0.8098  2.5564
 1044TIP3    H224548   0.439   4.200   5.712  1.2180  1.1316  0.0122
 1045TIP3   OH224549   3.659   0.117  14.205  0.2430  0.2643  0.2112
 1045TIP3    H124550   3.661   0.172  14.283  1.3870 -1.6736  1.6491
 1045TIP3    H224551   3.691   0.032  14.235 -0.5366 -0.9353 -2.0988
 1046TIP3   OH224552   5.975   6.078   3.997  0.2420  0.3195 -0.0922
 1046TIP3    H124553   5.921   6.147   3.959  0.9523  1.0248  0.1574
 1046TIP3    H224554   6.035   6.124   4.056  1.3457 -0.3972 -0.6190
 1047TIP3   OH224555   6.053   1.819   1.445  0.2659  0.0112 -0.4150
 1047TIP3    H124556   5.996   1.765   1.499  0.3267  0.0548 -0.3078
 1047TIP3    H224557   6.115   1.858   1.506  0.0759  0.3911 -0.4609
 1048TIP3   OH224558   3.083   1.053  12.442 -0.2366  0.3332 -0.3795
 1048TIP3    H124559   3.075   0.983  12.506 -0.7632  0.3975 -0.3644
 1048TIP3    H224560   3.047   1.130  12.487  0.9525  0.7760 -0.1499
 1049TIP3   OH224561   2.476   4.144  14.398 -0.4010 -0.2192  0.3678
 1049TIP3    H124562   2.509   4.088  14.468  2.4597  0.3188 -0.3942
 1049TIP3    H224563   2.553   4.193  14.369 -2.2568  2.3073 -0.6675
 1050TIP3   OH224564   4.813   5.826   2.113 -0.2756 -0.1364  0.3057
 1050TIP3    H124565   4.757   5.834   2.190 -1.5143  2.3158 -0.7779
 1050TIP3    H224566   4.897   5.864   2.140 -0.5232  0.1915  0.6116
 1051TIP3   OH224567   3.784   6.153   0.977  0.2539 -0.3011  0.2909
 1051TIP3    H124568   3.817   6.177   1.063 -0.7851  0.0752  0.5970
 1051TIP3    H224569   3.766   6.059   0.984  1.2930 -0.5383  0.0888
 1052TIP3   OH224570   5.171   1.146   0.319 -0.5305 -0.3361 -0.2398
 1052TIP3    H124571   5.102   1.139   0.253 -0.4742  1.1025 -0.4844
 1052TIP3    H224572   5.170   1.238   0.344 -0.2880 -0.7856  1.4979
 1053TIP3   OH224573   4.933   1.229   1.806 -0.0318  0.3685 -0.2067
 1053TIP3    H124574   4.861   1.265   1.858  0.1586 -1.5762  1.5368
 1053TIP3    H224575   4.897   1.150   1.766  1.2124 -0.9864  1.1934
 1054TIP3   OH224576   3.736   0.995  13.995  0.0217  0.0159  0.2572
 1054TIP3    H124577   3.653   1.040  14.010 -0.0376  1.1588 -2.8405
 1054TIP3    H224578   3.713   0.903  13.986 -0.9267  0.3193 -0.5260
 1055TIP3   OH224579   0.765   2.446  13.399 -0.3597 -0.1722  0.0672
 1055TIP3    H124580   0.796   2.363  13.362  0.0968  0.7519 -1.7403
 1055TIP3    H224581   0.843   2.500  13.407 -0.4866 -0.2080  2.2017
 1056TIP3   OH224582   0.603   3.542   0.676  0.5179  0.1827  0.1632
 1056TIP3    H124583   0.535   3.600   0.642  0.7302  1.1364  1.2888
 1056TIP3    H224584   0.605   3.468   0.615  1.0777  1.9119 -2.0491
 1057TIP3   OH224585   0.801   3.618  12.474 -0.1626  0.0132  0.5498
 1057TIP3    H124586   0.878   3.633  12.419 -0.8314  2.3384  0.1504
 1057TIP3    H224587   0.729   3.609  12.411 -0.7538  1.5557  0.9602
 1058TIP3   OH224588   6.004   3.136   5.531 -0.1501  0.1514  0.2120
 1058TIP3    H124589   6.013   3.199   5.602  2.2798 -0.5505  0.6173
 1058TIP3    H224590   5.962   3.186   5.460 -0.0596  1.6577  1.1765
 1059TIP3   OH224591   3.100   1.783  11.800  0.2875  0.4523 -0.2721
 1059TIP3    H124592   3.038   1.725  11.756 -0.8833  1.9466 -0.6487
 1059TIP3    H224593   3.070   1.871  11.779 -0.8304  1.3450  4.0500
 1060TIP3   OH224594   2.985   4.381  12.109  0.0729 -0.1197  0.3229
 1060TIP3    H124595   3.044   4.315  12.074  0.4652 -0.2199  1.1302
 1060TIP3    H224596   2.899   4.355  12.078  0.3256 -0.5577 -0.0278
 1061TIP3   OH224597   2.641   3.527   5.195 -0.4594 -1.1269 -0.3804
 1061TIP3    H124598   2.722   3.477   5.204  0.0522 -0.4722 -1.1759
 1061TIP3    H224599   2.626   3.564   5.282  1.4039  0.6610 -0.7118
 1062TIP3   OH224600   1.948   3.140   5.724  0.5262  0.2529  0.0732
 1062TIP3    H124601   1.907   3.139   5.637 -2.4280  1.4852  1.3518
 1062TIP3    H224602   1.943   3.050   5.754 -1.2839  0.3570  0.1601
 1063TIP3   OH224603   0.779   4.974   1.356  0.3915  0.1796 -0.8323
 1063TIP3    H124604   0.684   4.979   1.341  0.3904 -1.3242 -1.4317
 1063TIP3    H224605   0.803   4.887   1.327  1.5491 -0.4674  1.8310
 1064TIP3   OH224606   3.876   3.297   5.042  0.4264  0.3406  0.2573
 1064TIP3    H124607   3.828   3.280   4.962  0.0918 -0.2355  0.5742
 1064TIP3    H224608   3.861   3.390   5.060  0.4359  0.4497 -0.2968
 1065TIP3   OH224609   6.307   4.051   0.713  0.5390 -0.0657  0.0498
 1065TIP3    H124610   6.341   4.110   0.781  2.7319  0.5414 -1.4466
 1065TIP3    H224611   6.383   4.033   0.658 -0.6765 -2.2938 -1.0084
 1066TIP3   OH224612   0.586   4.281   4.699  0.0288  0.0960  0.0578
 1066TIP3    H124613   0.607   4.357   4.646 -0.3669  1.1685  1.3830
 1066TIP3    H224614   0.632   4.208   4.657  1.7531  1.3465 -0.3093
 1067TIP3   OH224615   5.190   3.588  13.863  0.2608 -0.1292 -0.2697
 1067TIP3    H124616   5.199   3.529  13.789  0.6706 -0.3701 -0.0346
 1067TIP3    H224617   5.098   3.612  13.864  0.5916  1.3938 -2.0058
 1068TIP3   OH224618   1.022   4.098  15.663 -0.4232  0.4130 -0.0480
 1068TIP3    H124619   1.102   4.068  15.705 -1.0474 -0.0723  0.8277
 1068TIP3    H224620   1.019   4.049  15.580 -0.7059 -0.9208  0.7264
 1069TIP3   OH224621   5.124   0.072  17.260  0.2268 -0.1592 -0.1509
 1069TIP3    H124622   5.029   0.073  17.258  0.0639  1.0871  2.7930
 1069TIP3    H224623   5.148  -0.015  17.229 -1.8569 -0.5679 -0.7528
 1070TIP3   OH224624   1.041   0.541   2.050 -0.0025  0.2283 -0.7607
 1070TIP3    H124625   1.028   0.459   2.097 -2.2839  0.2160 -1.2642
 1070TIP3    H224626   1.051   0.514   1.958  2.1020  0.3930 -0.6284
 1071TIP3   OH224627   1.365   2.432  12.558 -0.3081  0.1094 -0.1241
 1071TIP3    H124628   1.287   2.404  12.510  0.3638 -0.4460 -0.9206
 1071TIP3    H224629   1.331   2.484  12.630 -1.4484 -0.5082 -0.1841
 1072TIP3   OH224630   2.560   0.196   3.430  0.5878  0.3191 -0.1585
 1072TIP3    H124631   2.487   0.199   3.491  0.7919 -0.7835  0.1699
 1072TIP3    H224632   2.519   0.188   3.344  0.3142  0.5147 -0.0453
 1073TIP3   OH224633   4.532   1.875   2.147  0.1961  0.2942  0.4481
 1073TIP3    H124634   4.521   1.844   2.237  0.0728  0.3037  0.4363
 1073TIP3    H224635   4.602   1.820   2.111 -0.1835 -0.1398  0.3503
 1074TIP3   OH224636   0.122   3.066   2.902  0.2351  0.2809  0.6298
 1074TIP3    H124637   0.113   3.065   2.807 -0.0331 -0.9042  0.6546
 1074TIP3    H224638   0.154   2.979   2.925 -1.6027 -0.1729  1.7783
 1075TIP3   OH224639   1.100   4.868  14.510 -0.3434 -0.1072  0.2291
 1075TIP3    H124640   1.143   4.903  14.588  0.8126 -0.7464 -0.0896
 1075TIP3    H224641   1.146   4.909  14.436 -1.2605  0.3092 -0.1155
 1076TIP3   OH224642   0.223   1.773   4.281 -0.5434 -0.3122 -0.3831
 1076TIP3    H124643   0.142   1.742   4.240 -1.8866  1.0573  1.0894
 1076TIP3    H224644   0.262   1.695   4.320 -0.1489 -1.3207 -2.6559
 1077TIP3   OH224645   6.358   0.460   3.810 -0.6907  0.2184 -0.4284
 1077TIP3    H124646   6.297   0.519   3.766  0.0733  0.7364 -0.8322
 1077TIP3    H224647   6.310   0.428   3.886 -1.5532  0.3989 -0.8800
 1078TIP3   OH224648   2.073   2.729  15.207  0.1142  0.1325  0.5247
 1078TIP3    H124649   2.036   2.817  15.200  0.4741  0.5193  2.7834
 1078TIP3    H224650   2.168   2.742  15.200  0.1981  0.0076  1.3495
 1079TIP3   OH224651   5.990   0.344   3.723 -1.0850 -0.6315 -0.4279
 1079TIP3    H124652   6.029   0.258   3.710  3.0181  0.8296  0.8987
 1079TIP3    H224653   5.996   0.387   3.637 -3.6083 -1.6796 -1.2270
 1080TIP3   OH224654   5.702   5.031   3.396  0.4739 -0.1081 -0.2630
 1080TIP3    H124655   5.715   5.053   3.488  1.9967  0.9848 -0.7049
 1080TIP3    H224656   5.769   4.965   3.378 -1.4387 -2.2546  0.0043
 1081TIP3   OH224657   3.206   1.907  16.215 -0.0832  0.2424 -0.3507
 1081TIP3    H124658   3.181   1.901  16.307  0.6958 -0.5082 -0.1739
 1081TIP3    H224659   3.123   1.911  16.167 -0.5427  3.1822  0.4922
 1082TIP3   OH224660   0.420   2.978  16.379 -0.5754 -0.3211 -0.0114
 1082TIP3    H124661   0.420   2.982  16.475  0.9190 -1.4027  0.0763
 1082TIP3    H224662   0.336   3.015  16.353 -2.8243 -3.6202  1.8972
 1083TIP3   OH224663   5.211   1.136   3.077 -0.1925 -0.4281  0.1337
 1083TIP3    H124664   5.271   1.194   3.125 -1.3824 -0.8093  2.2060
 1083TIP3    H224665   5.205   1.175   2.989  2.4277  0.0542  0.0916
 1084TIP3   OH224666   5.384   6.257   2.427 -0.3827 -0.1536 -0.5464
 1084TIP3    H124667   5.348   6.338   2.391 -0.3227  0.0994 -0.0419
 1084TIP3    H224668   5.474   6.253   2.393  0.3183  1.0464  1.0563
 1085TIP3   OH224669   3.482   2.703  14.013  0.1689 -0.0334 -0.2014
 1085TIP3    H124670   3.449   2.770  13.953 -0.1358  0.2774  0.2995
 1085TIP3    H224671   3.466   2.620  13.968  1.7513  0.2672 -1.4105
 1086TIP3   OH224672   1.193   1.296  10.952  0.0308 -0.1707 -0.4338
 1086TIP3    H124673   1.190   1.217  10.898 -1.5578 -1.1927  1.0457
 1086TIP3    H224674   1.102   1.318  10.969  0.3919 -0.5931  2.7074
 1087TIP3   OH224675   3.256   2.838   1.104  0.0891  0.5969  0.5132
 1087TIP3    H124676   3.299   2.921   1.082  0.0223  0.6626  0.6269
 1087TIP3    H224677   3.163   2.855   1.092 -0.0428  0.9740  1.9015
 1088TIP3   OH224678   0.301   5.372  13.660  0.0694 -0.5025 -0.0182
 1088TIP3    H124679   0.227   5.431  13.674  0.5406  0.1101 -0.0689
 1088TIP3    H224680   0.321   5.336  13.747  1.6128  1.6342  0.5870
 1089TIP3   OH224681   3.654   4.152   1.384  0.1661 -0.3934  0.0229
 1089TIP3    H124682   3.721   4.153   1.316 -0.0205 -0.0929 -0.1608
 1089TIP3    H224683   3.602   4.073   1.365 -0.1761 -0.0607 -0.4790
 1090TIP3   OH224684   1.702   2.591   2.802 -0.0990  0.7564 -0.5732
 1090TIP3    H124685   1.669   2.525   2.740  0.2843  0.3026 -0.3074
 1090TIP3    H224686   1.627   2.646   2.821 -0.6808 -0.1982 -0.0509
 1091TIP3   OH224687   6.659   1.900   5.844  0.4056 -0.6094 -0.0248
 1091TIP3    H124688   6.570   1.906   5.881 -0.2621 -0.4173 -1.5695
 1091TIP3    H224689   6.649   1.841   5.769  1.1591  0.9043 -1.3656
 1092TIP3   OH224690   4.562   1.738  13.539  0.5376 -0.1942 -0.4221
 1092TIP3    H124691   4.588   1.795  13.611  0.2538 -0.0828 -0.4041
 1092TIP3    H224692   4.589   1.785  13.460  0.5360 -0.1557 -0.3994
 1093TIP3   OH224693   4.976   6.392  14.505 -0.2319 -0.0639  0.0699
 1093TIP3    H124694   4.929   6.475  14.515  0.7440  0.3866  1.1715
 1093TIP3    H224695   4.946   6.357  14.421 -0.2724  1.6575 -0.6596
 1094TIP3   OH224696   3.381   0.131   2.160  0.4229  0.2110  0.1949
 1094TIP3    H124697   3.359   0.180   2.081  1.0532  0.8675  0.4205
 1094TIP3    H224698   3.298   0.094   2.189 -0.0368  1.0341 -0.0503
 1095TIP3   OH224699   6.047   2.695   0.964  0.0825  0.3214 -0.5243
 1095TIP3    H124700   6.130   2.737   0.942 -0.1128  0.5913 -0.7513
 1095TIP3    H224701   6.063   2.602   0.953  0.6225  0.3021  0.3106
 1096TIP3   OH224702   1.134   4.590   5.469  0.2219 -0.2091  0.1871
 1096TIP3    H124703   1.114   4.642   5.547 -2.5261 -2.3065  1.0317
 1096TIP3    H224704   1.192   4.521   5.500  1.7668  0.7724 -0.3942
 1097TIP3   OH224705   3.900   2.339   0.626  0.4312 -0.4666  0.1545
 1097TIP3    H124706   3.883   2.379   0.711 -0.8209 -0.9410  0.1490
 1097TIP3    H224707   3.920   2.412   0.568  4.1509 -0.2583  1.3868
 1098TIP3   OH224708   1.821   4.672   0.080  0.1726 -0.4294 -0.1961
 1098TIP3    H124709   1.862   4.706   0.160  0.2407 -1.2854  0.1468
 1098TIP3    H224710   1.803   4.580   0.100  1.3049 -1.0017 -1.5824
 1099TIP3   OH224711   1.994   2.526   3.606  0.3715 -0.0833  0.9570
 1099TIP3    H124712   1.964   2.590   3.671 -1.2909 -1.3217  1.4862
 1099TIP3    H224713   2.018   2.578   3.530 -1.3811  1.1671  1.2052
 1100TIP3   OH224714   6.557   0.626  15.972 -0.0668 -0.4194  0.1169
 1100TIP3    H124715   6.561   0.531  15.961  1.2924 -0.2306 -1.3499
 1100TIP3    H224716   6.463   0.646  15.968 -0.5059 -1.8217  2.0158
 1101TIP3   OH224717   1.240   0.412  13.579  0.6351  0.2748  0.1383
 1101TIP3    H124718   1.161   0.465  13.569  0.5734  0.1348 -0.1262
 1101TIP3    H224719   1.306   0.456  13.526  1.0336  0.9870  1.2055
 1102TIP3   OH224720   5.931   1.900   4.645 -0.2450 -0.0559  0.1782
 1102TIP3    H124721   5.900   1.901   4.555 -0.7591 -1.1268  0.3255
 1102TIP3    H224722   5.894   1.979   4.685  3.8500  3.2065 -1.7200
 1103TIP3   OH224723   0.684   1.798  15.411 -0.3004  0.1457  0.8108
 1103TIP3    H124724   0.736   1.719  15.424  1.2779  0.7611 -1.1710
 1103TIP3    H224725   0.748   1.869  15.415 -1.3372  1.1255  0.4190
 1104TIP3   OH224726   4.451   4.631   5.574 -0.2702  0.4707  0.4198
 1104TIP3    H124727   4.541   4.653   5.601 -0.1621  0.5595 -0.0039
 1104TIP3    H224728   4.442   4.671   5.487 -0.0309 -1.2366 -0.4390
 1105TIP3   OH224729   4.703   1.376  17.062 -0.3490  0.1056  0.3611
 1105TIP3    H124730   4.651   1.399  16.984 -0.3251 -0.7156  0.0958
 1105TIP3    H224731   4.713   1.281  17.057 -1.3023 -0.1141  1.9600
 1106TIP3   OH224732   4.323   2.997   2.354 -0.1489  0.5722 -0.2050
 1106TIP3    H124733   4.298   3.069   2.297 -2.1877  1.4685  1.7092
 1106TIP3    H224734   4.371   3.038   2.426 -1.2681  0.0416  0.8723
 1107TIP3   OH224735   3.187   4.769   1.923 -0.2264 -0.4242 -0.1236
 1107TIP3    H124736   3.153   4.801   2.006 -1.3957 -1.4014 -0.1929
 1107TIP3    H224737   3.282   4.778   1.930 -0.3464  0.0503  1.0692
 1108TIP3   OH224738   0.337   5.934   3.275 -0.2504 -0.4822 -0.0150
 1108TIP3    H124739   0.408   5.937   3.339  0.1251 -1.6746 -0.3449
 1108TIP3    H224740   0.303   5.845   3.282 -1.4666 -0.0446 -0.1389
 1109TIP3   OH224741   1.614   1.586  11.687  0.3568  0.1535  0.5925
 1109TIP3    H124742   1.611   1.633  11.603  0.0682 -1.2560 -0.2066
 1109TIP3    H224743   1.706   1.592  11.714  0.1060  2.2375  1.1517
 1110TIP3   OH224744   1.349   1.418   0.192 -0.4673 -0.4904 -0.1370
 1110TIP3    H124745   1.374   1.431   0.284 -0.1395  0.0342 -0.2991
 1110TIP3    H224746   1.308   1.501   0.167  1.1777  0.0832 -1.0363
 1111TIP3   OH224747   5.743   5.482  17.358  0.0630 -0.3701  0.0134
 1111TIP3    H124748   5.823   5.473  17.305 -0.4110  1.4160 -1.0890
 1111TIP3    H224749   5.745   5.572  17.390 -2.0563  0.1252 -1.0348
 1112TIP3   OH224750   1.230   1.673  16.319 -0.1328 -0.1473  0.0280
 1112TIP3    H124751   1.219   1.759  16.358 -1.3059 -0.1304 -0.3024
 1112TIP3    H224752   1.217   1.612  16.392 -0.4265 -0.0705  0.0401
 1113TIP3   OH224753   0.134   5.633   1.852 -0.2681  0.5373 -0.4591
 1113TIP3    H124754   0.084   5.597   1.925  1.1988  1.7585  1.2338
 1113TIP3    H224755   0.163   5.557   1.802 -0.6713 -0.3687  0.6677
 1114TIP3   OH224756   0.694   1.586  12.093 -0.0594 -0.4214 -0.3129
 1114TIP3    H124757   0.640   1.665  12.083  1.4439  0.5939 -0.8138
 1114TIP3    H224758   0.637   1.514  12.068 -0.6919  0.7587 -2.4924
 1115TIP3   OH224759   5.081   2.499   5.541  0.4834  0.1163  0.7515
 1115TIP3    H124760   5.166   2.499   5.495  1.3889 -0.9508  2.3139
 1115TIP3    H224761   5.105   2.504   5.634 -1.2491  1.2214  1.1661
 1116TIP3   OH224762   0.075   1.999  15.853 -0.6679 -0.7454  0.2505
 1116TIP3    H124763   0.083   2.022  15.761 -0.0451 -0.1190  0.4553
 1116TIP3    H224764   0.036   1.912  15.852  0.6246 -1.3529 -0.6511
 1117TIP3   OH224765   1.429   0.211   3.831  0.0786 -0.4280  0.1988
 1117TIP3    H124766   1.443   0.296   3.872  1.6694 -1.1202  1.2122
 1117TIP3    H224767   1.511   0.195   3.784 -0.6255 -0.9329 -0.8726
 1118TIP3   OH224768   2.185   5.039  13.770 -0.3163 -0.5010  0.3580
 1118TIP3    H124769   2.096   5.055  13.803  0.3184  1.2985  1.3190
 1118TIP3    H224770   2.241   5.092  13.826  1.1506  0.1149 -1.5938
 1119TIP3   OH224771   3.637   3.356   4.106  0.1390  0.0573  1.0939
 1119TIP3    H124772   3.545   3.328   4.106  0.0323  0.1162 -1.3250
 1119TIP3    H224773   3.658   3.373   4.197 -1.4774 -2.4818  2.0408
 1120TIP3   OH224774   6.480   6.624   4.660 -0.0414 -0.1468  0.6511
 1120TIP3    H124775   6.487   6.548   4.603  1.0268  0.4358 -0.0259
 1120TIP3    H224776   6.395   6.663   4.637 -0.0985 -0.5162  0.2168
 1121TIP3   OH224777   4.408   6.161   1.994  0.1493 -0.6875 -0.1683
 1121TIP3    H124778   4.475   6.095   1.977  0.2736 -0.4576 -0.5777
 1121TIP3    H224779   4.396   6.159   2.089 -0.3897 -1.8225 -0.2489
 1122TIP3   OH224780   1.228   4.273   3.301 -0.1769  0.1102 -0.3705
 1122TIP3    H124781   1.296   4.291   3.366 -0.4068  0.0419 -0.1131
 1122TIP3    H224782   1.219   4.356   3.254 -1.4688  0.8057  1.0311
 1123TIP3   OH224783   6.700   5.177   4.224  0.4878  0.3016  0.3059
 1123TIP3    H124784   6.606   5.186   4.240  0.5873  1.4124  0.2872
 1123TIP3    H224785   6.733   5.134   4.303  0.2626  1.6711  1.1662
 1124TIP3   OH224786   0.510   2.948   4.667  0.2160 -0.4656 -0.3609
 1124TIP3    H124787   0.462   2.889   4.725  0.8193  0.1131  0.7412
 1124TIP3    H224788   0.476   3.035   4.687  1.0640 -0.1579 -0.2357
 1125TIP3   OH224789   5.996   2.319   2.556 -0.2243 -0.4737 -0.3239
 1125TIP3    H124790   5.962   2.310   2.644 -0.6747  0.6531 -0.3549
 1125TIP3    H224791   5.920   2.305   2.499  0.1165 -1.4603 -0.5580
 1126TIP3   OH224792   5.188   4.152   4.802  0.1721  0.3397  0.1615
 1126TIP3    H124793   5.117   4.088   4.803 -0.1568  0.5276 -2.6768
 1126TIP3    H224794   5.145   4.235   4.779  1.3609  0.0929 -3.7622
 1127TIP3   OH224795   5.190   3.189  16.810 -0.1044 -0.4220 -0.2920
 1127TIP3    H124796   5.283   3.212  16.817  0.8447 -2.3739 -4.1071
 1127TIP3    H224797   5.182   3.107  16.857  0.0048 -0.1296  0.2498
 1128TIP3   OH224798   3.183   5.350  13.875 -0.2173  0.1895 -0.2225
 1128TIP3    H124799   3.177   5.266  13.828  0.6554  0.5155 -0.9450
 1128TIP3    H224800   3.137   5.411  13.818 -0.6360  0.2557  0.1848
 1129TIP3   OH224801   2.375   1.874   5.814 -0.1107  0.0470  0.3163
 1129TIP3    H124802   2.406   1.788   5.844 -0.9763 -0.9529 -1.4948
 1129TIP3    H224803   2.455   1.925   5.801  0.3867 -0.2591  1.9601
 1130TIP3   OH224804   6.166   1.692  12.200 -0.2579 -0.5974 -0.5361
 1130TIP3    H124805   6.203   1.779  12.185  0.7046 -1.3756 -3.2865
 1130TIP3    H224806   6.230   1.648  12.256  0.5463 -0.3216 -1.2177
 1131TIP3   OH224807   2.170   4.272   0.483  0.1298  0.0385  0.1289
 1131TIP3    H124808   2.077   4.251   0.475  0.1932 -0.1627 -0.0901
 1131TIP3    H224809   2.177   4.317   0.568  0.1908 -1.9984  1.2877
 1132TIP3   OH224810   2.109   1.915  16.023 -0.1917  0.5602  0.1349
 1132TIP3    H124811   2.167   1.875  15.958 -0.9533 -0.3146 -0.0320
 1132TIP3    H224812   2.096   1.847  16.089  1.1145  1.6637  1.5921
 1133TIP3   OH224813   0.757   2.100  13.127 -0.3554 -0.5195 -0.0235
 1133TIP3    H124814   0.753   2.079  13.034 -1.9327  2.4622 -0.7637
 1133TIP3    H224815   0.696   2.039  13.168 -0.8804 -0.8147 -1.2008
 1134TIP3   OH224816   6.497   4.313  13.136 -0.3124 -0.5264  0.0148
 1134TIP3    H124817   6.474   4.240  13.193  0.8187  0.5628  1.9663
 1134TIP3    H224818   6.414   4.360  13.123 -0.6220 -0.9033  0.5868
 1135TIP3   OH224819   0.619   2.225  16.152  0.0063  0.4343 -0.1913
 1135TIP3    H124820   0.584   2.217  16.064  1.1728  1.8269 -0.8280
 1135TIP3    H224821   0.709   2.255  16.140  0.3725  0.1206  1.4655
 1136TIP3   OH224822   0.483   5.750   5.484 -0.2643 -0.2953  0.0814
 1136TIP3    H124823   0.419   5.810   5.520  0.4596  1.1541 -0.9414
 1136TIP3    H224824   0.434   5.697   5.421 -0.7039 -0.0405  0.2050
 1137TIP3   OH224825   1.704   1.050   1.271 -1.0355 -0.1908 -0.2108
 1137TIP3    H124826   1.706   1.005   1.356  0.5257  1.3733  0.6319
 1137TIP3    H224827   1.726   0.982   1.208 -1.5290 -1.2361  0.6978
 1138TIP3   OH224828   0.219   4.364  12.210 -0.3528 -0.1116 -0.7054
 1138TIP3    H124829   0.294   4.379  12.152  0.1993 -0.2424 -0.0340
 1138TIP3    H224830   0.213   4.444  12.262 -1.4372  0.4006 -1.5741
 1139TIP3   OH224831   2.752   0.316  16.623 -0.1531  0.2963  0.1066
 1139TIP3    H124832   2.816   0.371  16.580 -1.4209  0.6331 -1.4584
 1139TIP3    H224833   2.795   0.231  16.633  1.3219  1.1504  1.2581
 1140TIP3   OH224834   3.829   3.362   5.546  0.2535 -0.3525  0.1114
 1140TIP3    H124835   3.900   3.302   5.522  0.1896 -0.4787  0.2377
 1140TIP3    H224836   3.753   3.330   5.498  0.5766  0.5460 -1.0494
 1141TIP3   OH224837   5.859   2.849   2.775  0.2443  0.1142 -0.5981
 1141TIP3    H124838   5.827   2.838   2.864  0.3079 -0.2375 -0.6195
 1141TIP3    H224839   5.802   2.795   2.722  1.3520 -1.1534 -0.5387
 1142TIP3   OH224840   6.294   2.476   0.053  0.2681 -0.2312 -0.5446
 1142TIP3    H124841   6.278   2.505   0.143  0.3707  1.2086 -0.9644
 1142TIP3    H224842   6.309   2.557   0.004 -0.7138 -0.9080 -2.0478
 1143TIP3   OH224843   4.605   1.985   5.026 -0.1181  0.2762 -0.4308
 1143TIP3    H124844   4.618   2.025   5.111  0.1617  0.8081 -0.7183
 1143TIP3    H224845   4.694   1.967   4.994 -0.1980  0.7980 -0.9454
 1144TIP3   OH224846   2.022   4.194  15.210 -0.0670  0.1094 -0.1422
 1144TIP3    H124847   1.973   4.114  15.192 -0.7083  0.3245  0.6252
 1144TIP3    H224848   1.975   4.236  15.281 -0.7164  2.0415 -1.6336
 1145TIP3   OH224849   1.943   2.958  14.002  0.1563 -0.3932 -0.1361
 1145TIP3    H124850   2.005   2.897  14.043 -1.2098 -1.3929  0.5318
 1145TIP3    H224851   1.880   2.978  14.071 -1.1349 -0.6286 -1.2006
 1146TIP3   OH224852   6.626   2.675   4.268 -0.0202  0.4066 -0.2224
 1146TIP3    H124853   6.634   2.674   4.364 -1.3775  1.3478 -0.0705
 1146TIP3    H224854   6.547   2.726   4.251 -0.4375 -0.6744 -1.8091
 1147TIP3   OH224855   0.004   1.401  15.505 -0.3262  0.5007 -0.0713
 1147TIP3    H124856   0.056   1.447  15.572  0.0288  0.7982 -0.5443
 1147TIP3    H224857  -0.065   1.357  15.554  0.5533 -0.1571  0.6155
 1148TIP3   OH224858   1.541   4.647   5.302  0.1327 -0.6825  0.4958
 1148TIP3    H124859   1.574   4.558   5.296  1.3946 -0.1765 -1.3593
 1148TIP3    H224860   1.589   4.686   5.375 -1.8119 -1.9953  2.5529
 1149TIP3   OH224861   4.158   0.263   5.381  0.2664 -0.6732 -0.4860
 1149TIP3    H124862   4.153   0.173   5.349 -0.4249 -0.3460 -1.3477
 1149TIP3    H224863   4.165   0.254   5.476 -0.3193 -1.6294 -0.5186
 1150TIP3   OH224864   0.975   5.956  16.519 -0.3164  0.1331 -0.4942
 1150TIP3    H124865   0.937   6.043  16.531 -1.8813 -0.7449  1.3671
 1150TIP3    H224866   0.902   5.896  16.531  0.9512 -1.4879 -0.6343
 1151TIP3   OH224867   1.640   5.590  11.924  0.2098  0.3366  0.0282
 1151TIP3    H124868   1.551   5.603  11.956 -0.2919 -1.6906 -0.4138
 1151TIP3    H224869   1.632   5.520  11.860  2.5154 -1.9205  2.0254
 1152TIP3   OH224870   3.968   0.922   0.096 -0.2550  0.5679  0.0555
 1152TIP3    H124871   3.893   0.882   0.052 -0.6713  0.0911  1.1600
 1152TIP3    H224872   3.954   1.016   0.088 -0.1332  0.4921 -1.1277
 1153TIP3   OH224873   4.117   2.356   4.281 -0.2304 -0.6286 -0.3241
 1153TIP3    H124874   4.155   2.319   4.360 -0.6281 -0.5702 -0.1062
 1153TIP3    H224875   4.171   2.433   4.262 -1.1176  0.2950  0.8009
 1154TIP3   OH224876   6.757   0.292  15.489 -0.4041 -0.6919  0.3092
 1154TIP3    H124877   6.771   0.357  15.420 -0.6421 -0.8393  0.1213
 1154TIP3    H224878   6.662   0.289  15.500 -0.3917 -0.9857  0.3369
 1155TIP3   OH224879   2.409   5.663   0.487 -0.6714  0.1028 -0.3972
 1155TIP3    H124880   2.363   5.644   0.570  0.2012 -0.6138 -0.0600
 1155TIP3    H224881   2.340   5.660   0.421 -0.9994 -1.8990 -0.0325
 1156TIP3   OH224882   6.281   3.035  17.054 -0.2224  0.0644 -0.0082
 1156TIP3    H124883   6.252   3.049  17.144  0.3097 -0.9429  0.3326
 1156TIP3    H224884   6.200   3.037  17.003 -0.4102  1.8949  0.3072
 1157TIP3   OH224885   3.245   0.468   4.916  0.4590 -0.5128 -0.1701
 1157TIP3    H124886   3.339   0.449   4.914  0.8825  1.4295 -0.9855
 1157TIP3    H224887   3.233   0.519   4.996  0.0031 -1.0642  0.1225
 1158TIP3   OH224888   5.650   3.957   3.793  0.7134  0.0521  0.7853
 1158TIP3    H124889   5.730   3.982   3.747 -0.6149  1.1868 -1.0392
 1158TIP3    H224890   5.620   4.037   3.835 -1.2538  0.6548 -1.4885
 1159TIP3   OH224891   5.939   1.816  13.396 -0.0671  0.3687 -0.0559
 1159TIP3    H124892   6.006   1.843  13.459  0.1495 -1.9131  0.7994
 1159TIP3    H224893   5.870   1.882  13.404  0.0635  0.3038  2.4489
 1160TIP3   OH224894   1.168   4.851  13.208  0.1783  0.4149 -0.0955
 1160TIP3    H124895   1.248   4.812  13.172  0.3346 -1.0995  1.7706
 1160TIP3    H224896   1.108   4.852  13.134  0.3255 -3.0235 -0.4526
 1161TIP3   OH224897   2.864   6.359  16.973  0.2531 -0.2904 -0.4540
 1161TIP3    H124898   2.816   6.362  17.055  1.1170  0.1691  0.0452
 1161TIP3    H224899   2.866   6.266  16.950  2.0643 -0.7557  1.3047
 1162TIP3   OH224900   3.082   0.210  14.690  0.6530  0.0877  0.1612
 1162TIP3    H124901   3.177   0.206  14.676  0.4002 -0.8408 -1.5514
 1162TIP3    H224902   3.062   0.130  14.739  0.5251 -0.7929 -1.2658
 1163TIP3   OH224903   1.002   2.219   2.821 -0.2166 -0.7539  0.0054
 1163TIP3    H124904   1.022   2.135   2.779 -1.7700 -0.7178 -0.9074
 1163TIP3    H224905   0.964   2.272   2.751 -2.0513 -0.3553  1.2366
 1164TIP3   OH224906   4.672   5.752   0.219  0.6222 -0.1945  0.3691
 1164TIP3    H124907   4.745   5.705   0.179  1.4549 -1.4623  3.1666
 1164TIP3    H224908   4.713   5.820   0.273 -0.1975 -1.0589  2.1605
 1165TIP3   OH224909   0.354   3.784  16.249 -0.3912  0.3406  0.3937
 1165TIP3    H124910   0.419   3.779  16.319 -0.8086 -0.1780  0.7437
 1165TIP3    H224911   0.383   3.859  16.196  0.3849  0.2317  0.6483
 1166TIP3   OH224912   5.657   2.318  14.120  0.2114 -0.7434  0.5557
 1166TIP3    H124913   5.669   2.392  14.060  0.0542  1.6256  3.2231
 1166TIP3    H224914   5.745   2.282  14.130  0.6921  0.4733  0.8465
 1167TIP3   OH224915   0.699   2.368  13.094  0.4928  0.3750 -0.6664
 1167TIP3    H124916   0.684   2.426  13.168  2.7520  2.3629 -1.6355
 1167TIP3    H224917   0.735   2.288  13.132  0.4760  0.8893  0.4558
 1168TIP3   OH224918   1.999   6.500   3.690  0.9937 -0.1978 -0.2041
 1168TIP3    H124919   2.029   6.451   3.766  0.5433 -0.3474 -0.1201
 1168TIP3    H224920   2.021   6.445   3.615 -0.3446 -0.9841 -0.0600
 1169TIP3   OH224921   3.825   3.691  15.025 -0.5268  0.2820  0.1103
 1169TIP3    H124922   3.842   3.770  15.076  1.4308 -0.3647  0.5528
 1169TIP3    H224923   3.807   3.624  15.090  0.6526 -0.2566 -0.1083
 1170TIP3   OH224924   5.671   0.276   0.815 -0.4395 -0.8947 -0.0373
 1170TIP3    H124925   5.661   0.350   0.755 -0.9454 -1.3594 -0.5336
 1170TIP3    H224926   5.735   0.306   0.879 -0.1266 -0.2750 -0.6291
 1171TIP3   OH224927   3.593   3.676   5.951 -0.5645  0.8733  0.3393
 1171TIP3    H124928   3.521   3.618   5.978 -0.8762  0.5976 -1.0299
 1171TIP3    H224929   3.671   3.638   5.992 -0.9473  0.2017  0.4639
 1172TIP3   OH224930   6.154   6.311   1.245 -0.0580  0.7109 -0.1756
 1172TIP3    H124931   6.246   6.319   1.218 -0.4662 -1.8522 -2.9510
 1172TIP3    H224932   6.107   6.372   1.189 -0.1817  1.1852  0.4373
 1173TIP3   OH224933   2.987   6.492  17.298 -0.6766 -0.2144 -0.0814
 1173TIP3    H124934   2.916   6.550  17.326  0.5510  0.6347  1.4520
 1173TIP3    H224935   2.958   6.404  17.323 -0.9539  0.1913  1.0584
 1174TIP3   OH224936   6.266   5.053   3.213 -0.6300 -0.1315  0.2778
 1174TIP3    H124937   6.319   4.975   3.205  1.7916  1.3495  0.8531
 1174TIP3    H224938   6.296   5.095   3.294 -0.7826  2.0931 -0.7232
 1175TIP3   OH224939   4.301   2.453   5.375  0.5381 -0.1193 -0.3862
 1175TIP3    H124940   4.288   2.368   5.416 -0.9710  0.2882  0.0384
 1175TIP3    H224941   4.325   2.511   5.447  1.2578 -0.0956 -0.6288
 1176TIP3   OH224942   0.865   5.189   4.500 -0.3150 -0.1521  0.1490
 1176TIP3    H124943   0.857   5.094   4.504 -1.6902 -0.0371  0.7669
 1176TIP3    H224944   0.940   5.209   4.557 -0.2870 -0.8264  0.3542
 1177TIP3   OH224945   2.201   0.222  17.290  0.0973 -0.0950 -0.4937
 1177TIP3    H124946   2.268   0.283  17.323 -0.5015  1.7377 -2.4069
 1177TIP3    H224947   2.250   0.157  17.240  0.5231  0.9302 -1.4466
 1178TIP3   OH224948   6.621   0.256  16.413 -0.0204 -0.2206 -0.0298
 1178TIP3    H124949   6.708   0.291  16.393 -0.8425  1.6464 -0.4949
 1178TIP3    H224950   6.600   0.292  16.499 -0.8541  0.4029 -0.4850
 1179TIP3   OH224951   1.252   4.984   3.966  0.3671 -0.0535  0.4455
 1179TIP3    H124952   1.301   4.904   3.982  0.9444  0.1678 -0.1536
 1179TIP3    H224953   1.302   5.030   3.898  1.9216  2.3995  3.0133
 1180TIP3   OH224954   2.852   5.418   1.692  0.2446  0.9941 -0.5151
 1180TIP3    H124955   2.795   5.408   1.616  0.7861 -2.7912 -0.6463
 1180TIP3    H224956   2.940   5.407   1.657  0.5671  0.2557  0.4726
 1181TIP3   OH224957   5.649   5.932  12.285 -0.3904 -0.5567 -0.0060
 1181TIP3    H124958   5.698   5.994  12.232  1.0244 -1.6229  0.0161
 1181TIP3    H224959   5.713   5.867  12.313 -1.3444 -0.7296  1.9714
 1182TIP3   OH224960   5.163   2.786  13.371 -0.8728  0.2108  0.0537
 1182TIP3    H124961   5.095   2.849  13.394 -0.3122  0.6776  0.4713
 1182TIP3    H224962   5.129   2.740  13.295 -1.2644  1.0725 -0.3008
 1183TIP3   OH224963   2.036   3.346  16.160  0.2915  0.0698  0.7493
 1183TIP3    H124964   2.028   3.269  16.216 -2.2347 -0.0210  0.3950
 1183TIP3    H224965   2.034   3.311  16.071  0.8746  0.4586  0.5748
 1184TIP3   OH224966   4.287   5.613  14.708 -0.1149  0.2584  0.2846
 1184TIP3    H124967   4.323   5.684  14.761  1.0837  0.0757 -0.2622
 1184TIP3    H224968   4.232   5.563  14.768  0.8282  0.3443  1.2424
 1185TIP3   OH224969   1.981   0.604   0.624  0.0873  0.5058 -0.0190
 1185TIP3    H124970   1.919   0.545   0.668  0.1056  0.0690 -0.5575
 1185TIP3    H224971   2.056   0.548   0.603 -0.0255  0.6346 -0.8142
 1186TIP3   OH224972   3.525   2.887   2.939  0.9163  0.3194  0.0148
 1186TIP3    H124973   3.525   2.808   2.993  2.0157 -0.2596 -0.7923
 1186TIP3    H224974   3.520   2.855   2.849  2.3426  1.0947 -0.3764
 1187TIP3   OH224975   4.535   1.496   1.660  0.2236 -0.0427  0.3801
 1187TIP3    H124976   4.625   1.528   1.664  0.4184 -0.6247  0.9760
 1187TIP3    H224977   4.543   1.401   1.669 -0.2385 -0.4463 -2.6003
 1188TIP3   OH224978   3.306   6.733  12.552 -0.4075 -0.1320  0.4323
 1188TIP3    H124979   3.342   6.697  12.633  1.0860  0.6380  0.1458
 1188TIP3    H224980   3.291   6.825  12.572  0.2182  0.1225 -0.2372
 1189TIP3   OH224981   3.746   6.722   6.054  0.2278  0.8298 -0.2175
 1189TIP3    H124982   3.839   6.743   6.051  0.3477  0.4437  0.5335
 1189TIP3    H224983   3.716   6.757   6.138  0.2013 -0.9590  0.5768
 1190TIP3   OH224984   3.557   6.180  15.809  0.2334  0.3585  0.2048
 1190TIP3    H124985   3.638   6.220  15.841  1.2229  0.3165 -2.0485
 1190TIP3    H224986   3.568   6.087  15.828  1.6071  0.0751 -1.6913
 1191TIP3   OH224987   5.420   1.538  12.994  0.6488  0.1530  0.4487
 1191TIP3    H124988   5.424   1.601  13.066  2.0750  0.5395  0.0741
 1191TIP3    H224989   5.433   1.453  13.035 -0.2603  0.1983  0.8398
 1192TIP3   OH224990   0.768   0.146   0.373  0.0211  0.4616  0.2214
 1192TIP3    H124991   0.829   0.086   0.331  0.2019  1.1573 -0.5229
 1192TIP3    H224992   0.683   0.125   0.334  0.2225  1.2454 -0.6597
 1193TIP3   OH224993   4.542   3.369   2.945  0.0826 -0.3086 -0.6924
 1193TIP3    H124994   4.600   3.385   3.019 -1.9989 -2.2969  1.5440
 1193TIP3    H224995   4.480   3.441   2.947 -0.4304 -0.7620  0.0127
 1194TIP3   OH224996   1.213   1.844  12.046  0.2140 -0.4544  0.0927
 1194TIP3    H124997   1.138   1.801  12.087  1.4550 -1.9892  0.8810
 1194TIP3    H224998   1.222   1.799  11.961  1.9514 -2.4053  1.2164
 1195TIP3   OH224999   2.719   2.627   5.198 -0.0104  0.4679 -0.4919
 1195TIP3    H125000   2.689   2.718   5.204  0.6763  0.9026 -2.8076
 1195TIP3    H225001   2.669   2.590   5.125  1.6926 -0.1536 -1.4031
 1196TIP3   OH225002   4.795   0.487   6.095  0.0212 -0.0394  0.4169
 1196TIP3    H125003   4.727   0.432   6.135 -0.8097  0.6736  0.0065
 1196TIP3    H225004   4.769   0.494   6.003  1.6545 -1.2591 -0.1799
 1197TIP3   OH225005   1.062   2.576   0.073 -0.2242  0.1948  0.3580
 1197TIP3    H125006   0.973   2.570   0.037  0.4885  1.0532 -1.6997
 1197TIP3    H225007   1.056   2.646   0.138 -1.0693  0.2244  0.2657
 1198TIP3   OH225008   5.930   4.358   0.495 -0.0262 -0.5075  0.3143
 1198TIP3    H125009   5.925   4.398   0.582  1.1882 -0.7652  0.5150
 1198TIP3    H225010   5.954   4.267   0.512  1.1183 -0.3417 -0.3196
 1199TIP3   OH225011   3.031   5.926  15.637 -0.1285 -0.0150 -0.2978
 1199TIP3    H125012   3.030   5.971  15.721  1.5481 -1.4727  0.5751
 1199TIP3    H225013   2.943   5.889  15.628 -0.4509  0.5147  0.6082
 1200TIP3   OH225014   3.601   6.727   0.151  0.4226  0.2959 -0.0892
 1200TIP3    H125015   3.532   6.698   0.091  2.1750 -0.7140 -1.7557
 1200TIP3    H225016   3.653   6.789   0.099  1.8530 -0.4145  0.4478
 1201TIP3   OH225017   5.366   3.006  16.143 -0.0625 -0.2328 -0.5302
 1201TIP3    H125018   5.364   2.924  16.193 -1.7395 -0.7162 -1.3195
 1201TIP3    H225019   5.350   3.074  16.209 -0.4871 -0.7039 -0.1333
 1202TIP3   OH225020   1.230   2.461   2.559 -0.2368 -0.1376 -0.0697
 1202TIP3    H125021   1.239   2.372   2.525 -3.2453 -1.3838  1.9602
 1202TIP3    H225022   1.174   2.505   2.495 -2.4153 -1.1811  1.0010
 1203TIP3   OH225023   5.357   6.172  16.437  0.3593  0.1619  0.2284
 1203TIP3    H125024   5.292   6.103  16.444 -0.2221  0.6878  0.0449
 1203TIP3    H225025   5.395   6.179  16.525 -0.3902  0.3906  0.5393
 1204TIP3   OH225026   0.719   6.040   1.372 -0.2827 -0.1556  0.1433
 1204TIP3    H125027   0.728   5.976   1.443 -2.0214 -1.7069 -0.9296
 1204TIP3    H225028   0.785   6.015   1.308 -0.4986 -0.4519  0.0346
 1205TIP3   OH225029   2.163   5.659   0.364 -0.6093 -0.6777  0.0257
 1205TIP3    H125030   2.109   5.719   0.416  0.1938 -0.5884  0.7886
 1205TIP3    H225031   2.100   5.603   0.318 -1.3467 -0.4958  0.7857
 1206TIP3   OH225032   6.588   5.334   5.382  0.2160 -0.4927  0.6879
 1206TIP3    H125033   6.522   5.390   5.344 -1.0767 -1.9778  0.6415
 1206TIP3    H225034   6.557   5.316   5.471  0.4646 -1.3387  0.6145
 1207TIP3   OH225035   2.569   4.963   3.925 -0.1606  0.0184  0.4366
 1207TIP3    H125036   2.662   4.985   3.921 -0.3341  0.5779 -1.0417
 1207TIP3    H225037   2.534   5.024   3.991  0.4849 -0.1202  0.9235
 1208TIP3   OH225038   2.073   5.055   0.015  0.2082 -0.4027  0.9890
 1208TIP3    H125039   2.063   5.135  -0.036  0.3119 -1.3042 -0.4832
 1208TIP3    H225040   1.984   5.036   0.046 -0.0899 -0.5430  0.0641
 1209TIP3   OH225041   2.629   5.429   3.419 -0.7254 -0.1213 -0.2748
 1209TIP3    H125042   2.605   5.401   3.331  0.7522 -1.0533 -0.4112
 1209TIP3    H225043   2.571   5.503   3.437 -2.0500 -0.8163 -1.4483
 1210TIP3   OH225044   1.918   2.297   5.607  0.8752  0.2954  0.2742
 1210TIP3    H125045   1.863   2.337   5.674  1.9324  3.7662 -0.7342
 1210TIP3    H225046   2.004   2.289   5.648  0.2363 -3.5832  1.2868
 1211TIP3   OH225047   5.074   1.486  16.636  0.0753 -0.4396 -0.0473
 1211TIP3    H125048   5.023   1.412  16.602  1.3892 -0.9699 -0.9665
 1211TIP3    H225049   5.010   1.555  16.651 -1.0544 -1.4476 -0.0657
 1212TIP3   OH225050   5.838   2.180   1.137 -0.3820 -0.0589  0.0204
 1212TIP3    H125051   5.766   2.174   1.201 -0.4201 -1.1200 -0.1068
 1212TIP3    H225052   5.909   2.220   1.186 -1.0900  1.1482  0.1116
 1213TIP3   OH225053   1.105   3.390   3.183  0.3634  0.2465 -0.0348
 1213TIP3    H125054   1.189   3.421   3.151  0.7279 -0.4282  0.2434
 1213TIP3    H225055   1.123   3.360   3.273 -0.8906  3.3239  1.3932
 1214TIP3   OH225056   1.008   4.370  14.590  0.0242  0.3464  0.2586
 1214TIP3    H125057   1.018   4.460  14.560  0.0085  0.5294  0.7992
 1214TIP3    H225058   0.932   4.337  14.541  1.7992 -0.3493 -2.2064
 1215TIP3   OH225059   6.084   2.552  12.061 -0.4413  0.2128  0.4120
 1215TIP3    H125060   6.122   2.536  12.147  0.9415  1.3107  0.0531
 1215TIP3    H225061   6.152   2.600  12.014 -1.5216  0.4314 -0.9872
 1216TIP3   OH225062   4.694   3.689  17.026  0.0097  0.5627  0.0419
 1216TIP3    H125063   4.660   3.630  17.092  1.6880 -0.9885 -0.4106
 1216TIP3    H225064   4.615   3.729  16.987 -1.0385  0.8560  2.2881
 1217TIP3   OH225065   1.484   2.661  14.313  0.2726 -0.3990  0.1444
 1217TIP3    H125066   1.455   2.703  14.232  0.6936  0.6679  0.5411
 1217TIP3    H225067   1.440   2.575  14.312  0.2440 -0.3890 -1.1831
 1218TIP3   OH225068   1.323   1.649  17.239 -0.5551  0.0881 -0.0170
 1218TIP3    H125069   1.414   1.663  17.214 -0.9338 -0.0252 -1.5666
 1218TIP3    H225070   1.273   1.665  17.159 -1.8325 -0.5726  0.6136
 1219TIP3   OH225071   3.435   2.484  11.579 -0.6127 -0.2566  0.2872
 1219TIP3    H125072   3.423   2.533  11.661  1.4227  1.1350 -0.1735
 1219TIP3    H225073   3.481   2.545  11.521 -0.5485 -1.7753 -1.3334
 1220TIP3   OH225074   4.070   5.542   4.099 -0.0653 -0.4310 -0.3764
 1220TIP3    H125075   4.091   5.520   4.008 -0.1145 -0.0994 -0.4702
 1220TIP3    H225076   4.028   5.464   4.134 -1.4558 -0.0307 -1.0998
 1221TIP3   OH225077   2.271   0.389   1.009 -0.2336 -0.6217  0.1121
 1221TIP3    H125078   2.349   0.410   0.957 -0.7809 -1.6338 -1.1739
 1221TIP3    H225079   2.260   0.465   1.066  0.1755  0.7378 -1.5266
 1222TIP3   OH225080   0.254   0.409  15.240  0.6168  0.4636  0.6008
 1222TIP3    H125081   0.261   0.436  15.332  1.1930 -0.9163  0.9848
 1222TIP3    H225082   0.160   0.411  15.222  0.2321 -1.6496  2.0142
 1223TIP3   OH225083   3.607   1.394   0.654  0.2652 -0.3442  0.0906
 1223TIP3    H125084   3.659   1.399   0.573  2.0670 -1.7031  1.0760
 1223TIP3    H225085   3.660   1.339   0.712 -1.3340 -0.0186  1.9389
 1224TIP3   OH225086   0.008   5.910   4.236  0.0793  0.7443 -0.4867
 1224TIP3    H125087  -0.088   5.903   4.238  0.1566 -0.6339 -0.6818
 1224TIP3    H225088   0.039   5.819   4.243  1.4357  1.3136  2.2958
 1225TIP3   OH225089   2.333   1.726  13.256 -0.7250 -0.4159  0.1390
 1225TIP3    H125090   2.279   1.719  13.334 -2.0376  0.3795 -0.6712
 1225TIP3    H225091   2.400   1.791  13.278  1.0027 -2.5493  1.7112
 1226TIP3   OH225092   2.410   0.305   1.723  0.1036  0.0606 -0.4493
 1226TIP3    H125093   2.447   0.392   1.711 -0.1235  0.1098 -0.8139
 1226TIP3    H225094   2.324   0.309   1.681  0.5657 -0.6730 -1.5198
 1227TIP3   OH225095   0.187   1.183  14.719 -0.9060 -0.7010  0.4075
 1227TIP3    H125096   0.275   1.163  14.688  0.3673 -0.5485  3.6028
 1227TIP3    H225097   0.146   1.229  14.645  1.0986 -2.0815 -1.7276
 1228TIP3   OH225098   4.813   0.804  16.472  0.7830  0.1847 -0.0164
 1228TIP3    H125099   4.747   0.735  16.465  1.7192 -1.1485  2.8112
 1228TIP3    H225100   4.809   0.850  16.388 -1.4456 -1.8858 -1.1536
 1229TIP3   OH225101   1.244   2.233   6.091  0.1880  0.0026  0.2357
 1229TIP3    H125102   1.263   2.327   6.090  0.8533 -0.1193  0.7431
 1229TIP3    H225103   1.298   2.198   6.162  0.3561 -0.8427 -0.2890
 1230TIP3   OH225104   2.202   1.552   6.206 -0.1158  0.4004 -0.0333
 1230TIP3    H125105   2.157   1.509   6.278  1.6832 -1.3609  0.1401
 1230TIP3    H225106   2.149   1.532   6.129 -0.1108 -0.8931  0.2772
 1231TIP3   OH225107   2.389   1.177  11.684 -0.6145 -0.1525  0.5165
 1231TIP3    H125108   2.295   1.191  11.670 -0.2687  3.3680  0.8488
 1231TIP3    H225109   2.425   1.168  11.595 -0.9870  0.9705  0.2355
 1232TIP3   OH225110   0.036   1.792   3.918  0.2846  0.3635  0.3638
 1232TIP3    H125111  -0.005   1.869   3.959 -0.6389  0.1562 -0.1356
 1232TIP3    H225112   0.125   1.791   3.953 -0.2822  0.5259  1.9263
 1233TIP3   OH225113   0.318   4.052   3.944 -0.3221 -0.2820 -0.1272
 1233TIP3    H125114   0.359   4.138   3.945 -0.3408 -0.2705  0.9833
 1233TIP3    H225115   0.386   3.993   3.978  0.8849 -1.3236 -3.8269
 1234TIP3   OH225116   1.199   1.650  16.990  0.0228  0.8248 -0.0646
 1234TIP3    H125117   1.139   1.591  16.945  0.2485 -1.5381  2.4560
 1234TIP3    H225118   1.281   1.645  16.940  0.3309 -1.8428  0.5768
 1235TIP3   OH225119   6.671   2.487  15.556 -0.0834  0.8624  0.5182
 1235TIP3    H125120   6.668   2.398  15.522  0.6203  0.6092  1.1093
 1235TIP3    H225121   6.729   2.534  15.495 -0.9477  1.0891 -0.1542
 1236TIP3   OH225122   0.613   0.896  16.966 -0.7347  0.5523 -0.2115
 1236TIP3    H125123   0.548   0.829  16.985 -2.2023  2.0281  0.1588
 1236TIP3    H225124   0.605   0.912  16.872 -0.8783  0.6997 -0.1747
 1237TIP3   OH225125   3.424   5.852   3.294 -1.1682 -0.2670 -0.2491
 1237TIP3    H125126   3.374   5.804   3.360 -0.3358 -0.0914  0.5256
 1237TIP3    H225127   3.358   5.885   3.233 -1.8926 -0.9425  0.1594
 1238TIP3   OH225128   5.242   1.779   5.909  0.0314  0.1611 -0.1900
 1238TIP3    H125129   5.257   1.696   5.954 -1.4836  0.3915  0.8115
 1238TIP3    H225130   5.248   1.758   5.816  3.1992 -0.3447  0.0259
 1239TIP3   OH225131   3.762   2.396  14.343  0.0006  0.0038  0.2125
 1239TIP3    H125132   3.781   2.467  14.405  0.2387  0.6415 -0.5767
 1239TIP3    H225133   3.848   2.364  14.316 -0.1061 -0.7879  0.7785
 1240TIP3   OH225134   0.655   4.445  12.042 -0.0045 -0.3397  0.2533
 1240TIP3    H125135   0.577   4.415  11.994  0.3496 -0.0478 -0.5308
 1240TIP3    H225136   0.673   4.532  12.006  2.5299 -1.6105 -1.9543
 1241TIP3   OH225137   3.664   4.332   3.505  0.0031  0.4778  0.1770
 1241TIP3    H125138   3.610   4.410   3.519  2.6928  2.2095  1.8698
 1241TIP3    H225139   3.751   4.367   3.486  0.7615 -2.1659 -1.7341
 1242TIP3   OH225140   4.238   0.297  13.645  0.4321  0.1961 -0.1431
 1242TIP3    H125141   4.284   0.303  13.561 -1.8023  1.2822 -1.3722
 1242TIP3    H225142   4.244   0.384  13.682 -1.4052  0.6660 -0.8242
 1243TIP3   OH225143   4.284   3.869   2.394  0.4069 -0.8968 -0.2419
 1243TIP3    H125144   4.323   3.829   2.472  1.0177  0.8872  0.4153
 1243TIP3    H225145   4.302   3.962   2.403 -1.6189 -0.3348 -1.3255
 1244TIP3   OH225146   0.673   6.244  14.700  0.3263  0.4757  0.6856
 1244TIP3    H125147   0.660   6.301  14.624  1.9419 -1.4709 -1.1786
 1244TIP3    H225148   0.765   6.217  14.694  0.0667 -1.0060  2.4462
 1245TIP3   OH225149   0.845   6.713   2.599  0.2506  0.4260 -0.3520
 1245TIP3    H125150   0.758   6.709   2.639  0.2182  0.2446 -0.4413
 1245TIP3    H225151   0.829   6.696   2.506  0.6064 -1.5907 -0.0858
 1246TIP3   OH225152   5.608   1.622  16.845  0.5413 -0.1059 -0.8546
 1246TIP3    H125153   5.656   1.539  16.853  0.8399  0.1175 -0.2491
 1246TIP3    H225154   5.519   1.597  16.821  1.3887 -0.4598 -4.0895
 1247TIP3   OH225155   6.075   2.436   1.033  0.1396  0.1738  0.2020
 1247TIP3    H125156   6.082   2.366   0.968  1.0855 -0.1686  0.6489
 1247TIP3    H225157   6.064   2.390   1.117 -0.1837  0.5832  0.3854
 1248TIP3   OH225158   2.461   6.049  12.737 -0.0960 -0.0198  0.2192
 1248TIP3    H125159   2.408   5.985  12.784 -1.7966  0.9513 -0.2731
 1248TIP3    H225160   2.469   6.014  12.649 -0.3573  0.0702  0.1592
 1249TIP3   OH225161   0.425   4.632   3.122  0.2956  0.2994 -0.3102
 1249TIP3    H125162   0.501   4.616   3.178 -0.4073  0.1608  0.6312
 1249TIP3    H225163   0.349   4.611   3.178 -0.4250  0.0881 -1.3363
 1250TIP3   OH225164   6.354   1.345  13.007  0.0862  0.3980  0.0329
 1250TIP3    H125165   6.295   1.278  12.973  1.9034 -0.6410 -1.2328
 1250TIP3    H225166   6.421   1.296  13.056  0.3839  1.4687  0.7377
 1251TIP3   OH225167   3.378   3.715   1.418  0.2037 -0.1937  0.2149
 1251TIP3    H125168   3.347   3.658   1.488 -0.1726 -1.2728 -0.7891
 1251TIP3    H225169   3.452   3.668   1.380 -0.9497 -0.7556 -1.5146
 1252TIP3   OH225170   1.102   6.321  15.896  0.0254 -0.1851  0.0404
 1252TIP3    H125171   1.017   6.341  15.936 -0.2205 -0.9313 -0.0959
 1252TIP3    H225172   1.089   6.341  15.803  0.5265  1.3275  0.2744
 1253TIP3   OH225173   4.029   0.661  17.122  0.0688  0.1485 -0.8884
 1253TIP3    H125174   4.085   0.699  17.190 -1.5294  0.8545  0.1182
 1253TIP3    H225175   4.064   0.574  17.107  1.4845  0.6053 -0.3928
 1254TIP3   OH225176   3.885   0.090  17.096 -0.1257  0.9116 -0.5983
 1254TIP3    H125177   3.790   0.098  17.104  0.0105  0.7052  1.8743
 1254TIP3    H225178   3.917   0.180  17.102 -0.0715  0.8264  0.4674
 1255TIP3   OH225179   2.207   3.585   3.077  0.3106 -0.3851  0.2928
 1255TIP3    H125180   2.179   3.653   3.017  0.7487 -0.3524  0.1190
 1255TIP3    H225181   2.244   3.633   3.151  1.4272 -0.4277 -0.2190
 1256TIP3   OH225182   4.782   0.163   3.107  0.1680  0.0495  0.1417
 1256TIP3    H125183   4.710   0.111   3.142 -0.3858  0.6485 -0.0733
 1256TIP3    H225184   4.855   0.102   3.099  0.0660 -0.2950  1.5538
 1257TIP3   OH225185   1.745   4.549   3.449 -0.5352  0.0040 -0.4282
 1257TIP3    H125186   1.835   4.564   3.476 -0.6191 -1.8364  1.0708
 1257TIP3    H225187   1.695   4.621   3.488 -0.1136 -0.6350  1.3930
 1258TIP3   OH225188   0.001   5.646  12.320 -0.1300 -0.2894 -0.5987
 1258TIP3    H125189   0.055   5.616  12.393 -0.4135 -0.1572 -0.3264
 1258TIP3    H225190  -0.082   5.599  12.331 -0.5603  0.5379 -0.1920
 1259TIP3   OH225191   3.211   3.516  14.363 -0.4269 -0.1985  0.0109
 1259TIP3    H125192   3.224   3.602  14.401  0.4399 -0.2364 -0.1866
 1259TIP3    H225193   3.136   3.480  14.410 -0.5881  0.5271  0.3194
 1260TIP3   OH225194   0.435   3.498   3.302 -0.1672  0.3514  0.6540
 1260TIP3    H125195   0.523   3.520   3.332  0.9963 -2.0466 -0.7140
 1260TIP3    H225196   0.377   3.549   3.358  2.0671  1.9178  1.6829
 1261TIP3   OH225197   5.117   5.718  12.572  0.1649 -0.8386 -0.2285
 1261TIP3    H125198   5.096   5.625  12.579 -1.5552 -0.7785 -3.0036
 1261TIP3    H225199   5.069   5.759  12.644 -0.3178 -1.9093  0.0825
 1262TIP3   OH225200   2.241   5.534   4.959  0.5492 -0.1619 -0.0972
 1262TIP3    H125201   2.321   5.500   4.918 -0.8927 -0.3246 -3.0175
 1262TIP3    H225202   2.264   5.624   4.984  1.3347  0.2668 -2.1128
 1263TIP3   OH225203   2.324   2.971   1.667 -0.1574 -0.3748  0.0226
 1263TIP3    H125204   2.342   3.003   1.755  2.2212 -0.6755 -0.2759
 1263TIP3    H225205   2.343   2.877   1.671  1.7137 -0.1044 -1.1508
 1264TIP3   OH225206   0.895   2.585  13.906  0.2458 -0.3947 -0.0347
 1264TIP3    H125207   0.856   2.594  13.819 -1.0782  2.1675  0.7227
 1264TIP3    H225208   0.822   2.597  13.967  1.5321  0.5026  1.4201
 1265TIP3   OH225209   2.234   5.778  15.281 -0.4664 -0.4076 -0.4721
 1265TIP3    H125210   2.258   5.750  15.193 -1.1193 -0.6831 -0.5652
 1265TIP3    H225211   2.141   5.797  15.276 -0.2155  1.0299 -0.2083
 1266TIP3   OH225212   4.519   5.871   5.182 -0.2165  0.0586  0.1057
 1266TIP3    H125213   4.560   5.827   5.107 -0.7326  0.4481 -0.4139
 1266TIP3    H225214   4.569   5.952   5.192  1.3738 -1.0448  1.6823
 1267TIP3   OH225215   6.397   1.635  11.991  0.5247  0.6123 -0.5542
 1267TIP3    H125216   6.468   1.668  11.936  1.5599 -2.1745 -1.1006
 1267TIP3    H225217   6.341   1.586  11.932  0.5163 -0.7279  0.5047
 1268TIP3   OH225218   6.737   4.563  11.221 -0.8397 -0.4404  0.5157
 1268TIP3    H125219   6.831   4.576  11.204 -0.6625  0.0478  1.7365
 1268TIP3    H225220   6.725   4.593  11.311 -2.5775  1.5200 -0.2738
 1269TIP3   OH225221   2.283   4.542   1.191  0.1149  0.7900  0.6344
 1269TIP3    H125222   2.355   4.598   1.217 -0.9311  2.1543  0.6709
 1269TIP3    H225223   2.217   4.554   1.258  0.0873 -0.9827  0.9779
 1270TIP3   OH225224   1.844   4.287   1.297  0.3224 -0.0096  0.7517
 1270TIP3    H125225   1.929   4.253   1.271 -0.4430 -1.4140  0.0078
 1270TIP3    H225226   1.787   4.211   1.301 -0.9841  0.9327  0.9692
 1271TIP3   OH225227   0.524   0.500  14.378  0.1449 -0.1766  0.4217
 1271TIP3    H125228   0.554   0.485  14.468 -0.6021  0.0967  0.7181
 1271TIP3    H225229   0.432   0.523  14.387 -0.2824 -1.3955 -0.5028
 1272TIP3   OH225230   0.178   6.368   0.059  0.2732 -0.2280 -0.0473
 1272TIP3    H125231   0.121   6.399  -0.012  2.0432  1.1640 -0.9614
 1272TIP3    H225232   0.224   6.293   0.022 -0.0406 -0.5625  0.2378
 1273TIP3   OH225233   1.262   5.895   2.626  0.0610  0.4476 -0.5202
 1273TIP3    H125234   1.348   5.859   2.647 -0.3923 -0.1635  0.3513
 1273TIP3    H225235   1.216   5.824   2.581  0.1986  0.9635 -1.5036
 1274TIP3   OH225236   0.808   4.639   0.346 -0.2400 -0.2781  0.0491
 1274TIP3    H125237   0.808   4.734   0.350 -1.1931 -0.2353 -0.5892
 1274TIP3    H225238   0.715   4.615   0.345 -0.0108 -1.2098  0.2266
 1275TIP3   OH225239   0.825   1.758  12.455  0.0907 -0.5550  0.7434
 1275TIP3    H125240   0.754   1.699  12.428 -0.5575  0.0478  1.0859
 1275TIP3    H225241   0.793   1.845  12.432  0.6856 -0.2690  0.9897
 1276TIP3   OH225242   2.181   1.410  11.902 -0.1810 -0.2094 -0.2382
 1276TIP3    H125243   2.164   1.335  11.959 -1.3816  0.4507  0.3248
 1276TIP3    H225244   2.262   1.447  11.934 -0.3957 -0.3542  0.4992
 1277TIP3   OH225245   0.398   6.688  15.002 -0.9561  0.2604 -0.9082
 1277TIP3    H125246   0.456   6.625  14.960 -1.0937  0.5002 -1.4623
 1277TIP3    H225247   0.456   6.760  15.027 -0.8150 -0.0413 -0.3597
 1278TIP3   OH225248   4.423   2.516  13.055  0.1218  0.3195 -0.4773
 1278TIP3    H125249   4.394   2.426  13.069 -0.8190  0.6175 -0.4452
 1278TIP3    H225250   4.497   2.528  13.115  1.4650 -0.9893 -1.7775
 1279TIP3   OH225251   1.147   4.238   2.547 -0.3529  0.1024  0.3663
 1279TIP3    H125252   1.179   4.189   2.623  0.1798 -2.8422 -1.5740
 1279TIP3    H225253   1.191   4.322   2.553  0.2916 -0.3093  2.8564
 1280TIP3   OH225254   6.650   4.311  12.544 -0.3869  0.0585  0.1867
 1280TIP3    H125255   6.622   4.400  12.524  1.0708  1.0509  2.2310
 1280TIP3    H225256   6.587   4.280  12.609  0.1277  0.2719  0.7912
 1281TIP3   OH225257   2.298   4.188  13.554 -0.5893 -0.0912  0.3664
 1281TIP3    H125258   2.359   4.196  13.481 -1.7240 -0.9996 -0.7103
 1281TIP3    H225259   2.307   4.270  13.602  0.1708  0.5171 -0.7863
 1282TIP3   OH225260   5.623   6.211   2.302  0.2265 -0.0893  0.1398
 1282TIP3    H125261   5.657   6.156   2.373 -0.5031  0.0486  0.6115
 1282TIP3    H225262   5.602   6.149   2.233 -0.6128 -0.4347  0.6788
 1283TIP3   OH225263   6.150   3.914  15.622  0.0871  0.1799  0.2008
 1283TIP3    H125264   6.113   3.897  15.709 -1.8875 -0.6238 -0.7284
 1283TIP3    H225265   6.147   4.009  15.613 -0.0764  0.2408  0.8489
 1284TIP3   OH225266   0.518   1.289  13.463 -0.1843  0.7959 -0.1512
 1284TIP3    H125267   0.453   1.257  13.525 -0.4102  1.2849 -0.1336
 1284TIP3    H225268   0.468   1.316  13.387 -0.0222  1.3165 -0.0807
 1285TIP3   OH225269   2.613   5.979   3.652  0.3916 -0.1089 -0.2952
 1285TIP3    H125270   2.527   5.952   3.685  0.1998  0.0609 -0.6430
 1285TIP3    H225271   2.599   5.991   3.558  0.6561  0.4519 -0.2706
 1286TIP3   OH225272   6.352   6.365  10.830 -0.1228  0.0285 -0.0553
 1286TIP3    H125273   6.371   6.301  10.898 -0.3076  0.1284  0.0946
 1286TIP3    H225274   6.326   6.444  10.879  1.9595  0.8570 -0.1734
 1287TIP3   OH225275   6.506   1.303   0.985  0.4010  0.8564  0.1273
 1287TIP3    H125276   6.551   1.257   0.915 -0.3151  1.1858 -0.5754
 1287TIP3    H225277   6.558   1.382   1.000  1.4097  0.0533  1.0616
 1288TIP3   OH225278   2.925   6.006  14.383  0.6205 -0.1534 -0.5152
 1288TIP3    H125279   2.957   6.073  14.443  0.4411 -0.6791  0.1744
 1288TIP3    H225280   2.967   6.027  14.300  0.9993  0.4842 -0.1734
 1289TIP3   OH225281   5.053   1.214   0.076 -0.4897  0.4531 -0.1338
 1289TIP3    H125282   5.124   1.275   0.093 -0.9682  1.2351 -0.9144
 1289TIP3    H225283   5.019   1.238  -0.010 -3.5450  1.9736  1.3140
 1290TIP3   OH225284   0.734   4.624  14.357  0.1272  0.2165  0.7043
 1290TIP3    H125285   0.719   4.530  14.363  0.5216  0.0740 -0.3196
 1290TIP3    H225286   0.812   4.639  14.410  1.5597 -0.4588 -1.0763
 1291TIP3   OH225287   3.845   3.053   3.675  0.5965 -0.1004 -0.1163
 1291TIP3    H125288   3.910   3.084   3.738  2.4944  0.2918 -2.1418
 1291TIP3    H225289   3.787   3.128   3.661 -2.4452 -1.3092  3.9718
 1292TIP3   OH225290   0.787   5.450  14.655 -0.1474  0.5470 -0.3341
 1292TIP3    H125291   0.779   5.417  14.565 -0.7457 -0.4813  0.0837
 1292TIP3    H225292   0.853   5.520  14.648  2.1665 -1.5668 -1.0539
 1293TIP3   OH225293   5.254   6.477   0.389  0.9486  0.3316  0.0953
 1293TIP3    H125294   5.280   6.386   0.405  0.5911  0.0342 -0.9374
 1293TIP3    H225295   5.324   6.513   0.336  0.9086  0.5548  0.1922
 1294TIP3   OH225296   6.014   0.992   2.701  0.5624  0.2569 -0.4243
 1294TIP3    H125297   6.037   1.023   2.614  0.5769  2.5583  0.3175
 1294TIP3    H225298   5.921   0.972   2.697  0.1547  2.0335 -0.5767
 1295TIP3   OH225299   6.428   6.529   6.398 -0.3126 -0.3917  0.0637
 1295TIP3    H125300   6.492   6.507   6.465  0.3655  0.4258 -0.3071
 1295TIP3    H225301   6.479   6.561   6.325 -1.0259 -1.4885 -0.9578
 1296TIP3   OH225302   3.303   0.656   2.338 -0.4620 -0.4828  0.6646
 1296TIP3    H125303   3.341   0.606   2.411 -2.5365 -1.5608  1.0691
 1296TIP3    H225304   3.255   0.727   2.379  1.4524  1.2225  0.1275
 1297TIP3   OH225305   4.153   6.062  11.951  0.2872  0.1288 -0.0435
 1297TIP3    H125306   4.239   6.022  11.960  0.8774  1.1517 -0.8952
 1297TIP3    H225307   4.146   6.085  11.858 -1.2613 -0.7025 -0.1694
 1298TIP3   OH225308   6.217   1.300   5.669 -0.1066 -0.4681  0.0904
 1298TIP3    H125309   6.234   1.248   5.747  0.7780 -0.8693 -0.3511
 1298TIP3    H225310   6.152   1.364   5.696  1.4944  0.5820  1.6792
 1299TIP3   OH225311   0.854   2.553  12.169 -0.5130  0.0337  0.2354
 1299TIP3    H125312   0.928   2.598  12.127  0.1749  1.3545  2.6823
 1299TIP3    H225313   0.865   2.461  12.144  2.7939 -0.0589  1.4985
 1300TIP3   OH225314   4.109   1.830  13.269 -0.3463  0.6600  0.3547
 1300TIP3    H125315   4.171   1.783  13.212 -0.7916  1.2680 -0.6579
 1300TIP3    H225316   4.023   1.807  13.235 -0.7714 -0.7396  2.1856
 1301TIP3   OH225317   3.623   2.237   4.298  0.3369  0.2928  0.4391
 1301TIP3    H125318   3.667   2.152   4.294 -0.0195  0.1178  0.2353
 1301TIP3    H225319   3.587   2.249   4.210 -0.6046  0.1315  0.7999
 1302TIP3   OH225320   4.566   5.513  13.880  0.1419  0.7812 -0.5427
 1302TIP3    H125321   4.555   5.448  13.811  2.7054 -1.4753  0.9809
 1302TIP3    H225322   4.656   5.543  13.870  0.6680  0.1789  1.9487
 1303TIP3   OH225323   2.705   1.671   1.506  0.2629  0.2091 -0.3448
 1303TIP3    H125324   2.723   1.640   1.595  1.8725  1.0429 -0.3391
 1303TIP3    H225325   2.626   1.725   1.515 -0.0983 -0.4145  0.3954
 1304TIP3   OH225326   6.061   6.529  16.432 -0.0898  0.0585 -0.2909
 1304TIP3    H125327   6.035   6.437  16.426  1.2763 -0.5359  1.7515
 1304TIP3    H225328   6.052   6.563  16.343 -0.9469 -1.9506 -1.0273
 1305TIP3   OH225329   0.603   5.530  13.247  0.6482 -0.9814  0.0561
 1305TIP3    H125330   0.636   5.598  13.307 -1.0369  0.0005 -0.0546
 1305TIP3    H225331   0.572   5.461  13.305 -2.3452  0.5942  0.5078
 1306TIP3   OH225332   2.256   5.090  14.507  0.1481 -0.4956 -0.4230
 1306TIP3    H125333   2.289   5.099  14.596  1.5719 -0.2551 -0.9455
 1306TIP3    H225334   2.168   5.053  14.517 -0.0804  0.4066  1.1045
 1307TIP3   OH225335   4.215   6.301  12.550 -0.0745  0.0416  0.0527
 1307TIP3    H125336   4.166   6.348  12.483 -0.2883 -2.0334 -1.3282
 1307TIP3    H225337   4.305   6.329  12.537 -0.4454  1.6573  0.6865
 1308TIP3   OH225338   5.314   2.932  12.519  0.2413 -0.2621 -0.0474
 1308TIP3    H125339   5.370   3.010  12.512  1.2118 -0.5455  2.9589
 1308TIP3    H225340   5.326   2.886  12.436  2.0832  1.2353 -0.6885
 1309TIP3   OH225341   1.934   0.220   3.185 -0.4283 -0.2786 -0.1346
 1309TIP3    H125342   1.982   0.137   3.185 -0.2739 -0.1953 -0.8188
 1309TIP3    H225343   1.912   0.235   3.277  1.5760  0.0883  0.3324
 1310TIP3   OH225344   1.056   0.840   0.621 -0.2332  0.0229  0.0245
 1310TIP3    H125345   1.007   0.820   0.541 -0.1896 -2.0322  0.4571
 1310TIP3    H225346   1.112   0.764   0.635 -0.4076  0.2150  2.1318
 1311TIP3   OH225347   0.809   4.430   0.151  0.0926 -0.1301  0.6025
 1311TIP3    H125348   0.814   4.524   0.167 -1.8913 -0.2823  2.5902
 1311TIP3    H225349   0.722   4.405   0.180 -0.5649 -2.1621 -2.6294
 1312TIP3   OH225350   4.350   5.799  13.405 -0.3164  0.0162  0.1902
 1312TIP3    H125351   4.383   5.730  13.462  1.0801  1.4677  1.2347
 1312TIP3    H225352   4.254   5.791  13.411 -0.2442  0.1046  2.8144
 1313TIP3   OH225353   2.868   0.841   4.869  0.0584 -0.0038  0.4093
 1313TIP3    H125354   2.795   0.813   4.815  0.4396  1.1202 -0.7468
 1313TIP3    H225355   2.858   0.936   4.877  0.8686  0.0497  1.0277
 1314TIP3   OH225356   0.230   6.019   1.246  0.3202 -0.0822 -0.5702
 1314TIP3    H125357   0.300   6.076   1.278 -0.5453  0.6982 -0.0258
 1314TIP3    H225358   0.269   5.973   1.172  2.0362 -1.1179  0.8825
 1315TIP3   OH225359   4.430   0.214  14.022  0.3672 -0.8308  0.2764
 1315TIP3    H125360   4.510   0.162  14.034  0.7643 -1.5089 -3.7864
 1315TIP3    H225361   4.461   0.304  14.014  0.4677 -0.8199  0.7753
 1316TIP3   OH225362   6.656   5.640  15.057  0.5697  0.6203 -0.4781
 1316TIP3    H125363   6.604   5.653  15.136  0.3697 -0.0567 -0.4999
 1316TIP3    H225364   6.600   5.671  14.986  0.4148  0.4066 -0.4473
 1317TIP3   OH225365   0.066   4.540   4.216  0.1313 -0.0473  0.0961
 1317TIP3    H125366   0.085   4.451   4.244 -1.1323 -0.2390  0.4238
 1317TIP3    H225367   0.151   4.585   4.216  0.7213 -1.1465  0.2667
 1318TIP3   OH225368   4.038   2.361  13.215 -0.0342  0.4940  0.5391
 1318TIP3    H125369   4.012   2.278  13.256 -1.6636 -0.6150 -2.4470
 1318TIP3    H225370   4.067   2.336  13.128  1.7020  2.8906  0.3296
 1319TIP3   OH225371   4.411   6.169  13.862  0.5269 -0.8670 -0.6030
 1319TIP3    H125372   4.472   6.191  13.791 -1.9722  1.0116 -2.3281
 1319TIP3    H225373   4.467   6.163  13.940  3.0546 -0.4351 -2.2504
 1320TIP3   OH225374   5.947   3.807  13.950 -0.2919  0.2279  0.0832
 1320TIP3    H125375   5.970   3.742  13.884 -2.3180  0.3724 -0.8104
 1320TIP3    H225376   5.893   3.871  13.904  0.3056  1.7090  1.3216
 1321TIP3   OH225377   3.798   5.260  11.616  0.5431  0.4329 -0.0038
 1321TIP3    H125378   3.814   5.307  11.697  0.2132 -1.2305  1.0786
 1321TIP3    H225379   3.703   5.254  11.610  0.5555 -1.5230  0.8180
 1322TIP3   OH225380   0.926   6.464  17.254  0.4021 -0.0889  0.0253
 1322TIP3    H125381   0.894   6.501  17.172 -0.1103 -0.4150  0.0725
 1322TIP3    H225382   1.015   6.499  17.264  0.4913 -0.1058 -0.6959
 1323TIP3   OH225383   2.839   1.569  16.278  0.4140  0.1669  0.0822
 1323TIP3    H125384   2.855   1.488  16.326 -0.4852  0.2945  0.6295
 1323TIP3    H225385   2.748   1.561  16.248  0.1846  1.1519  0.5012
 1324TIP3   OH225386   6.642   3.062  15.322 -0.5006  0.0941  0.0069
 1324TIP3    H125387   6.587   3.120  15.373 -0.3599  1.0103 -0.8678
 1324TIP3    H225388   6.706   3.119  15.280 -0.7413 -0.6000 -1.3651
 1325TIP3   OH225389   4.669   5.500  14.172 -0.5697  0.2180 -0.2314
 1325TIP3    H125390   4.580   5.485  14.205 -0.6464  2.0050  0.5137
 1325TIP3    H225391   4.656   5.521  14.079 -0.7825 -0.7177 -0.4251
 1326TIP3   OH225392   3.195   3.394   1.490  0.5049  0.1627  0.2848
 1326TIP3    H125393   3.290   3.380   1.486  1.0532  2.8186  1.5375
 1326TIP3    H225394   3.185   3.469   1.550 -2.2268  1.3103 -1.4324
 1327TIP3   OH225395   0.042   4.696  16.129 -0.1824  0.5935  0.5822
 1327TIP3    H125396  -0.018   4.624  16.149 -0.8599  0.8987 -0.3281
 1327TIP3    H225397   0.102   4.660  16.063  1.4496 -0.1051  2.3502
 1328TIP3   OH225398   3.689   5.318  12.954 -0.4954 -0.3009 -0.0574
 1328TIP3    H125399   3.605   5.273  12.950 -0.1906 -0.9521  0.6087
 1328TIP3    H225400   3.747   5.257  13.000  0.0871  0.5176  0.3228
 1329TIP3   OH225401   1.572   6.446   4.457 -0.1999  0.5238 -0.1111
 1329TIP3    H125402   1.480   6.432   4.479  0.0470  0.0824  0.6504
 1329TIP3    H225403   1.620   6.431   4.538  0.7719 -1.5796 -0.9954
 1330TIP3   OH225404   6.393   5.356  16.562 -0.2672  0.2396  0.3373
 1330TIP3    H125405   6.473   5.333  16.515  0.6841 -0.7270  2.2961
 1330TIP3    H225406   6.323   5.347  16.497  0.8751 -1.6946 -0.7280
 1331TIP3   OH225407   3.319   5.135  12.570 -0.3455 -0.8631 -0.6174
 1331TIP3    H125408   3.229   5.112  12.548 -0.6772 -0.5163  0.3047
 1331TIP3    H225409   3.349   5.189  12.497 -0.9398 -0.8501 -0.8568
 1332TIP3   OH225410   5.218   0.626  11.639  0.3531 -0.4813  0.4082
 1332TIP3    H125411   5.202   0.720  11.636 -0.1775 -0.5788 -1.4307
 1332TIP3    H225412   5.134   0.587  11.614  0.9318 -1.3686 -0.1985
 1333TIP3   OH225413   1.654   1.498  16.987  0.2253 -0.2826  0.1105
 1333TIP3    H125414   1.592   1.434  17.022 -0.9179  0.2854 -0.8190
 1333TIP3    H225415   1.722   1.505  17.054  1.0131 -3.3034 -0.2096
 1334TIP3   OH225416   6.005   4.130   6.346 -0.1339  0.9042  0.5199
 1334TIP3    H125417   6.066   4.203   6.331 -0.8950  1.4196 -0.1721
 1334TIP3    H225418   5.981   4.138   6.438  0.8181  0.7086  0.7949
 1335TIP3   OH225419   4.295   3.013  14.349  0.5524 -0.0502  0.0991
 1335TIP3    H125420   4.211   3.013  14.303  0.3694  1.1625  0.3876
 1335TIP3    H225421   4.357   2.978  14.285 -0.2054 -1.2781 -0.0059
 1336TIP3   OH225422   2.199   1.099   4.389  0.7926 -0.3898  0.1656
 1336TIP3    H125423   2.117   1.104   4.340  0.9141 -1.1851 -0.1342
 1336TIP3    H225424   2.208   1.185   4.430  0.4476  0.1253 -0.8187
 1337TIP3   OH225425   1.903   1.334   1.711 -0.2200  0.0761 -0.3161
 1337TIP3    H125426   1.843   1.401   1.677 -1.8230 -1.4345 -0.6374
 1337TIP3    H225427   1.869   1.314   1.798 -0.8028 -1.4690 -0.8687
 1338TIP3   OH225428   5.548   5.555  10.806 -0.4801 -0.1947  0.8781
 1338TIP3    H125429   5.497   5.611  10.865 -1.8521  0.5917 -0.9441
 1338TIP3    H225430   5.634   5.549  10.847 -1.5197 -0.1788  3.2201
 1339TIP3   OH225431   1.612   2.957  11.132 -0.0236  0.1411 -0.0283
 1339TIP3    H125432   1.576   2.980  11.047 -0.0960  0.2624  0.0348
 1339TIP3    H225433   1.686   2.900  11.113  0.7493  1.1840 -0.2294
 1340TIP3   OH225434   4.806   0.807  13.015 -0.0721  0.8029 -0.3515
 1340TIP3    H125435   4.799   0.901  13.031 -0.6026  0.8080 -0.6170
 1340TIP3    H225436   4.753   0.791  12.937  0.4802  0.3742 -0.6564
 1341TIP3   OH225437   6.444   1.129   2.679 -0.6396  0.0878 -0.1504
 1341TIP3    H125438   6.465   1.196   2.744 -0.7535 -0.1921  0.1723
 1341TIP3    H225439   6.514   1.065   2.686 -1.2447 -0.5288  0.4975
 1342TIP3   OH225440   4.303   2.652   1.078 -0.2702  0.7150 -0.1663
 1342TIP3    H125441   4.351   2.733   1.063  0.6817  0.2202  0.0492
 1342TIP3    H225442   4.276   2.622   0.991  0.0972  0.8446 -0.3257
 1343TIP3   OH225443   5.335   0.919  12.772  0.3635  0.0062  0.4302
 1343TIP3    H125444   5.319   0.882  12.686  0.2612  0.9123  0.0424
 1343TIP3    H225445   5.358   0.844  12.827  1.0181 -0.5163 -0.5178
 1344TIP3   OH225446   0.594   0.853  14.239  0.1632 -0.5522 -0.0525
 1344TIP3    H125447   0.689   0.867  14.231 -0.1306  1.8050 -0.0564
 1344TIP3    H225448   0.581   0.827  14.330  0.6915  0.6938  0.4054
 1345TIP3   OH225449   6.054   2.032  12.658  0.0683 -0.1974  0.2500
 1345TIP3    H125450   5.975   2.017  12.709  0.0156  0.6350  0.4402
 1345TIP3    H225451   6.038   1.987  12.575 -0.3000 -0.6434  0.5640
 1346TIP3   OH225452   4.671   2.760   5.874  0.0178 -0.6342  0.2938
 1346TIP3    H125453   4.716   2.838   5.906 -0.9470  1.9875 -4.0011
 1346TIP3    H225454   4.736   2.715   5.820 -0.1665 -1.5413  0.7959
 1347TIP3   OH225455   6.186   1.287  15.445  0.3762  0.9754 -0.1991
 1347TIP3    H125456   6.240   1.360  15.413  2.6005 -0.4068  0.1598
 1347TIP3    H225457   6.120   1.328  15.500  2.8628  2.6403  1.7572
 1348TIP3   OH225458   0.028   1.808  13.977  0.0270 -0.2400 -1.0002
 1348TIP3    H125459   0.099   1.791  13.916  3.1564  1.2243  1.8817
 1348TIP3    H225460   0.020   1.904  13.978 -1.4677 -0.3492 -0.6700
 1349TIP3   OH225461   0.209   5.736  11.467 -0.1498  0.0518  0.3008
 1349TIP3    H125462   0.194   5.671  11.536  0.6063 -1.5155 -0.9343
 1349TIP3    H225463   0.125   5.779  11.455 -1.2173 -2.0144 -0.0928
 1350TIP3   OH225464   1.159   4.785  12.390  0.0522 -0.3805 -0.0445
 1350TIP3    H125465   1.130   4.709  12.339  2.4999 -0.4330 -1.5125
 1350TIP3    H225466   1.136   4.861  12.337  1.4885 -0.3712 -0.7008
 1351TIP3   OH225467   0.996   4.741  15.331  0.3569  0.2040  0.0682
 1351TIP3    H125468   1.028   4.714  15.418  1.4373  1.2003  0.0062
 1351TIP3    H225469   1.069   4.791  15.294 -0.8665  1.5639 -0.5688
 1352TIP3   OH225470   2.327   2.367   4.019 -0.5045  1.0860 -0.2357
 1352TIP3    H125471   2.353   2.458   4.003 -0.5930  1.5963  2.1528
 1352TIP3    H225472   2.378   2.341   4.096 -1.2686 -0.5519 -0.2438
 1353TIP3   OH225473   0.976   2.989   2.580  0.2874 -0.0815 -0.5580
 1353TIP3    H125474   1.024   2.986   2.663 -0.6255 -0.1168 -0.0101
 1353TIP3    H225475   0.968   3.082   2.560 -0.0591 -0.0423 -0.2548
 1354TIP3   OH225476   6.164   4.413   3.997 -0.1668 -0.2141  0.3439
 1354TIP3    H125477   6.146   4.363   4.076 -2.1471 -1.4669 -0.8142
 1354TIP3    H225478   6.192   4.348   3.932 -0.8858  0.4068 -0.6304
 1355TIP3   OH225479   2.703   0.553  11.243  0.2570  0.5458 -1.0163
 1355TIP3    H125480   2.666   0.539  11.156  1.2036  3.2999 -1.9802
 1355TIP3    H225481   2.678   0.642  11.265  0.1136 -0.0585  1.5606
 1356TIP3   OH225482   5.322   0.200  10.836 -0.2461  0.2111  0.6992
 1356TIP3    H125483   5.226   0.199  10.839 -0.4079 -0.0762 -2.1836
 1356TIP3    H225484   5.345   0.141  10.765  2.1149  0.1111  1.4527
 1357TIP3   OH225485   3.151   3.661   2.086  0.2292 -0.6247  0.0196
 1357TIP3    H125486   3.066   3.662   2.130 -0.4742 -2.0848 -1.2286
 1357TIP3    H225487   3.173   3.754   2.076 -1.4869 -0.1870 -0.1261
 1358TIP3   OH225488   2.984   0.203  13.000  0.0459 -0.3602  0.2607
 1358TIP3    H125489   2.903   0.151  13.000  0.4007 -0.9197  0.6169
 1358TIP3    H225490   2.960   0.284  13.044 -0.6595  0.0147 -0.7866
 1359TIP3   OH225491   1.293   5.330  14.322 -0.3630 -0.2518 -0.0883
 1359TIP3    H125492   1.379   5.298  14.296 -0.8594 -1.9164  0.1737
 1359TIP3    H225493   1.300   5.426  14.319  1.0284 -0.3642 -1.5211
 1360TIP3   OH225494   3.239   1.038  11.597 -0.4182 -0.2044  0.4605
 1360TIP3    H125495   3.217   1.122  11.555 -1.0887 -1.3744 -1.6812
 1360TIP3    H225496   3.156   1.007  11.633 -0.8216 -1.1983 -1.2096
 1361TIP3   OH225497   4.901   2.369   6.653 -0.8883 -0.2994  0.2834
 1361TIP3    H125498   4.893   2.350   6.746 -0.1677 -1.4241  0.1283
 1361TIP3    H225499   4.914   2.464   6.649 -0.0277 -0.3562  1.3795
 1362TIP3   OH225500   3.764   1.492   2.403 -0.6977 -0.1750  0.3143
 1362TIP3    H125501   3.708   1.443   2.344 -0.2184  0.8220 -1.0303
 1362TIP3    H225502   3.740   1.584   2.388  1.2869  0.2909 -0.3719
 1363TIP3   OH225503   3.268   5.764   0.687 -0.2733  0.1578  0.3486
 1363TIP3    H125504   3.267   5.695   0.621  0.1912  1.9398 -1.6230
 1363TIP3    H225505   3.315   5.726   0.761  0.1117 -1.5776 -0.7419
 1364TIP3   OH225506   5.975   3.736   4.759 -0.4915  0.2859  0.3579
 1364TIP3    H125507   6.039   3.759   4.827 -0.7665 -0.1671  0.7783
 1364TIP3    H225508   5.998   3.792   4.685  1.9275 -1.5119 -0.3997
 1365TIP3   OH225509   3.610   3.683   5.609  0.2493  0.5277 -0.6467
 1365TIP3    H125510   3.683   3.700   5.550 -1.0738  2.3678 -1.8871
 1365TIP3    H225511   3.558   3.616   5.566  1.2809 -1.0012  0.3776
 1366TIP3   OH225512   5.741   0.814   5.472  0.2935 -0.5109 -0.0385
 1366TIP3    H125513   5.774   0.881   5.532 -0.1817  0.7704 -1.1478
 1366TIP3    H225514   5.816   0.758   5.454  0.7975 -0.0614  0.6390
 1367TIP3   OH225515   2.319   1.374   4.191 -0.5702 -0.6524  0.1386
 1367TIP3    H125516   2.358   1.317   4.257 -0.1087 -0.6729 -0.1527
 1367TIP3    H225517   2.344   1.463   4.218  1.8993 -0.7856 -1.4480
 1368TIP3   OH225518   1.878   5.516   6.796 -0.2929 -0.4111 -0.0895
 1368TIP3    H125519   1.876   5.487   6.705 -2.0517 -4.3847  1.0263
 1368TIP3    H225520   1.971   5.534   6.813  0.1346 -0.0095 -2.4526
 1369TIP3   OH225521   1.398   2.448   4.890 -0.0970  0.1119  0.6602
 1369TIP3    H125522   1.459   2.511   4.928 -2.2143  2.5028  0.4125
 1369TIP3    H225523   1.441   2.417   4.811  0.6646  2.0696  0.2421
 1370TIP3   OH225524   3.346   0.523  12.487 -0.2984  0.1175  0.1802
 1370TIP3    H125525   3.342   0.579  12.564  1.9499 -0.7850  1.0282
 1370TIP3    H225526   3.382   0.579  12.418  2.4020 -0.2700  1.1434
 1371TIP3   OH225527   4.357   3.987  16.517 -0.0926 -0.8247  0.4422
 1371TIP3    H125528   4.372   3.945  16.432 -2.4371  0.3153 -0.6180
 1371TIP3    H225529   4.444   4.003  16.552  1.0253  0.2605 -2.5568
 1372TIP3   OH225530   3.870   2.397  11.952  0.4107 -0.1346  0.5709
 1372TIP3    H125531   3.960   2.403  11.919  0.6319 -1.3351  0.9293
 1372TIP3    H225532   3.817   2.387  11.873  0.6800 -0.2880  0.4064
 1373TIP3   OH225533   0.114   2.062  14.015  0.3966 -0.7889 -0.2426
 1373TIP3    H125534   0.138   2.083  14.105 -0.3122 -0.5273 -0.1067
 1373TIP3    H225535   0.187   2.096  13.962  0.2048  0.2459  0.1314
 1374TIP3   OH225536   6.666   5.855  13.111 -0.7084 -0.0380  0.3146
 1374TIP3    H125537   6.720   5.934  13.101  0.5668 -0.6395  1.9675
 1374TIP3    H225538   6.728   5.788  13.138 -2.0117 -1.2720  0.3169
 1375TIP3   OH225539   5.704   4.860   0.091  0.1055  0.0457 -0.1866
 1375TIP3    H125540   5.722   4.915   0.015 -0.0038  0.9118  0.3933
 1375TIP3    H225541   5.611   4.875   0.110  0.2929  0.3475  0.5098
 1376TIP3   OH225542   5.842   4.076   0.300 -0.1026 -0.0027 -0.1204
 1376TIP3    H125543   5.835   4.060   0.206  0.5203  1.5182 -0.4431
 1376TIP3    H225544   5.932   4.050   0.322 -0.2823 -0.4622  0.0954
 1377TIP3   OH225545   6.413   0.367   4.690 -0.0336 -0.5036  0.3635
 1377TIP3    H125546   6.350   0.431   4.657  0.5489 -0.2148 -0.2179
 1377TIP3    H225547   6.430   0.395   4.780 -2.0185 -1.5921  1.1443
 1378TIP3   OH225548   5.848   2.250   6.170 -0.0061 -0.8765 -0.2382
 1378TIP3    H125549   5.810   2.168   6.139  1.4647 -1.2063 -1.2746
 1378TIP3    H225550   5.935   2.252   6.132  0.5548  0.4586  1.0124
 1379TIP3   OH225551   3.836   3.150  14.041  0.8108 -0.3989  0.4637
 1379TIP3    H125552   3.775   3.096  13.992  0.9609 -0.4082  0.2850
 1379TIP3    H225553   3.786   3.182  14.116 -0.1551  1.6175 -0.9731
 1380TIP3   OH225554   4.318   1.202   2.343  0.3430  0.3777 -0.5333
 1380TIP3    H125555   4.301   1.296   2.335 -2.3607  0.4246  3.2519
 1380TIP3    H225556   4.250   1.161   2.289 -1.8238  0.6985  1.7860
 1381TIP3   OH225557   5.216   3.511   1.963  1.0451 -0.4898  0.1075
 1381TIP3    H125558   5.253   3.460   1.891  1.8160  2.2946 -1.6759
 1381TIP3    H225559   5.137   3.550   1.926  0.5809 -0.2442  1.3154
 1382TIP3   OH225560   0.433   1.205   3.727  0.1444  0.1208 -0.2356
 1382TIP3    H125561   0.383   1.202   3.809 -0.7520  1.1768 -0.7130
 1382TIP3    H225562   0.522   1.229   3.754 -0.0078 -0.0933  0.4784
 1383TIP3   OH225563   6.658   6.232  13.463 -0.5876  0.3819  0.0809
 1383TIP3    H125564   6.563   6.223  13.456 -0.8057  2.9945 -2.0006
 1383TIP3    H225565   6.672   6.319  13.500  1.0920 -0.7153  2.3481
 1384TIP3   OH225566   0.367   3.273   5.403 -0.2006  0.4011 -0.3551
 1384TIP3    H125567   0.457   3.240   5.392 -0.0528  0.4008  0.7764
 1384TIP3    H225568   0.317   3.225   5.337  0.5767  0.1891 -0.8146
 1385TIP3   OH225569   5.721   2.069  15.254 -0.0527  0.1070 -0.4011
 1385TIP3    H125570   5.683   1.990  15.215 -0.0685 -0.4719  0.7360
 1385TIP3    H225571   5.763   2.114  15.181  1.3111 -1.7362 -0.8426
 1386TIP3   OH225572   2.142   4.769  13.559  0.3560 -0.0564  0.1800
 1386TIP3    H125573   2.139   4.864  13.572 -0.0005  0.0343 -0.5154
 1386TIP3    H225574   2.098   4.755  13.476  0.8309 -0.7938  0.0438
 1387TIP3   OH225575   6.022   0.543  10.911  1.0425  0.6207  0.5127
 1387TIP3    H125576   5.932   0.537  10.881  1.0193 -1.1584  0.8045
 1387TIP3    H225577   6.059   0.457  10.892  2.5293  1.1490  0.8779
 1388TIP3   OH225578   4.526   2.057  13.517 -0.1867 -0.0863 -0.3810
 1388TIP3    H125579   4.500   2.091  13.602 -1.2441 -2.9645  0.5575
 1388TIP3    H225580   4.449   2.010  13.486  1.1061 -1.4561 -1.6281
 1389TIP3   OH225581   6.490   2.632   0.482  0.6183  0.2790 -0.2557
 1389TIP3    H125582   6.558   2.568   0.459 -0.9245 -1.7232  0.4604
 1389TIP3    H225583   6.419   2.614   0.420 -1.1206 -0.9627  1.9827
 1390TIP3   OH225584   3.161   3.948   2.048 -0.3842 -0.1295  0.1306
 1390TIP3    H125585   3.096   4.017   2.059  0.5079  1.3049 -2.5792
 1390TIP3    H225586   3.245   3.993   2.057  0.2318 -1.2732  0.3098
 1391TIP3   OH225587   0.366   1.760  12.523 -0.2040 -0.3117  0.3284
 1391TIP3    H125588   0.443   1.795  12.568 -0.3191 -0.0960  0.3585
 1391TIP3    H225589   0.298   1.759  12.590 -0.5677  0.6602 -0.0146
 1392TIP3   OH225590   6.722   4.576  13.012  0.2868  0.0047 -0.2800
 1392TIP3    H125591   6.725   4.504  12.950 -1.6122 -0.9197  0.6156
 1392TIP3    H225592   6.690   4.537  13.094 -1.8071  1.9883 -0.0392
 1393TIP3   OH225593   0.441   2.910   5.327  0.1740 -0.9415 -0.4870
 1393TIP3    H125594   0.440   2.839   5.262  0.5168 -1.6665  0.2830
 1393TIP3    H225595   0.501   2.975   5.290  0.6374 -1.5001 -0.7392
 1394TIP3   OH225596   3.496   5.410   4.045 -0.7474  0.1584  0.2522
 1394TIP3    H125597   3.478   5.338   4.106 -0.0233 -0.3174 -0.0693
 1394TIP3    H225598   3.518   5.484   4.101  3.2504 -1.1028  0.7160
 1395TIP3   OH225599   6.409   2.875  14.881  0.1557  0.1636 -0.2793
 1395TIP3    H125600   6.475   2.822  14.838  0.7471  0.4992  0.2068
 1395TIP3    H225601   6.431   2.965  14.857 -0.2917  0.2607 -0.3394
 1396TIP3   OH225602   6.443   3.458   2.630  0.1869  0.7972  0.2079
 1396TIP3    H125603   6.355   3.490   2.612 -0.2265  0.8213  2.0287
 1396TIP3    H225604   6.443   3.439   2.724  1.9461  0.2270  0.1396
 1397TIP3   OH225605   6.388   3.567  10.322 -0.4902  0.3379 -0.0907
 1397TIP3    H125606   6.461   3.600  10.375  0.5354  0.9822 -1.7830
 1397TIP3    H225607   6.400   3.472  10.321 -0.3929  0.3374  0.6181
 1398TIP3   OH225608   5.498   0.071  15.574  0.3749  0.1274 -0.1144
 1398TIP3    H125609   5.530   0.143  15.627 -1.3729  0.4367  0.5821
 1398TIP3    H225610   5.470   0.112  15.492  0.0325  0.1598  0.0137
 1399TIP3   OH225611   4.635   5.627  16.912 -0.0610  0.0157  0.0656
 1399TIP3    H125612   4.724   5.660  16.925  0.5275 -0.3817 -2.3983
 1399TIP3    H225613   4.634   5.543  16.958  0.5661  0.4009  0.8091
 1400TIP3   OH225614   0.783   2.104  12.857 -0.3894 -0.2427 -0.4821
 1400TIP3    H125615   0.831   2.089  12.775 -0.0859  0.5785 -0.4699
 1400TIP3    H225616   0.691   2.101  12.832 -0.2995  1.2291 -1.1218
 1401TIP3   OH225617   0.270   6.415   6.935  0.0504  0.1025  0.2622
 1401TIP3    H125618   0.304   6.504   6.949  0.9367  0.0963 -1.5265
 1401TIP3    H225619   0.337   6.358   6.971  0.5852  0.1508 -0.6096
 1402TIP3   OH225620   3.995   1.936   1.046 -0.5714 -0.2918 -0.1273
 1402TIP3    H125621   4.091   1.940   1.040 -0.2563 -2.1594  2.1686
 1402TIP3    H225622   3.965   1.962   0.959  1.9341  1.7144 -0.5233
 1403TIP3   OH225623   5.287   6.488   4.516  0.3649  0.2128 -0.2164
 1403TIP3    H125624   5.342   6.412   4.533 -0.7294 -0.5206  0.1537
 1403TIP3    H225625   5.347   6.562   4.519  1.3346 -0.5644  0.1286
 1404TIP3   OH225626   0.422   5.163  16.195  0.0288 -0.2180  0.3861
 1404TIP3    H125627   0.396   5.254  16.191  0.2690 -0.1696 -0.1626
 1404TIP3    H225628   0.518   5.165  16.187  0.3090 -0.3522  2.8886
 1405TIP3   OH225629   0.271   0.942   3.759 -0.1091 -0.1599  0.6889
 1405TIP3    H125630   0.317   0.898   3.831  1.3299 -1.0143 -0.6879
 1405TIP3    H225631   0.316   1.026   3.750  0.6997 -0.6468 -0.1000
 1406TIP3   OH225632   4.520   0.999  15.011  0.2463  0.1782 -0.3343
 1406TIP3    H125633   4.480   0.992  14.925  1.0679  1.2050 -0.8226
 1406TIP3    H225634   4.468   1.065  15.058  1.3042  1.5319 -0.9777
 1407TIP3   OH225635   2.870   4.973  14.200 -0.1312 -0.0858  0.4602
 1407TIP3    H125636   2.953   5.018  14.182 -0.1258  1.1510  3.0735
 1407TIP3    H225637   2.804   5.040  14.184 -0.1550  0.9258  3.9312
 1408TIP3   OH225638   0.122   1.587   1.603 -0.6049 -0.6585 -0.0176
 1408TIP3    H125639   0.027   1.581   1.593 -0.7479 -0.8394  1.2265
 1408TIP3    H225640   0.149   1.498   1.626 -0.2732 -0.4005  0.6059
 1409TIP3   OH225641   2.893   2.741   6.250  0.2803  0.1187  0.2144
 1409TIP3    H125642   2.969   2.684   6.241  0.1016 -0.2136  0.7644
 1409TIP3    H225643   2.904   2.782   6.336  0.5578  1.1432 -0.2900
 1410TIP3   OH225644   0.807   1.281  16.103 -0.2171  0.5419 -0.4028
 1410TIP3    H125645   0.827   1.204  16.050  2.1438  0.9369 -0.1664
 1410TIP3    H225646   0.860   1.351  16.066  1.0461  0.9721  2.0401
 1411TIP3   OH225647   1.936   6.192   3.805  0.1307 -0.2815  0.1436
 1411TIP3    H125648   2.009   6.253   3.820 -0.1956  0.6078 -1.6443
 1411TIP3    H225649   1.888   6.192   3.888  0.3653  1.6244  0.3224
 1412TIP3   OH225650   0.261   4.801   4.791 -0.3545 -0.5306  0.5151
 1412TIP3    H125651   0.301   4.863   4.852 -0.8560  0.6250 -0.3051
 1412TIP3    H225652   0.203   4.748   4.846  0.6787 -0.8489  1.3589
 1413TIP3   OH225653   4.427   2.116   3.182 -0.1536 -0.7452 -0.2566
 1413TIP3    H125654   4.397   2.158   3.263  0.5794 -1.0189  0.1683
 1413TIP3    H225655   4.504   2.167   3.156  0.5318 -1.5829  0.0698
 1414TIP3   OH225656   4.016   5.659   5.135 -0.2140  0.2799 -0.2438
 1414TIP3    H125657   4.075   5.692   5.067  2.4459  0.4360  1.9939
 1414TIP3    H225658   3.978   5.737   5.174 -0.5479  0.2585 -0.5193
 1415TIP3   OH225659   3.551   6.579   2.108  0.5530 -0.3566  0.0055
 1415TIP3    H125660   3.565   6.521   2.183  1.1671 -1.3349 -0.8367
 1415TIP3    H225661   3.534   6.665   2.147 -1.6471 -1.3061  1.3378
 1416TIP3   OH225662   2.701   3.631   3.607 -0.0157 -0.1594 -0.1166
 1416TIP3    H125663   2.637   3.633   3.536 -1.2958  0.3132  1.0015
 1416TIP3    H225664   2.784   3.610   3.564 -0.8309 -0.3577 -1.6719
 1417TIP3   OH225665   1.725   5.121  15.487 -0.4796  0.2989  0.1928
 1417TIP3    H125666   1.746   5.152  15.575 -0.1656 -1.3591  0.7313
 1417TIP3    H225667   1.807   5.084  15.454 -1.3777 -2.2263  0.5799
 1418TIP3   OH225668   4.295   3.512   0.564  0.0893 -0.0052  0.1219
 1418TIP3    H125669   4.283   3.589   0.619  0.8689 -1.4734  2.5248
 1418TIP3    H225670   4.385   3.519   0.532 -0.5673  1.1735 -1.5910
 1419TIP3   OH225671   5.587   0.828   5.269  0.2712 -0.0611 -0.2390
 1419TIP3    H125672   5.654   0.860   5.208  0.0130 -1.0694 -1.0889
 1419TIP3    H225673   5.636   0.802   5.347  1.1721 -2.4110 -1.4809
 1420TIP3   OH225674   5.155   3.465   5.805  0.2869  0.0208  0.2359
 1420TIP3    H125675   5.201   3.481   5.722  0.3601  0.3529  0.3380
 1420TIP3    H225676   5.066   3.496   5.789 -0.6706 -2.8630 -0.7851
 1421TIP3   OH225677   1.385   6.465  14.529  0.3374 -0.1985  0.0619
 1421TIP3    H125678   1.406   6.528  14.459 -1.9829  0.2878 -0.2765
 1421TIP3    H225679   1.469   6.423  14.549  1.0167 -0.9546 -3.5898
 1422TIP3   OH225680   0.809   4.531  13.243  0.5807  0.8192  0.3158
 1422TIP3    H125681   0.754   4.453  13.234  0.0856  0.9923  1.6362
 1422TIP3    H225682   0.800   4.576  13.159  0.1557 -0.0869 -0.1367
 1423TIP3   OH225683   6.354   6.517  12.050  0.4021  0.0991 -0.2750
 1423TIP3    H125684   6.444   6.531  12.079 -0.0505  1.8259  0.4380
 1423TIP3    H225685   6.332   6.597  12.002 -1.0173  0.0806  0.3107
 1424TIP3   OH225686   0.616   0.918   2.458  0.0376 -0.3461  0.2062
 1424TIP3    H125687   0.609   0.975   2.381 -0.5680 -0.9550 -0.1937
 1424TIP3    H225688   0.578   0.969   2.529 -2.1015 -0.8845 -0.4969
 1425TIP3   OH225689   3.187   0.314  16.361  0.0641  0.1980 -0.2318
 1425TIP3    H125690   3.099   0.279  16.376  0.0482  0.7570  1.0959
 1425TIP3    H225691   3.182   0.354  16.275 -0.8779 -0.0947 -0.3295
 1426TIP3   OH225692   5.799   0.979   1.126 -0.2652 -1.3581  0.5762
 1426TIP3    H125693   5.756   0.922   1.063  0.2973 -0.4639 -0.6566
 1426TIP3    H225694   5.857   0.921   1.176  1.7003 -1.6690 -1.8819
 1427TIP3   OH225695   6.306   3.991   0.118 -0.3225 -0.5857  0.6098
 1427TIP3    H125696   6.323   4.079   0.152 -1.5957 -0.5623  1.2247
 1427TIP3    H225697   6.335   3.995   0.027  0.4542  0.2004  0.8749
 1428TIP3   OH225698   4.669   3.327  12.297 -0.1037 -0.0567  0.1999
 1428TIP3    H125699   4.699   3.373  12.376 -1.6981 -0.7077  1.2364
 1428TIP3    H225700   4.602   3.267  12.329  0.4232 -1.5787 -1.4349
 1429TIP3   OH225701   4.738   5.255  13.233 -0.0927 -0.3330 -0.6257
 1429TIP3    H125702   4.720   5.349  13.234  0.8702 -0.1360  0.7237
 1429TIP3    H225703   4.666   5.218  13.181  0.5952  1.3160 -2.9278
 1430TIP3   OH225704   2.031   0.169  14.088  0.1412 -0.0176  0.2323
 1430TIP3    H125705   2.009   0.079  14.108  1.2586 -1.1787 -3.0656
 1430TIP3    H225706   2.102   0.190  14.148  0.8380 -1.8819  0.1301
 1431TIP3   OH225707   1.744   6.492  15.749 -0.0051 -0.0855 -0.6348
 1431TIP3    H125708   1.807   6.471  15.681  0.9048 -0.2468  0.2354
 1431TIP3    H225709   1.666   6.520  15.702  0.4458 -0.6439 -1.7388
 1432TIP3   OH225710   3.721   2.603  15.733 -0.1873  0.8184 -0.3753
 1432TIP3    H125711   3.659   2.659  15.780 -2.0631 -2.2851  1.2136
 1432TIP3    H225712   3.672   2.573  15.656  0.3101  0.4000 -0.5379
 1433TIP3   OH225713   6.251   0.573   4.595 -0.1293  0.0489  0.2745
 1433TIP3    H125714   6.236   0.650   4.650  0.5771  0.4342 -0.0597
 1433TIP3    H225715   6.328   0.595   4.543  1.4146 -1.7276  1.6988
 1434TIP3   OH225716   2.085   5.725  11.552 -0.2127 -0.3561 -0.6201
 1434TIP3    H125717   2.144   5.785  11.596 -0.4124 -0.8864  0.3945
 1434TIP3    H225718   2.015   5.781  11.518 -0.4627 -0.0185  0.4241
 1435TIP3   OH225719   4.312   2.898   4.067  0.1497 -0.5957 -0.2556
 1435TIP3    H125720   4.388   2.849   4.098  0.8485  1.0637  0.7971
 1435TIP3    H225721   4.344   2.947   3.991  0.2360  0.2794  0.3214
 1436TIP3   OH225722   1.749   3.827   1.079  0.4611 -0.1321 -0.2532
 1436TIP3    H125723   1.714   3.780   1.155 -0.0185 -0.2220 -0.5234
 1436TIP3    H225724   1.683   3.814   1.010 -0.7288  2.6500  0.2353
 1437TIP3   OH225725   4.772   5.186   4.207  0.1508 -0.5091  0.0332
 1437TIP3    H125726   4.737   5.177   4.296  0.1955  0.6985  0.1918
 1437TIP3    H225727   4.850   5.241   4.218 -1.3464  2.0198 -1.0509
 1438TIP3   OH225728   0.830   4.028  12.529 -0.0428  0.5149 -0.2741
 1438TIP3    H125729   0.827   3.962  12.598 -1.6520  1.9502  1.1335
 1438TIP3    H225730   0.764   4.093  12.555  0.2489  1.8018 -2.4817
 1439TIP3   OH225731   1.506   3.074   4.309  0.5895 -0.0534  0.0956
 1439TIP3    H125732   1.516   2.979   4.302 -1.3734 -0.3575  0.7517
 1439TIP3    H225733   1.546   3.096   4.393  0.1590 -0.4780  0.4233
 1440TIP3   OH225734   4.618   0.821   1.648  0.0238 -0.1827  0.2726
 1440TIP3    H125735   4.542   0.774   1.681  0.0400 -0.1637  0.3380
 1440TIP3    H225736   4.688   0.755   1.646 -0.2907 -0.4870 -0.8908
 1441TIP3   OH225737   4.039   1.848  15.292 -0.1774  0.2876  0.4085
 1441TIP3    H125738   4.077   1.767  15.258  0.3168  0.3981  0.6816
 1441TIP3    H225739   3.970   1.819  15.352  0.4750  0.0440  1.0591
 1442TIP3   OH225740   6.060   2.728  12.783 -0.3559  0.7703  0.3296
 1442TIP3    H125741   5.985   2.788  12.785  0.6958  2.2732 -1.7137
 1442TIP3    H225742   6.099   2.736  12.869 -1.7873  0.9321  0.9985
 1443TIP3   OH225743   3.131   6.701   1.016  0.5479 -0.1932 -0.2948
 1443TIP3    H125744   3.113   6.747   1.097  1.3495  0.2421 -0.3522
 1443TIP3    H225745   3.214   6.655   1.032  1.2272  0.6815 -1.1681
 1444TIP3   OH225746   0.330   1.967  13.170  0.0493  0.2292  1.0150
 1444TIP3    H125747   0.340   1.988  13.263 -1.6385  3.0364  0.6756
 1444TIP3    H225748   0.305   2.049  13.129  0.1297 -1.0502 -1.8689
 1445TIP3   OH225749   2.971   5.157  11.802 -0.1660  0.4394  0.6739
 1445TIP3    H125750   3.010   5.084  11.754 -0.0525  0.3574  0.8875
 1445TIP3    H225751   3.042   5.220  11.812 -0.5147  1.0052 -0.3446
 1446TIP3   OH225752   5.305   0.483  13.586 -0.3673 -0.6475 -0.5525
 1446TIP3    H125753   5.284   0.573  13.560 -0.0920 -0.3814  0.1148
 1446TIP3    H225754   5.256   0.428  13.525 -0.0987 -0.0454 -1.3335
 1447TIP3   OH225755   4.722   4.853  14.474 -0.0391  0.7405 -0.4922
 1447TIP3    H125756   4.659   4.911  14.431 -1.5639  0.8775  1.7529
 1447TIP3    H225757   4.808   4.893  14.457 -0.7381  1.7105 -1.8767
 1448TIP3   OH225758   4.528   5.758  14.086 -0.1342 -0.2738 -0.4524
 1448TIP3    H125759   4.465   5.756  14.015 -1.0450 -0.7769  0.3518
 1448TIP3    H225760   4.482   5.721  14.161  1.0185 -0.3782  0.2346
 1449TIP3   OH225761   2.414   0.141   1.035 -0.1059  0.2793 -0.1740
 1449TIP3    H125762   2.365   0.223   1.030 -1.8829 -0.7651 -0.5925
 1449TIP3    H225763   2.422   0.111   0.944  0.2860 -0.1580 -0.0035
 1450TIP3   OH225764   3.596   3.509   4.747  0.4690 -0.0136  0.2634
 1450TIP3    H125765   3.651   3.432   4.759  2.2961  0.8657 -1.8648
 1450TIP3    H225766   3.532   3.483   4.681  0.1996 -0.1061  0.5555
 1451TIP3   OH225767   1.982   4.834   0.508  0.1601  0.7219  0.7191
 1451TIP3    H125768   2.028   4.779   0.571  0.0049  0.7152  0.8283
 1451TIP3    H225769   1.898   4.853   0.550 -1.1627 -1.6615 -0.6361
 1452TIP3   OH225770   1.228   5.085   4.696 -0.4416 -0.0976  0.3636
 1452TIP3    H125771   1.228   5.031   4.617 -0.3201 -0.6204  0.7140
 1452TIP3    H225772   1.189   5.029   4.764 -0.7530  0.4211  0.6263
 1453TIP3   OH225773   6.408   0.201   5.371  0.0526 -0.4833  0.4689
 1453TIP3    H125774   6.460   0.170   5.296  1.2287  0.5838  0.8092
 1453TIP3    H225775   6.454   0.165   5.447  0.2648  0.4179  0.7707
 1454TIP3   OH225776   2.720   1.603   5.838  0.1013  0.5211  0.6799
 1454TIP3    H125777   2.630   1.633   5.852  0.2722  0.8763  1.0270
 1454TIP3    H225778   2.771   1.647   5.906  0.7095  1.1200 -0.1447
 1455TIP3   OH225779   3.579   1.591   5.383 -0.1084  0.3891 -0.2268
 1455TIP3    H125780   3.664   1.635   5.380 -0.0561  0.2275 -1.4166
 1455TIP3    H225781   3.596   1.509   5.429  0.1144  0.8988  0.6294
 1456TIP3   OH225782   0.400   3.137   0.895  0.0359 -0.3645  0.4405
 1456TIP3    H125783   0.399   3.208   0.959  0.9547  0.5473 -0.5019
 1456TIP3    H225784   0.308   3.123   0.873 -0.1701  0.4031  0.7854
 1457TIP3   OH225785   3.796   1.585  11.852 -0.4562  0.6441 -0.3415
 1457TIP3    H125786   3.795   1.496  11.818 -0.3567  0.2234  0.7339
 1457TIP3    H225787   3.771   1.639  11.777  0.3609 -0.1926 -1.2469
 1458TIP3   OH225788   2.255   4.359  11.895 -0.2120  0.0718  0.0742
 1458TIP3    H125789   2.202   4.289  11.858 -0.4918  0.3266 -0.0070
 1458TIP3    H225790   2.247   4.431  11.833  0.6827 -0.0788 -0.2305
 1459TIP3   OH225791   4.139   1.638  12.842 -0.6786 -0.4878  0.1141
 1459TIP3    H125792   4.108   1.557  12.885  0.8438 -1.2953 -0.2573
 1459TIP3    H225793   4.202   1.608  12.777 -0.5455  0.9758 -0.4566
 1460TIP3   OH225794   0.809   6.628  14.572 -0.3613  0.5096 -0.0638
 1460TIP3    H125795   0.745   6.688  14.533  0.4652  2.1690  1.0095
 1460TIP3    H225796   0.894   6.661  14.541  0.0905 -0.3021  0.2928
 1461TIP3   OH225797   2.830   1.885   3.921  0.2603 -0.4426 -0.6776
 1461TIP3    H125798   2.776   1.894   3.999  0.6776 -1.3221 -0.2843
 1461TIP3    H225799   2.787   1.815   3.870  0.3670 -0.3338 -0.9197
 1462TIP3   OH225800   0.637   0.314   2.660 -0.3732  0.5058  0.3026
 1462TIP3    H125801   0.651   0.245   2.725 -1.9778  0.2072  0.3622
 1462TIP3    H225802   0.681   0.282   2.581 -1.3287 -0.7300  0.2527
 1463TIP3   OH225803   3.626   2.691  12.704 -0.0114 -0.2856  0.2566
 1463TIP3    H125804   3.535   2.666  12.687 -0.1077 -0.6325  1.2171
 1463TIP3    H225805   3.621   2.745  12.783  0.5440  0.2846 -0.0922
 1464TIP3   OH225806   1.997   2.801   5.679  0.0785 -0.1755 -0.4665
 1464TIP3    H125807   1.955   2.757   5.605 -1.5949 -0.8257  0.7981
 1464TIP3    H225808   2.089   2.777   5.672 -0.0204 -0.0856 -2.4089
 1465TIP3   OH225809   0.241   5.251   0.236 -0.0447  0.0363  0.3902
 1465TIP3    H125810   0.302   5.190   0.194  0.0998  0.3878  0.0873
 1465TIP3    H225811   0.209   5.203   0.313 -0.8127 -0.8549 -0.4624
 1466TIP3   OH225812   4.481   4.405  14.096 -0.5776  0.0835 -1.1912
 1466TIP3    H125813   4.434   4.484  14.070 -0.7856  0.2447 -0.3528
 1466TIP3    H225814   4.432   4.372  14.172  0.5375  0.1412 -0.4213
 1467TIP3   OH225815   0.027   4.567   1.881 -0.7364  0.3950  0.4569
 1467TIP3    H125816   0.059   4.643   1.832 -0.5806 -0.5431 -0.9709
 1467TIP3    H225817  -0.027   4.519   1.818  0.6521 -1.6334  0.6975
 1468TIP3   OH225818   4.166   4.207   4.896 -0.3741 -0.8785  0.0841
 1468TIP3    H125819   4.144   4.144   4.965 -2.1494  1.6810  2.0549
 1468TIP3    H225820   4.088   4.211   4.841  0.0203 -0.9442 -0.4877
 1469TIP3   OH225821   3.485   1.511   3.270 -0.0423  0.5194  0.0778
 1469TIP3    H125822   3.399   1.482   3.303 -0.2716  1.5340  0.4139
 1469TIP3    H225823   3.520   1.434   3.224 -0.1850 -0.6074  1.7620
 1470TIP3   OH225824   4.659   3.303  13.268 -0.0440 -0.4449  0.5109
 1470TIP3    H125825   4.619   3.294  13.355  0.3370 -1.3404  0.6040
 1470TIP3    H225826   4.753   3.297  13.284  0.0416 -0.3030  0.0676
 1471TIP3   OH225827   6.490   2.071   4.879 -0.6650  0.0432  0.3528
 1471TIP3    H125828   6.416   2.011   4.868 -1.3520  1.1723 -1.9169
 1471TIP3    H225829   6.454   2.157   4.859  0.8747  0.8769  1.0048
 1472TIP3   OH225830   5.982   4.872  12.000  0.8056 -0.1885 -0.3430
 1472TIP3    H125831   6.058   4.930  12.011  2.1969 -2.2042  1.5118
 1472TIP3    H225832   5.996   4.830  11.915  1.1351  0.3020 -0.5387
 1473TIP3   OH225833   2.989   1.368   4.324  0.2731 -0.3590 -1.1628
 1473TIP3    H125834   3.010   1.327   4.409  1.6247  0.0176 -1.2933
 1473TIP3    H225835   2.896   1.350   4.311  0.0073 -0.3031  0.4697
 1474TIP3   OH225836   1.865   2.243   2.002  0.4563  0.6136  0.4444
 1474TIP3    H125837   1.881   2.165   2.054  0.9754 -0.3408 -1.0726
 1474TIP3    H225838   1.908   2.313   2.050  1.1717 -0.2755  1.1419
 1475TIP3   OH225839   1.518   3.983   6.217 -0.0636  0.2596  0.4556
 1475TIP3    H125840   1.548   4.074   6.223 -1.0689  0.6579 -0.1531
 1475TIP3    H225841   1.423   3.989   6.228 -0.0961 -0.7834  0.8741
 1476TIP3   OH225842   4.417   0.642  14.428  0.5433  0.3026 -0.3223
 1476TIP3    H125843   4.465   0.686  14.498 -0.8532 -1.5436  1.9233
 1476TIP3    H225844   4.466   0.561  14.412 -0.2246 -0.2146 -0.0772
 1477TIP3   OH225845   0.808   1.133   0.241 -1.0966  0.7007  0.2108
 1477TIP3    H125846   0.780   1.225   0.244 -1.3933  0.6378 -0.4363
 1477TIP3    H225847   0.818   1.108   0.333 -0.9348  1.4047  0.3904
 1478TIP3   OH225848   3.992   4.685  11.074  0.2172 -0.4500  0.0046
 1478TIP3    H125849   3.984   4.687  10.978  0.0686 -0.4560  0.0173
 1478TIP3    H225850   4.080   4.720  11.091 -0.3200  1.0076 -0.0590
 1479TIP3   OH225851   1.072   2.492   5.737  0.4432  0.0688 -0.7279
 1479TIP3    H125852   1.090   2.554   5.667  0.6235  0.5090 -0.2949
 1479TIP3    H225853   0.977   2.481   5.734  0.5438 -0.6906 -1.6854
 1480TIP3   OH225854   2.462   5.932   1.654 -0.5032  0.0547  0.0766
 1480TIP3    H125855   2.546   5.939   1.699  1.5610  0.6777 -3.5530
 1480TIP3    H225856   2.461   5.844   1.617 -2.3704 -0.6219  1.5479
 1481TIP3   OH225857   5.725   1.452   5.778 -0.0799  0.0389 -0.5400
 1481TIP3    H125858   5.802   1.402   5.752 -0.6635 -0.3101 -1.6736
 1481TIP3    H225859   5.731   1.534   5.728 -0.1002  0.2958 -0.1261
 1482TIP3   OH225860   6.629   3.175  13.300  0.2254 -0.1463  0.6510
 1482TIP3    H125861   6.711   3.157  13.347 -0.7192 -1.3008  1.9235
 1482TIP3    H225862   6.628   3.110  13.230  0.9466  0.6541 -0.1343
 1483TIP3   OH225863   0.075   5.696   0.992 -0.3100  0.4072 -0.1289
 1483TIP3    H125864  -0.009   5.650   0.991 -0.7151  1.1211  0.2844
 1483TIP3    H225865   0.059   5.773   1.047  0.7090  0.3738  0.2157
 1484TIP3   OH225866   3.775   0.474   6.581 -0.0348  0.4272 -0.5419
 1484TIP3    H125867   3.754   0.429   6.498 -0.0383 -1.3396  0.3671
 1484TIP3    H225868   3.868   0.454   6.595 -0.2550 -0.0411  0.3050
 1485TIP3   OH225869   2.650   3.808  11.204 -0.1419  0.3116  0.3011
 1485TIP3    H125870   2.666   3.896  11.238 -0.6771  0.6564 -0.3267
 1485TIP3    H225871   2.555   3.804  11.191  0.1448  0.8618 -2.8568
 1486TIP3   OH225872   3.400   4.667  12.517 -0.3157  0.4424 -0.3117
 1486TIP3    H125873   3.445   4.595  12.562  0.7542  1.1819 -0.1350
 1486TIP3    H225874   3.346   4.624  12.451  1.1814 -0.4825 -0.9887
 1487TIP3   OH225875   5.673   3.573  14.883 -0.0577 -0.0462 -0.0247
 1487TIP3    H125876   5.719   3.489  14.881  1.5989  0.6159  3.4716
 1487TIP3    H225877   5.582   3.550  14.899  0.6014 -1.2412  2.4376
 1488TIP3   OH225878   2.983   2.013   6.423 -0.0263  0.0284  0.0465
 1488TIP3    H125879   3.050   2.074   6.452  0.3051 -0.4291  0.2517
 1488TIP3    H225880   3.022   1.967   6.349  0.3125 -0.9957  0.8277
 1489TIP3   OH225881   1.289   4.314  13.442  0.1518  0.5213 -0.0924
 1489TIP3    H125882   1.365   4.346  13.490  0.2659  1.9023 -1.1252
 1489TIP3    H225883   1.318   4.229  13.407  1.1268  0.8910 -0.2352
 1490TIP3   OH225884   3.698   6.659  12.247 -0.2227 -0.1283  0.4451
 1490TIP3    H125885   3.789   6.644  12.220 -0.2964 -0.1122  0.1969
 1490TIP3    H225886   3.695   6.624  12.337 -0.1206 -0.6510  0.2482
 1491TIP3   OH225887   6.242   5.705   3.316  0.1940  0.4327  0.4842
 1491TIP3    H125888   6.324   5.751   3.335 -0.7345  3.1290 -1.5353
 1491TIP3    H225889   6.180   5.737   3.382  0.2582 -0.1798  0.8538
 1492TIP3   OH225890   6.110   4.408  14.985 -0.3848 -0.0277  0.0632
 1492TIP3    H125891   6.153   4.492  15.002 -2.7474  1.1908  0.3914
 1492TIP3    H225892   6.091   4.373  15.072  0.5211 -0.9142 -0.0729
 1493TIP3   OH225893   0.103   3.630  16.277 -0.0959 -0.2482  0.3461
 1493TIP3    H125894   0.064   3.559  16.226 -2.0361  0.9637  0.0500
 1493TIP3    H225895   0.095   3.707  16.220 -0.0303  0.6440  1.5141
 1494TIP3   OH225896   5.700   0.250   1.865  0.2152  0.3994 -0.0717
 1494TIP3    H125897   5.775   0.229   1.920  0.1800 -0.6034 -0.3720
 1494TIP3    H225898   5.650   0.168   1.860 -2.1436  1.5571  1.9532
 1495TIP3   OH225899   0.426   3.508   4.088 -0.6588  0.3577 -0.2422
 1495TIP3    H125900   0.507   3.458   4.093 -1.3094 -0.6237  2.9855
 1495TIP3    H225901   0.367   3.453   4.037 -0.1241 -0.2759 -0.1974
 1496TIP3   OH225902   6.557   4.560  12.457 -0.4529 -0.2359 -0.3209
 1496TIP3    H125903   6.470   4.578  12.422 -0.5046 -0.3316 -0.2453
 1496TIP3    H225904   6.558   4.604  12.542 -0.4961 -0.3927 -0.2386
 1497TIP3   OH225905   5.941   4.926  14.980  0.5597  0.1297  0.0205
 1497TIP3    H125906   5.983   4.876  14.910  0.8154 -0.8833  0.8719
 1497TIP3    H225907   6.008   4.988  15.008  0.1327  1.2419 -1.2640
 1498TIP3   OH225908   0.405   5.450  16.894  0.4919 -0.1491  0.7742
 1498TIP3    H125909   0.415   5.448  16.799  0.9854 -0.1589  0.8266
 1498TIP3    H225910   0.337   5.517  16.909  1.1773  0.6303  0.4786
 1499TIP3   OH225911   4.831   2.613  15.177 -0.1887  0.1260 -0.6640
 1499TIP3    H125912   4.781   2.658  15.246 -0.6771 -0.4112 -0.6614
 1499TIP3    H225913   4.769   2.601  15.106  0.2347  0.4059 -1.0902
 1500TIP3   OH225914   2.540   1.231   4.529 -0.1847 -0.1229 -0.3338
 1500TIP3    H125915   2.473   1.264   4.589 -1.1225 -0.6152 -1.0821
 1500TIP3    H225916   2.510   1.144   4.505  0.1065  0.1082 -1.6174
 1501TIP3   OH225917   0.366   6.144   3.772 -0.5599  0.5714 -0.1964
 1501TIP3    H125918   0.381   6.054   3.746  0.0709  0.8723 -0.9251
 1501TIP3    H225919   0.278   6.164   3.741 -0.6860  0.2165 -0.0655
 1502TIP3   OH225920   1.215   0.981   6.689  0.2751 -0.4617 -0.1933
 1502TIP3    H125921   1.137   1.027   6.662  1.1740  2.1692  1.3602
 1502TIP3    H225922   1.184   0.893   6.713 -2.1486  0.4384  0.2170
 1503TIP3   OH225923   6.167   2.295  12.656  0.6307 -0.1247 -0.5859
 1503TIP3    H125924   6.123   2.210  12.661  0.4197 -0.0114 -0.4716
 1503TIP3    H225925   6.108   2.350  12.604  0.1609  0.3085  0.3619
 1504TIP3   OH225926   1.169   6.155  15.164 -0.2277 -0.0709  0.7901
 1504TIP3    H125927   1.244   6.156  15.223 -0.4733  1.0208  1.1108
 1504TIP3    H225928   1.177   6.237  15.115  0.1040 -1.0422 -0.8810
 1505TIP3   OH225929   4.444   2.661   0.271 -0.2599 -0.1660 -0.0655
 1505TIP3    H125930   4.407   2.747   0.291  0.9744  0.4591 -0.3785
 1505TIP3    H225931   4.402   2.636   0.189  0.2511  0.6889 -0.6044
 1506TIP3   OH225932   3.238   2.766   0.548 -0.1100  0.3489  0.7791
 1506TIP3    H125933   3.262   2.810   0.630  0.3451 -0.6173  1.1808
 1506TIP3    H225934   3.207   2.680   0.576  1.3500 -0.5050 -0.1491
 1507TIP3   OH225935   3.938   5.445   0.703  0.1601  0.0976  0.1495
 1507TIP3    H125936   3.918   5.362   0.659  0.6159  0.3778 -0.5900
 1507TIP3    H225937   4.004   5.487   0.648  1.9872 -0.2846  1.9541
 1508TIP3   OH225938   6.099   3.126  15.038  1.0384 -0.0237 -0.5479
 1508TIP3    H125939   6.021   3.121  15.094 -0.2746  0.6323 -2.2434
 1508TIP3    H225940   6.149   3.047  15.059 -0.0061 -0.3880  0.6823
 1509TIP3   OH225941   1.916   1.147   4.327 -0.2279 -0.1790  0.2011
 1509TIP3    H125942   1.868   1.180   4.403  2.1359  2.6713  0.6153
 1509TIP3    H225943   1.878   1.195   4.253 -1.1684 -1.4695 -0.1816
 1510TIP3   OH225944   3.107   4.593   3.950 -0.2229 -0.6944 -0.3005
 1510TIP3    H125945   3.048   4.593   3.874  0.3671 -0.2069 -0.7754
 1510TIP3    H225946   3.195   4.598   3.912  0.1818 -2.0646  0.3726
 1511TIP3   OH225947   1.144   4.228   2.187  0.0348 -0.0475  0.0047
 1511TIP3    H125948   1.136   4.132   2.193 -2.1762  0.0570 -0.3782
 1511TIP3    H225949   1.157   4.245   2.093 -0.7870  0.0661 -0.0967
 1512TIP3   OH225950   3.030   2.314   3.231  0.1798 -0.0580 -0.4674
 1512TIP3    H125951   3.037   2.224   3.262 -0.7616 -0.2482 -0.7638
 1512TIP3    H225952   3.016   2.366   3.310  0.8208 -0.1524 -0.2856
 1513TIP3   OH225953   0.366   0.654   4.993  0.9666  0.4216 -0.6519
 1513TIP3    H125954   0.303   0.593   5.032 -1.3887  2.7309 -0.5253
 1513TIP3    H225955   0.437   0.660   5.057 -0.1378 -0.0564  0.6678
 1514TIP3   OH225956   0.767   4.792   2.704 -0.0675 -0.3784  0.2270
 1514TIP3    H125957   0.812   4.740   2.770 -2.8735  0.3833  2.9683
 1514TIP3    H225958   0.694   4.738   2.676 -0.7428  0.5322  0.1724
 1515TIP3   OH225959   5.089   5.492  15.536  0.8492  0.4041 -0.5692
 1515TIP3    H125960   5.018   5.547  15.571  0.2051 -0.3857 -0.6061
 1515TIP3    H225961   5.159   5.554  15.515 -0.1382  1.2970 -1.3173
 1516TIP3   OH225962   1.499   4.245  16.970  0.2718  0.0082 -0.1484
 1516TIP3    H125963   1.506   4.338  16.948 -0.2983 -0.1833 -1.1961
 1516TIP3    H225964   1.489   4.244  17.066  0.4576  1.0074 -0.1048
 1517TIP3   OH225965   0.037   0.688   4.780  0.5312  0.5696 -0.6440
 1517TIP3    H125966   0.087   0.744   4.840 -0.7268  2.0650 -0.9397
 1517TIP3    H225967  -0.034   0.743   4.749 -0.3297 -0.9825 -1.5537
 1518TIP3   OH225968   3.675   2.643  13.591  0.1894 -0.2578  0.1406
 1518TIP3    H125969   3.701   2.589  13.665 -0.9241 -1.9636 -0.6433
 1518TIP3    H225970   3.710   2.730  13.611 -2.1264  0.0465  3.9117
 1519TIP3   OH225971   5.937   0.554  14.956  0.7277  0.8410  0.3069
 1519TIP3    H125972   5.980   0.478  14.996 -0.9755 -0.5615 -0.3751
 1519TIP3    H225973   5.864   0.573  15.014 -1.1700 -0.5846 -1.4518
 1520TIP3   OH225974   4.908   6.386   0.688  0.3427 -0.1934  0.7302
 1520TIP3    H125975   4.845   6.346   0.628  0.5820  2.0985 -1.2128
 1520TIP3    H225976   4.854   6.436   0.749  0.1797 -0.9240  1.1980
 1521TIP3   OH225977   2.811   2.823  15.367 -0.2942  0.2426  0.1638
 1521TIP3    H125978   2.802   2.915  15.388  0.6989  0.2987  0.3934
 1521TIP3    H225979   2.899   2.799  15.397  0.0563 -0.3948 -1.2385
 1522TIP3   OH225980   0.948   1.894   2.070 -0.6366 -0.2137 -1.1487
 1522TIP3    H125981   0.922   1.983   2.047  0.7924  0.4744 -0.2748
 1522TIP3    H225982   0.868   1.852   2.101 -0.9646  1.4666  0.4776
 1523TIP3   OH225983   2.214   4.998   4.833  0.3222 -0.3339 -0.1078
 1523TIP3    H125984   2.264   5.003   4.914 -0.8961  0.1439  0.6447
 1523TIP3    H225985   2.264   4.937   4.778  1.7562  0.1908  0.5515
 1524TIP3   OH225986   1.155   2.447   5.314 -0.0167 -0.1170 -0.4642
 1524TIP3    H125987   1.163   2.480   5.225  1.3251  3.4723  0.8249
 1524TIP3    H225988   1.068   2.472   5.342 -0.0513 -0.2937 -0.4096
 1525TIP3   OH225989   2.422   0.772   2.287  0.0400  0.0748  0.3864
 1525TIP3    H125990   2.420   0.818   2.371  0.1561  0.5374  0.1399
 1525TIP3    H225991   2.360   0.700   2.298 -2.4095  1.9800 -0.1908
 1526TIP3   OH225992   5.662   5.641   6.027  0.4690  0.4544  0.3015
 1526TIP3    H125993   5.607   5.654   5.950  3.0753  0.4268 -1.7062
 1526TIP3    H225994   5.607   5.592   6.088 -1.4746 -0.2153 -1.8525
 1527TIP3   OH225995   0.375   4.599  14.038  0.1979 -0.4473 -0.8530
 1527TIP3    H125996   0.292   4.647  14.044  0.8496  0.7365 -1.1201
 1527TIP3    H225997   0.392   4.594  13.944 -0.5657 -2.4884 -0.9406
 1528TIP3   OH225998   0.423   1.478   6.193 -0.3070 -0.2549  0.0034
 1528TIP3    H125999   0.430   1.572   6.210  1.1511 -0.0663 -1.4061
 1528TIP3    H226000   0.507   1.442   6.221 -0.3896 -0.9420 -0.5935
 1529TIP3   OH226001   4.511   2.741   1.317  0.0382  0.2419  0.2535
 1529TIP3    H126002   4.537   2.650   1.306 -0.2486  0.0834  0.8541
 1529TIP3    H226003   4.451   2.758   1.244  0.9810  0.3016 -0.5315
 1530TIP3   OH226004   1.663   3.475  15.319 -0.3289  0.3304  0.3284
 1530TIP3    H126005   1.688   3.440  15.233 -0.8515  1.9532 -0.5298
 1530TIP3    H226006   1.746   3.489  15.364 -0.0886 -1.5556  0.5535
 1531TIP3   OH226007   5.386   3.712   2.496 -0.6871  0.2980  0.3909
 1531TIP3    H126008   5.450   3.779   2.519 -0.8276  0.7364 -0.4330
 1531TIP3    H226009   5.427   3.663   2.424 -1.0005  0.1503  0.3077
 1532TIP3   OH226010   4.257   6.166  11.715 -0.2155 -0.1715 -0.7096
 1532TIP3    H126011   4.334   6.113  11.734  0.5220  0.9348 -0.5240
 1532TIP3    H226012   4.288   6.230  11.650 -0.7582  0.7964 -0.0294
 1533TIP3   OH226013   5.513   6.579  15.448 -0.3192  0.1009  0.0175
 1533TIP3    H126014   5.604   6.608  15.443 -0.1160 -0.7283 -2.8235
 1533TIP3    H226015   5.463   6.659  15.466  0.7454  1.1302 -1.3825
 1534TIP3   OH226016   4.246   5.472  16.286 -0.5783  0.3676  0.9607
 1534TIP3    H126017   4.243   5.392  16.339  0.7147  0.4227  1.1478
 1534TIP3    H226018   4.161   5.514  16.301 -0.4425  0.1181  2.5730
 1535TIP3   OH226019   4.483   1.884   6.182 -0.3343 -0.0005 -0.2801
 1535TIP3    H126020   4.426   1.859   6.255 -0.5040 -2.3725 -1.1458
 1535TIP3    H226021   4.571   1.860   6.211 -0.3479 -0.5355 -0.6654
 1536TIP3   OH226022   4.001   2.301  14.197 -0.3435  0.2867  0.5000
 1536TIP3    H126023   3.988   2.206  14.193 -0.6621  0.3459  0.1356
 1536TIP3    H226024   4.096   2.311  14.207  0.1368 -0.0216 -2.7593
 1537TIP3   OH226025   5.108   3.786   5.765  0.4373 -0.4591  0.2380
 1537TIP3    H126026   5.057   3.705   5.772  1.7992 -1.3027  0.6353
 1537TIP3    H226027   5.089   3.834   5.846  0.9338 -1.1620  0.7759
 1538TIP3   OH226028   4.130   2.251   4.578 -0.1292  0.6300 -0.3601
 1538TIP3    H126029   4.045   2.242   4.621  1.4261 -1.2095  2.6868
 1538TIP3    H226030   4.143   2.168   4.533 -0.3722  1.3547 -1.8370
 1539TIP3   OH226031   1.968   5.966  14.611 -0.1940 -0.8581  0.2943
 1539TIP3    H126032   2.003   5.966  14.522  1.3295 -1.8803  0.8483
 1539TIP3    H226033   1.962   6.058  14.634  0.7577 -0.6091 -0.3710
 1540TIP3   OH226034   0.219   2.794   0.052  0.4427 -0.1593  0.0562
 1540TIP3    H126035   0.220   2.757  -0.036  0.7209 -0.5464  0.2174
 1540TIP3    H226036   0.209   2.888   0.039  1.2193 -0.1322 -0.4239
 1541TIP3   OH226037   0.271   3.351   4.917 -0.5045 -0.4323 -0.0168
 1541TIP3    H126038   0.239   3.298   4.990  0.9041  0.4348  1.2864
 1541TIP3    H226039   0.261   3.442   4.947 -0.6055 -0.0262 -1.2223
 1542TIP3   OH226040   2.688   6.142  16.464 -0.5130  0.0518  0.3935
 1542TIP3    H126041   2.622   6.193  16.417 -0.6475 -0.3250  0.1665
 1542TIP3    H226042   2.679   6.053  16.428  0.8267  0.2159 -0.4064
 1543TIP3   OH226043   0.770   1.521   2.018 -0.6417 -0.5215 -0.1245
 1543TIP3    H126044   0.681   1.519   2.053 -0.7292 -0.2637 -0.3239
 1543TIP3    H226045   0.773   1.601   1.965 -1.3185 -2.1019 -2.7555
 1544TIP3   OH226046   4.160   0.011  13.732  0.5167  0.1272 -0.2086
 1544TIP3    H126047   4.161   0.106  13.725 -0.7855  0.0981 -0.9709
 1544TIP3    H226048   4.193  -0.007  13.820 -0.0696  1.3138  0.2671
 1545TIP3   OH226049   3.818   3.337  14.382  0.1007 -0.2042 -0.3051
 1545TIP3    H126050   3.824   3.406  14.448 -0.5825  0.9664 -1.4172
 1545TIP3    H226051   3.886   3.359  14.318 -1.2927  0.5180 -1.6002
 1546TIP3   OH226052   4.874   0.495   4.988  0.3384  0.6399 -0.1823
 1546TIP3    H126053   4.905   0.543   4.911 -2.0044 -0.9966 -2.3263
 1546TIP3    H226054   4.853   0.563   5.052  1.9966  2.0882 -1.0850
 1547TIP3   OH226055   5.610   5.930   1.614  0.0162 -0.2655 -0.1077
 1547TIP3    H126056   5.598   5.835   1.605 -0.5774 -0.2527  0.4503
 1547TIP3    H226057   5.532   5.967   1.572  0.4582 -0.0058 -0.7104
 1548TIP3   OH226058   4.381   2.799  10.752 -0.6065  0.1713 -0.4320
 1548TIP3    H126059   4.296   2.757  10.737 -0.7551  0.0417  0.6397
 1548TIP3    H226060   4.441   2.726  10.768 -0.2150  0.2482 -1.4592
 1549TIP3   OH226061   6.559   0.868   2.650  0.3617 -0.3806 -0.3218
 1549TIP3    H126062   6.472   0.828   2.652  0.8912 -1.5781  2.5416
 1549TIP3    H226063   6.572   0.890   2.557 -2.8144 -0.4454 -0.9144
 1550TIP3   OH226064   1.430   5.475   1.389 -0.2248  0.4280 -0.3993
 1550TIP3    H126065   1.349   5.426   1.402 -0.3290  0.4402 -0.9952
 1550TIP3    H226066   1.493   5.410   1.359  0.0664  0.3655  0.3291
 1551TIP3   OH226067   5.147   6.645   1.094 -0.5580 -0.5988 -0.0133
 1551TIP3    H126068   5.091   6.707   1.140 -0.7641 -0.1307 -0.8711
 1551TIP3    H226069   5.229   6.692   1.080 -0.3505 -0.8814  0.2275
 1552TIP3   OH226070   5.975   2.148  17.060  0.3090  0.2366 -0.1222
 1552TIP3    H126071   5.917   2.211  17.017 -0.5074 -0.3555  0.0878
 1552TIP3    H226072   6.046   2.201  17.097 -2.3997  1.6562  3.6655
 1553TIP3   OH226073   5.424   5.217  14.995  0.2242  0.4525 -0.1353
 1553TIP3    H126074   5.476   5.210  15.075 -0.9352  0.9716  0.6943
 1553TIP3    H226075   5.428   5.130  14.956  1.0358  0.2704  0.3289
 1554TIP3   OH226076   0.109   4.624  12.382  0.2888 -0.4061 -0.0290
 1554TIP3    H126077   0.032   4.625  12.438 -0.0476 -0.7200 -0.4795
 1554TIP3    H226078   0.082   4.671  12.302  0.6044 -0.4026 -0.1390
 1555TIP3   OH226079   5.609   1.826   4.054 -0.1328  0.0027 -0.7613
 1555TIP3    H126080   5.553   1.766   4.004 -1.8116  0.4644  0.5094
 1555TIP3    H226081   5.599   1.798   4.145  2.9643 -0.8961 -0.5664
 1556TIP3   OH226082   6.290   3.033   3.435  0.1267 -0.3564 -0.3155
 1556TIP3    H126083   6.372   3.082   3.433 -1.3836  2.5491  1.4706
 1556TIP3    H226084   6.240   3.067   3.361 -1.1857  1.5006  1.3069
 1557TIP3   OH226085   2.577   5.737   6.572 -0.5191 -0.3504 -0.0905
 1557TIP3    H126086   2.531   5.815   6.541 -1.8413 -1.7129 -1.7633
 1557TIP3    H226087   2.667   5.767   6.586 -1.3150  1.8182  0.8552
 1558TIP3   OH226088   1.135   3.655   1.780 -0.5349  0.9376  0.4107
 1558TIP3    H126089   1.086   3.573   1.772 -0.2793  0.9109 -1.1337
 1558TIP3    H226090   1.072   3.723   1.756  0.3667  0.8258 -2.7221
 1559TIP3   OH226091   1.533   4.805  14.405  0.0121 -0.1074 -0.1933
 1559TIP3    H126092   1.511   4.784  14.496 -1.0501  2.6055  0.2796
 1559TIP3    H226093   1.461   4.769  14.353  0.0765 -0.7339  0.1449
 1560TIP3   OH226094   3.282   0.391   2.003 -0.4797  0.2938  0.3439
 1560TIP3    H126095   3.257   0.470   1.955 -1.0294  0.7558  1.3564
 1560TIP3    H226096   3.234   0.397   2.085 -0.3374 -0.9811  0.5403
 1561TIP3   OH226097   4.947   0.387   4.279  0.4311 -0.2014 -0.2563
 1561TIP3    H126098   5.007   0.354   4.346  0.5110  0.5550  0.0598
 1561TIP3    H226099   5.000   0.449   4.229  0.0194  0.1829 -0.2151
 1562TIP3   OH226100   5.539   3.058   4.676 -0.2247 -0.0805  0.0735
 1562TIP3    H126101   5.507   2.982   4.724 -0.6106  0.0655  0.0472
 1562TIP3    H226102   5.632   3.040   4.663 -0.4492 -0.8716 -0.5336
 1563TIP3   OH226103   0.719   3.934   1.575  0.5775  0.1698  0.6856
 1563TIP3    H126104   0.682   4.011   1.618  2.5159  2.5979 -1.5713
 1563TIP3    H226105   0.650   3.903   1.517  0.2763  1.3536  0.3719
 1564TIP3   OH226106   6.207   4.849   5.980  0.4905 -0.0794 -0.1466
 1564TIP3    H126107   6.253   4.932   5.994  0.0116  1.0489 -4.0577
 1564TIP3    H226108   6.120   4.864   6.017  0.4965  1.0835 -0.5562
 1565TIP3   OH226109   4.644   0.756   1.931  0.1760 -0.1851  0.0338
 1565TIP3    H126110   4.697   0.692   1.882  1.8757  1.1642  0.0444
 1565TIP3    H226111   4.702   0.790   1.998 -0.5062  1.7449 -0.2862
 1566TIP3   OH226112   4.987   6.003  12.534  0.1643 -0.5799 -0.1962
 1566TIP3    H126113   4.945   5.953  12.464 -0.6453 -0.6657  0.3340
 1566TIP3    H226114   5.013   6.085  12.492  0.6978 -1.0760 -0.8570
 1567TIP3   OH226115   6.691   3.407  11.338  0.2832  0.3233 -0.1813
 1567TIP3    H126116   6.619   3.349  11.314  0.7674  0.1705 -1.3005
 1567TIP3    H226117   6.721   3.373  11.423  0.5692 -1.0934 -0.8199
 1568TIP3   OH226118   3.674   3.130  10.599 -0.2114 -0.3762 -0.6257
 1568TIP3    H126119   3.635   3.044  10.594 -1.4032  0.2047 -2.2148
 1568TIP3    H226120   3.760   3.116  10.640 -0.6893 -2.1684 -0.1886
 1569TIP3   OH226121   4.215   1.430  11.352 -0.1680  0.1961  0.1082
 1569TIP3    H126122   4.125   1.396  11.355 -1.3335  3.0432  0.3022
 1569TIP3    H226123   4.248   1.418  11.441 -0.8865  0.4049  0.4076
 1570TIP3   OH226124   5.295   4.669  16.562 -0.3399 -0.2995  0.6132
 1570TIP3    H126125   5.385   4.704  16.561 -1.0356  1.6738  1.7291
 1570TIP3    H226126   5.284   4.635  16.650 -1.6560  2.3457  1.5537
 1571TIP3   OH226127   0.530   1.148  14.915 -0.3313 -0.0932 -0.1259
 1571TIP3    H126128   0.558   1.150  15.007 -1.9063  0.7291  0.3840
 1571TIP3    H226129   0.464   1.079  14.912 -0.5695  0.1498 -0.5516
 1572TIP3   OH226130   4.240   2.765   3.089  0.0878  0.0883 -0.1910
 1572TIP3    H126131   4.169   2.828   3.079  1.2106  1.0296 -3.9446
 1572TIP3    H226132   4.299   2.805   3.152 -0.9875  1.0183  0.2592
 1573TIP3   OH226133   3.362   2.640   0.131 -0.3327  0.2412  0.4710
 1573TIP3    H126134   3.335   2.680   0.048 -1.0168 -0.1142  0.5086
 1573TIP3    H226135   3.383   2.714   0.187  0.5975  0.4739 -0.1644
 1574TIP3   OH226136   6.502   0.252  12.653  0.1008 -0.0454 -0.0490
 1574TIP3    H126137   6.456   0.299  12.584  1.5243  0.5847 -0.5985
 1574TIP3    H226138   6.593   0.279  12.645  0.2086  0.7151  2.6234
 1575TIP3   OH226139   6.183   2.307  13.309  0.0253 -0.1742  0.4302
 1575TIP3    H126140   6.164   2.362  13.385 -1.3675 -0.2947  0.1887
 1575TIP3    H226141   6.247   2.358  13.259 -1.3104  1.3039  0.1566
 1576TIP3   OH226142   3.627   5.118  14.760 -0.1691  0.3424  0.2968
 1576TIP3    H126143   3.631   5.044  14.699 -0.5011 -0.5025  1.2714
 1576TIP3    H226144   3.534   5.139  14.766  0.0136  1.5974 -0.8310
 1577TIP3   OH226145   2.111   1.829   4.255  0.1458  0.2883  0.2146
 1577TIP3    H126146   2.030   1.866   4.222 -0.5693  0.2423  1.8313
 1577TIP3    H226147   2.179   1.891   4.228 -0.2683 -0.1370 -1.9375
 1578TIP3   OH226148   4.845   2.712  16.667 -0.2225  0.0641 -0.7093
 1578TIP3    H126149   4.814   2.802  16.667 -2.6062 -0.6986 -0.3877
 1578TIP3    H226150   4.939   2.719  16.684 -0.0658  2.5415 -2.0940
 1579TIP3   OH226151   5.041   3.983  16.728  0.1909  0.1639  1.2735
 1579TIP3    H126152   5.112   3.971  16.665 -1.0128 -0.1198 -0.0630
 1579TIP3    H226153   5.025   4.078  16.728 -0.9970 -0.0217 -0.2061
 1580TIP3   OH226154   4.911   6.032   3.891  0.0100  0.6964  0.8740
 1580TIP3    H126155   4.817   6.031   3.872  0.2137  1.4137 -0.3075
 1580TIP3    H226156   4.925   6.116   3.935 -0.0971 -0.0094  2.3357
 1581TIP3   OH226157   4.859   2.394  17.325  0.1479 -0.5092  0.1405
 1581TIP3    H126158   4.881   2.425  17.412 -0.5993 -0.1748  0.2201
 1581TIP3    H226159   4.847   2.474  17.273  2.5823 -0.6909 -0.8116
 1582TIP3   OH226160   2.619   4.432  12.336  0.3201 -0.2091 -0.2123
 1582TIP3    H126161   2.554   4.466  12.274 -0.8300  0.3329  1.2574
 1582TIP3    H226162   2.659   4.511  12.373  0.7909 -0.5340 -0.0241
 1583TIP3   OH226163   5.832   3.386  17.184 -0.4296  0.1922  0.4197
 1583TIP3    H126164   5.872   3.301  17.201 -2.7384 -1.0933 -0.1859
 1583TIP3    H226165   5.818   3.423  17.272  0.8460  0.1131  0.6760
 1584TIP3   OH226166   5.857   3.877   3.269 -0.2335  0.0358  0.5560
 1584TIP3    H126167   5.833   3.790   3.236  2.0831  0.2159 -1.9356
 1584TIP3    H226168   5.794   3.936   3.228 -0.3018 -0.2464  0.2473
 1585TIP3   OH226169   1.127   6.751   2.985  0.5671  0.1913  0.2030
 1585TIP3    H126170   1.106   6.843   2.969  1.6793  0.7863  1.9231
 1585TIP3    H226171   1.043   6.711   3.009  0.1420  0.8283 -0.1897
 1586TIP3   OH226172   3.025   5.536   5.181  0.5156 -0.4023 -0.1505
 1586TIP3    H126173   3.007   5.630   5.190 -0.4303 -0.4229 -1.5153
 1586TIP3    H226174   3.037   5.523   5.087  2.6559 -1.3370  0.1847
 1587TIP3   OH226175   3.678   0.803   5.231 -0.2854 -0.0893  0.1600
 1587TIP3    H126176   3.659   0.722   5.278 -0.2499  0.4790  1.1976
 1587TIP3    H226177   3.726   0.776   5.154  1.6932 -0.9302  1.5989
 1588TIP3   OH226178   4.589   0.997  13.427  0.1008  0.2303 -0.2780
 1588TIP3    H126179   4.634   1.028  13.348  0.0348 -0.2438 -0.5079
 1588TIP3    H226180   4.648   0.931  13.463 -0.7507 -0.9727 -1.0176
 1589TIP3   OH226181   5.356   0.485   5.612 -0.1403  0.5529 -0.1365
 1589TIP3    H126182   5.424   0.528   5.664 -1.2590  0.7700  1.1949
 1589TIP3    H226183   5.337   0.546   5.541  0.2061  1.0174  0.1655
 1590TIP3   OH226184   5.058   4.137  12.800  0.1741 -0.3400  0.0350
 1590TIP3    H126185   5.099   4.187  12.870 -1.9959  1.1349  0.3609
 1590TIP3    H226186   5.033   4.054  12.841  0.8735 -0.3935  0.3750
 1591TIP3   OH226187   5.831   4.213  14.706 -0.0875 -0.2611 -0.6435
 1591TIP3    H126188   5.862   4.302  14.724  0.6342 -1.0810  2.9172
 1591TIP3    H226189   5.898   4.156  14.744 -1.9625 -2.2667 -0.1463
 1592TIP3   OH226190   3.367   0.987  17.001  0.1832  0.5122  0.1422
 1592TIP3    H126191   3.455   0.975  16.965  0.8203  0.8183  1.5324
 1592TIP3    H226192   3.381   1.033  17.084 -1.4759  2.6765 -0.7030
 1593TIP3   OH226193   2.492   4.386  15.589 -0.2998 -0.7312  0.4774
 1593TIP3    H126194   2.536   4.382  15.504  0.3641  0.8895  0.7148
 1593TIP3    H226195   2.399   4.397  15.568 -0.1991 -0.8342 -0.0267
 1594TIP3   OH226196   5.985   5.505   6.208 -1.0117  0.0268  0.2657
 1594TIP3    H126197   5.960   5.577   6.266 -0.3782  0.9633 -0.5957
 1594TIP3    H226198   5.949   5.529   6.123  0.0060 -0.2105 -0.2430
 1595TIP3   OH226199   0.882   6.341   4.974 -0.3805 -0.5693  0.1933
 1595TIP3    H126200   0.840   6.310   4.893 -0.8577  1.4471 -0.3794
 1595TIP3    H226201   0.919   6.426   4.951 -0.2608 -0.0793  2.0443
 1596TIP3   OH226202   3.902   2.409  14.722  0.2369 -0.5099  0.2322
 1596TIP3    H126203   3.984   2.402  14.673  0.3034 -2.1935  0.5061
 1596TIP3    H226204   3.840   2.448  14.660  0.9060 -0.4472 -0.4123
 1597TIP3   OH226205   0.671   4.430   1.252  0.4222 -0.5674  0.3253
 1597TIP3    H126206   0.725   4.375   1.309 -0.3231  1.8450  3.6761
 1597TIP3    H226207   0.595   4.452   1.305  0.7119  3.7255 -0.6687
 1598TIP3   OH226208   1.691   2.513   1.239 -0.1032  0.1380 -0.1691
 1598TIP3    H126209   1.650   2.509   1.325 -0.0589  0.8270 -0.1118
 1598TIP3    H226210   1.640   2.452   1.185 -0.7926  0.4900  0.0736
 1599TIP3   OH226211   0.708   3.360  11.736  0.0094 -0.0462 -0.2696
 1599TIP3    H126212   0.783   3.418  11.723 -0.1548  0.4619  0.8776
 1599TIP3    H226213   0.638   3.401  11.686  0.1651  0.1925 -0.2963
 1600TIP3   OH226214   6.323   0.238  11.331  0.2207 -0.3675  0.1943
 1600TIP3    H126215   6.321   0.313  11.390  0.2953 -0.1942 -0.0234
 1600TIP3    H226216   6.276   0.267  11.253 -1.0158 -1.0314  0.6656
 1601TIP3   OH226217   0.600   3.874  14.163  0.1141 -0.7550 -0.3534
 1601TIP3    H126218   0.630   3.791  14.199 -0.3715 -0.6093  0.3999
 1601TIP3    H226219   0.569   3.924  14.238 -1.7807 -0.8037 -1.0515
 1602TIP3   OH226220   3.539   5.606  16.700 -0.3481 -0.6835 -0.1964
 1602TIP3    H126221   3.512   5.582  16.611 -1.8769  0.4961 -0.1019
 1602TIP3    H226222   3.503   5.694  16.713  2.0598  0.2791  0.6692
 1603TIP3   OH226223   1.799   0.135  15.164 -0.2051 -0.1683 -0.0503
 1603TIP3    H126224   1.752   0.215  15.143 -1.2017 -1.0342 -1.2898
 1603TIP3    H226225   1.736   0.065  15.147  0.5795 -1.2179  1.1885
 1604TIP3   OH226226   6.442   0.099  13.095  0.0406  0.5741 -0.2093
 1604TIP3    H126227   6.510   0.037  13.070 -0.0307 -0.5138  1.9820
 1604TIP3    H226228   6.383   0.102  13.020  1.1063 -0.4867 -1.1266
 1605TIP3   OH226229   2.012   4.540  12.283 -0.3966 -0.0286 -0.5112
 1605TIP3    H126230   1.928   4.535  12.329  1.1047 -2.6271  2.3195
 1605TIP3    H226231   2.068   4.591  12.342  0.9983 -1.5731 -0.4287
 1606TIP3   OH226232   5.409   5.820  12.289 -0.2540 -0.1896 -0.6581
 1606TIP3    H126233   5.492   5.867  12.288 -0.2963 -0.1155 -0.6713
 1606TIP3    H226234   5.342   5.889  12.289 -0.3178 -0.1984  1.1910
 1607TIP3   OH226235   3.443   5.127  15.338  0.2842  0.2570  0.2924
 1607TIP3    H126236   3.363   5.169  15.370  0.3153 -1.4586  2.8996
 1607TIP3    H226237   3.417   5.082  15.258 -0.5310  2.3140 -0.6753
 1608TIP3   OH226238   5.962   2.913   5.379 -0.6284  0.3307 -0.7311
 1608TIP3    H126239   6.041   2.883   5.334 -0.3934  0.5114 -0.4492
 1608TIP3    H226240   5.995   2.969   5.450 -1.0341  0.7839 -0.8968
 1609TIP3   OH226241   5.085   4.304  14.115  0.0423 -0.3044  0.0740
 1609TIP3    H126242   5.038   4.278  14.194  0.4934  0.0126  0.4588
 1609TIP3    H226243   5.070   4.398  14.108  0.8086 -0.1577  0.3360
 1610TIP3   OH226244   0.677   2.469   3.847  0.0407 -0.4178 -0.2410
 1610TIP3    H126245   0.585   2.484   3.867 -0.2632 -1.6771 -0.5568
 1610TIP3    H226246   0.676   2.419   3.765  1.0633  0.5396 -0.8685
 1611TIP3   OH226247   5.595   3.714   1.484 -0.5612  0.2392 -0.6778
 1611TIP3    H126248   5.567   3.683   1.398 -2.3768 -2.0312  0.6253
 1611TIP3    H226249   5.513   3.739   1.529  0.1781  0.0500  0.8516
 1612TIP3   OH226250   6.092   2.294   0.084  0.3947  0.0593 -0.4707
 1612TIP3    H126251   6.035   2.229   0.043 -1.2457  0.2490  1.3520
 1612TIP3    H226252   6.105   2.361   0.017  0.0850 -0.9347 -1.5628
 1613TIP3   OH226253   4.062   4.185   6.229  0.2321 -0.3296  0.0524
 1613TIP3    H126254   4.050   4.225   6.315 -0.7604 -2.3114  0.9158
 1613TIP3    H226255   4.012   4.103   6.234  2.8202 -2.1445 -1.2436
 1614TIP3   OH226256   6.367   5.704  15.807  0.1172  0.2224 -0.3917
 1614TIP3    H126257   6.421   5.783  15.803  0.7816 -0.0551  1.8681
 1614TIP3    H226258   6.423   5.638  15.848 -0.6388 -1.2653 -1.6528
 1615TIP3   OH226259   4.817   0.332  13.455 -0.0188  0.1312  0.6811
 1615TIP3    H126260   4.724   0.324  13.433  0.4482 -2.8439 -0.7304
 1615TIP3    H226261   4.836   0.253  13.506  1.7929  0.5452  0.7019
 1616TIP3   OH226262   3.703   5.214   4.632  0.0884 -0.5327  0.1042
 1616TIP3    H126263   3.684   5.162   4.554 -1.6516 -0.0660  0.1957
 1616TIP3    H226264   3.618   5.243   4.663  0.9646  1.8164  0.4653
 1617TIP3   OH226265   6.738   0.625  13.063  0.6804 -0.3493  0.2040
 1617TIP3    H126266   6.799   0.552  13.051 -0.3448 -1.2030 -0.0631
 1617TIP3    H226267   6.652   0.583  13.070  0.1344  0.8032  0.7158
 1618TIP3   OH226268   3.303   1.302   3.915  0.1174 -0.1526 -0.2921
 1618TIP3    H126269   3.275   1.356   3.989 -0.6452 -1.4030  0.3565
 1618TIP3    H226270   3.397   1.287   3.930  0.2466  0.6113 -0.2636
 1619TIP3   OH226271   0.284   4.698  15.534  0.5940 -0.1495 -0.9823
 1619TIP3    H126272   0.363   4.725  15.486 -0.2740  1.5523 -1.5162
 1619TIP3    H226273   0.298   4.732  15.622 -0.1590  1.5073 -1.4588
 1620TIP3   OH226274   5.351   3.280   3.998 -0.7003  0.5244  0.4439
 1620TIP3    H126275   5.295   3.252   4.070  0.7264 -0.5823  1.1871
 1620TIP3    H226276   5.436   3.239   4.016  0.2381  1.7649 -0.8610
 1621TIP3   OH226277   0.762   3.363  15.030 -0.0313 -0.7756  0.2657
 1621TIP3    H126278   0.835   3.300  15.038  0.9571  0.2947 -0.0582
 1621TIP3    H226279   0.785   3.432  15.092 -0.6879 -0.3349  0.0160
 1622TIP3   OH226280   5.818   2.372   2.146 -0.2092  0.4837  1.0616
 1622TIP3    H126281   5.804   2.279   2.165 -0.0806  0.5883  1.7060
 1622TIP3    H226282   5.758   2.418   2.205 -0.0304  0.8204  0.9856
 1623TIP3   OH226283   5.737   1.946  17.103  0.1978 -0.2635 -0.0543
 1623TIP3    H126284   5.774   1.932  17.191  1.6851  2.8041 -0.0731
 1623TIP3    H226285   5.813   1.965  17.048 -0.8223 -1.0876 -1.8359
 1624TIP3   OH226286   4.908   0.236   2.359 -0.2494 -1.2411 -0.1628
 1624TIP3    H126287   4.972   0.272   2.298 -0.8339  1.5163  0.7054
 1624TIP3    H226288   4.837   0.203   2.304 -0.3708  0.4119 -1.0669
 1625TIP3   OH226289   3.710   1.601  16.733 -0.6368  0.6360 -0.2727
 1625TIP3    H126290   3.787   1.636  16.687 -1.9122  0.3810 -2.7706
 1625TIP3    H226291   3.724   1.624  16.824  1.5401  2.1717 -0.9195
 1626TIP3   OH226292   2.080   4.332   4.625 -0.5973  0.0858 -0.0211
 1626TIP3    H126293   2.088   4.340   4.530 -0.5145  0.4202  0.0122
 1626TIP3    H226294   2.169   4.344   4.657 -0.7393  0.6941  0.1463
 1627TIP3   OH226295   5.361   4.070  13.148 -0.1657  0.4873  0.0181
 1627TIP3    H126296   5.280   4.050  13.100 -0.1959  0.4986  0.0645
 1627TIP3    H226297   5.361   4.008  13.222 -0.9206  1.5083  0.9150
 1628TIP3   OH226298   3.496   3.313  14.795  0.1135  0.7614 -0.2173
 1628TIP3    H126299   3.512   3.395  14.748  0.6397  0.1579 -1.1312
 1628TIP3    H226300   3.581   3.291  14.833  0.0645  0.4516 -0.2890
 1629TIP3   OH226301   1.937   3.137   1.012 -0.0531 -0.1551 -0.0627
 1629TIP3    H126302   1.903   3.117   1.099  4.5894 -0.0078  2.0297
 1629TIP3    H226303   1.937   3.233   1.008  0.1690 -0.1539 -0.0342
 1630TIP3   OH226304   4.401   2.741   4.655  0.4977  0.1068 -0.0370
 1630TIP3    H126305   4.455   2.751   4.733 -0.1727  1.1597  0.3181
 1630TIP3    H226306   4.337   2.674   4.677 -0.9075  1.7272  1.0658
 1631TIP3   OH226307   2.881   3.167  15.705 -0.7237 -0.4646 -0.2134
 1631TIP3    H126308   2.795   3.152  15.744 -1.1416 -1.4221 -1.4378
 1631TIP3    H226309   2.862   3.185  15.612  0.3508  0.0465 -0.3481
 1632TIP3   OH226310   4.551   2.871  12.377  0.0354 -0.0379 -0.6638
 1632TIP3    H126311   4.572   2.932  12.448 -0.5869 -0.1242 -0.3923
 1632TIP3    H226312   4.457   2.855  12.387  0.1040 -0.6888 -1.0102
 1633TIP3   OH226313   4.969   1.015  13.314 -0.2208  0.1955 -0.4697
 1633TIP3    H126314   4.884   1.029  13.272 -1.6801 -1.3398  1.6936
 1633TIP3    H226315   4.949   0.959  13.389  2.8527 -0.8871 -0.3120
 1634TIP3   OH226316   6.513   0.671   4.507  0.5276  0.3759 -0.3187
 1634TIP3    H126317   6.492   0.740   4.445 -3.2488 -0.0013  0.3188
 1634TIP3    H226318   6.519   0.715   4.592  0.1690  0.2149 -0.2055
 1635TIP3   OH226319   6.581   1.501  12.335  0.0834 -0.0147  0.1516
 1635TIP3    H126320   6.593   1.507  12.240 -0.1088 -0.8067  0.0683
 1635TIP3    H226321   6.668   1.518  12.371  0.0191  0.9786 -0.1255
 1636TIP3   OH226322   5.481   3.590  13.331  0.3856 -0.1533  0.0012
 1636TIP3    H126323   5.568   3.556  13.350  0.6027  0.0278 -0.6661
 1636TIP3    H226324   5.488   3.631  13.245 -0.1041  0.7650  0.3778
 1637TIP3   OH226325   5.334   1.554  16.825  0.5052  0.2587  0.0136
 1637TIP3    H126326   5.328   1.563  16.920  0.0169 -0.9932  0.1223
 1637TIP3    H226327   5.257   1.599  16.792  0.6773  0.7006  0.1981
 1638TIP3   OH226328   2.247   3.255   2.756  0.1142  0.9625  0.4668
 1638TIP3    H126329   2.321   3.221   2.807 -0.0571 -0.5578 -0.2267
 1638TIP3    H226330   2.170   3.216   2.798 -0.0537 -0.0183 -0.6914
 1639TIP3   OH226331   6.647   3.666   2.853 -0.1081  0.0700 -0.6082
 1639TIP3    H126332   6.674   3.574   2.859  0.2443 -0.0609 -3.1627
 1639TIP3    H226333   6.730   3.714   2.856 -0.2118  0.2350 -0.3991
 1640TIP3   OH226334   6.517   4.192  16.536  0.4428 -0.3885  0.3841
 1640TIP3    H126335   6.495   4.180  16.444 -1.6208 -3.0924  1.0783
 1640TIP3    H226336   6.610   4.172  16.542  0.8313  0.7442 -1.1844
 1641TIP3   OH226337   3.546   3.126   0.063 -0.2127 -0.2685 -0.3748
 1641TIP3    H126338   3.456   3.113   0.094 -1.1074  1.6618 -1.9371
 1641TIP3    H226339   3.569   3.213   0.093  0.7738 -0.3560 -0.8508
 1642TIP3   OH226340   2.880   2.632  13.927 -0.3515 -0.4723 -0.1274
 1642TIP3    H126341   2.939   2.639  13.851  1.1791 -0.4030  1.0106
 1642TIP3    H226342   2.856   2.722  13.947  0.6418 -0.3346  0.4964
 1643TIP3   OH226343   5.075   3.385  16.061  0.5049 -0.1392  0.1606
 1643TIP3    H126344   5.052   3.305  16.108 -0.2744  0.4123  0.7281
 1643TIP3    H226345   4.996   3.408  16.012  0.8297  0.1148 -0.2537
 1644TIP3   OH226346   3.852   1.256  12.106 -0.5649  0.2243  0.2575
 1644TIP3    H126347   3.873   1.271  12.198 -2.4523 -2.3892  1.2241
 1644TIP3    H226348   3.926   1.206  12.071 -0.6747 -0.3763  0.8757
 1645TIP3   OH226349   1.922   5.516   5.315  0.1613  0.1365  0.4818
 1645TIP3    H126350   1.872   5.438   5.293  0.8523  0.0141 -0.7046
 1645TIP3    H226351   1.859   5.573   5.358 -0.9022 -0.1868 -0.6021
 1646TIP3   OH226352   5.038   0.250  10.816  0.1157 -0.3952 -0.3674
 1646TIP3    H126353   4.988   0.169  10.806 -0.6975 -0.0538  0.7576
 1646TIP3    H226354   4.980   0.318  10.781 -0.9627  0.2181  2.3439
 1647TIP3   OH226355   0.438   5.335  14.139 -0.1282 -0.0509 -0.4651
 1647TIP3    H126356   0.513   5.393  14.132  0.2735 -0.5775 -0.5515
 1647TIP3    H226357   0.370   5.389  14.181  0.3392  0.3801 -0.2494
 1648TIP3   OH226358   5.035   0.554   4.622 -0.0085 -0.0257 -0.4527
 1648TIP3    H126359   4.944   0.538   4.646  0.0401 -0.0134 -0.2573
 1648TIP3    H226360   5.031   0.613   4.547 -0.1141  3.1406  1.8562
 1649TIP3   OH226361   4.608   4.812   0.610  0.4662  0.0528  0.0919
 1649TIP3    H126362   4.639   4.766   0.688  1.3284  1.2572  0.5102
 1649TIP3    H226363   4.571   4.894   0.644 -0.6074 -0.1123 -0.6495
 1650TIP3   OH226364   6.235   1.479  15.916 -0.2872 -0.1369  0.2349
 1650TIP3    H126365   6.167   1.491  15.850 -0.5694 -2.3312  0.0510
 1650TIP3    H226366   6.298   1.420  15.874  0.1233 -0.6401  1.5148
 1651TIP3   OH226367   1.718   0.651   1.713  1.0325 -0.0501  0.1116
 1651TIP3    H126368   1.684   0.721   1.769 -0.6957 -1.3011  0.7308
 1651TIP3    H226369   1.641   0.597   1.694  1.9618 -0.7531 -1.8896
 1652TIP3   OH226370   5.403   0.438   5.951 -0.2301  0.2048  0.2131
 1652TIP3    H126371   5.383   0.420   6.042 -2.0482  0.2770 -0.1297
 1652TIP3    H226372   5.318   0.435   5.906  0.6388 -0.1104 -1.5280
 1653TIP3   OH226373   3.759   0.705  14.536  0.5378  0.9047  0.0446
 1653TIP3    H126374   3.739   0.795  14.560 -1.7669  0.4920 -0.0355
 1653TIP3    H226375   3.749   0.703  14.440  2.4875  0.9487 -0.1968
 1654TIP3   OH226376   3.035   5.254   0.976 -0.0055  0.6508 -0.6476
 1654TIP3    H126377   3.037   5.349   0.966 -0.9749  0.7201 -0.2800
 1654TIP3    H226378   2.986   5.222   0.900 -1.5413  0.6416  0.2984
 1655TIP3   OH226379   5.983   2.850   4.693 -0.0629 -0.4827  0.3017
 1655TIP3    H126380   5.957   2.858   4.785 -1.6383 -0.4415 -0.1069
 1655TIP3    H226381   5.994   2.756   4.679  0.1884 -0.4889  0.5414
 1656TIP3   OH226382   0.478   4.735  15.325 -0.0268 -0.0757 -0.0222
 1656TIP3    H126383   0.517   4.654  15.294 -1.4175 -0.7427 -0.0891
 1656TIP3    H226384   0.411   4.756  15.259 -0.0452  0.8471  0.2682
 1657TIP3   OH226385   0.263   0.702   6.196 -0.4085  0.0959 -0.4806
 1657TIP3    H126386   0.189   0.733   6.249  0.1604  0.9961 -0.1854
 1657TIP3    H226387   0.324   0.666   6.260 -0.1797  0.2288 -0.6212
 1658TIP3   OH226388   1.487   3.832  13.906 -0.2400  0.1644 -0.0351
 1658TIP3    H126389   1.458   3.876  13.826 -1.2827 -0.1912  0.1362
 1658TIP3    H226390   1.499   3.740  13.879  3.8967  0.7470 -0.9218
 1659TIP3   OH226391   3.405   2.153   0.590  0.3445 -0.3528 -0.0752
 1659TIP3    H126392   3.460   2.097   0.646 -0.7522 -1.5452 -0.1388
 1659TIP3    H226393   3.440   2.140   0.502  0.5955 -0.3147  0.0179
 1660TIP3   OH226394   3.507   4.370   5.456 -0.2918  0.3797 -0.0842
 1660TIP3    H126395   3.516   4.280   5.488 -0.0350  0.5682  0.3845
 1660TIP3    H226396   3.492   4.422   5.535 -0.5871  0.7292 -0.3706
 1661TIP3   OH226397   2.547   6.400   0.765  0.1720  0.2919  0.5027
 1661TIP3    H126398   2.600   6.463   0.813  2.5009 -1.4739  0.3904
 1661TIP3    H226399   2.465   6.447   0.748  1.9264  3.4583 -0.0221
 1662TIP3   OH226400   5.690   1.489   1.776  0.2453  0.1654 -0.2999
 1662TIP3    H126401   5.713   1.397   1.762  0.7462  0.0253  1.2257
 1662TIP3    H226402   5.595   1.488   1.793 -0.4243  0.3655 -3.4789
 1663TIP3   OH226403   2.383   5.470   5.775  0.0440  0.4261 -0.5561
 1663TIP3    H126404   2.470   5.508   5.770 -0.0644  0.6818 -0.5160
 1663TIP3    H226405   2.373   5.423   5.692  0.9443 -1.2016  0.2170
 1664TIP3   OH226406   1.578   4.261  16.026  0.3768 -0.1834 -0.1418
 1664TIP3    H126407   1.656   4.212  16.002 -0.4399 -2.6676  1.8118
 1664TIP3    H226408   1.505   4.207  15.997 -0.6243  1.0434 -0.0137
 1665TIP3   OH226409   1.499   5.687   0.970  0.2975 -0.4878  0.3821
 1665TIP3    H126410   1.519   5.778   0.952 -1.2600  0.2194  1.9562
 1665TIP3    H226411   1.404   5.680   0.961  0.3467 -1.8648  0.6238
 1666TIP3   OH226412   1.333   4.511  16.928  0.5690 -0.3399  0.5125
 1666TIP3    H126413   1.423   4.518  16.895 -0.2507  3.3321 -1.4916
 1666TIP3    H226414   1.339   4.542  17.019  1.4796 -1.4832  0.8692
 1667TIP3   OH226415   5.499   4.571   1.910  0.2395 -0.0910  0.5381
 1667TIP3    H126416   5.494   4.564   2.005 -1.3488  2.8059  0.7842
 1667TIP3    H226417   5.556   4.646   1.895  2.7777 -2.1523 -0.9945
 1668TIP3   OH226418   0.222   0.215  15.634 -0.0091  0.2237  0.3461
 1668TIP3    H126419   0.303   0.174  15.603  1.2018  2.3287  0.5149
 1668TIP3    H226420   0.199   0.277  15.565  0.1187  1.6281  1.5199
 1669TIP3   OH226421   3.614   6.044  11.001  0.2655  0.1838 -0.3352
 1669TIP3    H126422   3.572   6.120  11.041 -1.1370 -1.3725  1.3275
 1669TIP3    H226423   3.576   5.969  11.047  1.0891 -1.5729 -2.3583
 1670TIP3   OH226424   1.393   3.189   5.465  0.3474 -0.0920  0.7106
 1670TIP3    H126425   1.324   3.254   5.451 -1.0889 -1.4537  1.1751
 1670TIP3    H226426   1.398   3.141   5.382  0.3217 -0.3668  0.8660
 1671TIP3   OH226427   3.898   3.104  10.741  0.2919 -0.0157  0.8226
 1671TIP3    H126428   3.982   3.147  10.721  1.6748 -2.2017  1.5985
 1671TIP3    H226429   3.919   3.041  10.810 -1.8619 -1.1430  0.5296
 1672TIP3   OH226430   1.040   5.882  17.099  0.6500 -0.6797  0.0994
 1672TIP3    H126431   0.980   5.822  17.054  0.9862 -0.6848 -0.3556
 1672TIP3    H226432   1.066   5.945  17.031  0.5995 -0.2435  0.4749
 1673TIP3   OH226433   2.847   3.131   2.695  1.0334 -0.3758 -0.1581
 1673TIP3    H126434   2.810   3.120   2.783  0.8504  1.3674  0.0185
 1673TIP3    H226435   2.941   3.142   2.710  0.7518  2.4719  0.1515
 1674TIP3   OH226436   4.018   0.227  13.418  0.3407  0.1781 -0.4643
 1674TIP3    H126437   4.019   0.254  13.509 -0.4828 -1.5989  0.1296
 1674TIP3    H226438   3.938   0.265  13.382  0.8027  1.1022 -0.5400
 1675TIP3   OH226439   0.116   0.123  13.538  0.3739 -0.2534  0.2591
 1675TIP3    H126440   0.139   0.041  13.583 -1.5956 -1.1011 -0.1715
 1675TIP3    H226441   0.172   0.124  13.460  2.4979  0.3135  1.7240
 1676TIP3   OH226442   3.170   6.505   4.226  0.5561 -0.1713  0.1536
 1676TIP3    H126443   3.084   6.542   4.249 -0.5116 -1.9384 -0.8069
 1676TIP3    H226444   3.188   6.442   4.296  1.7712  1.1250  1.0848
 1677TIP3   OH226445   5.677   2.325  17.072  0.4172  0.0289 -0.2576
 1677TIP3    H126446   5.693   2.279  16.990 -0.0345 -0.8892  0.1548
 1677TIP3    H226447   5.642   2.410  17.046 -1.3810 -0.8860 -1.0187
 1678TIP3   OH226448   0.506   1.864  14.198 -0.4751  0.1502  0.1373
 1678TIP3    H126449   0.424   1.845  14.244 -0.9835  0.5484 -0.5983
 1678TIP3    H226450   0.495   1.825  14.112  0.5362 -0.7198  0.3750
 1679TIP3   OH226451   5.198   4.375  13.503  0.2090 -0.5966  0.3574
 1679TIP3    H126452   5.163   4.342  13.420  0.2956 -0.8175  0.4092
 1679TIP3    H226453   5.179   4.306  13.566  1.4576 -1.0856  0.2244
 1680TIP3   OH226454   0.234   1.514  14.132 -0.4917 -0.3065  0.0232
 1680TIP3    H126455   0.244   1.420  14.151  0.6243 -0.6881 -2.0857
 1680TIP3    H226456   0.149   1.521  14.090 -0.4441 -0.4483 -0.0993
 1681TIP3   OH226457   0.944   6.662  15.375 -0.4099 -0.0306 -0.4910
 1681TIP3    H126458   0.951   6.592  15.311 -3.8357 -0.7407 -0.2771
 1681TIP3    H226459   0.870   6.715  15.346 -0.1265  1.4344  1.2380
 1682TIP3   OH226460   5.626   1.154   4.084  0.4461 -0.3321  0.0296
 1682TIP3    H126461   5.695   1.099   4.121 -0.6621 -1.3447  0.6259
 1682TIP3    H226462   5.552   1.095   4.071  0.4336  0.1701 -2.9084
 1683TIP3   OH226463   6.125   2.958  13.624  0.0437 -0.2160 -0.0145
 1683TIP3    H126464   6.209   2.911  13.632  0.0325 -0.1176  0.7893
 1683TIP3    H226465   6.094   2.937  13.536  0.4171 -1.0978  0.0520
 1684TIP3   OH226466   4.071   6.339  13.639  0.0595  0.2229  0.2157
 1684TIP3    H126467   4.095   6.362  13.549  1.9220 -1.7086  0.1303
 1684TIP3    H226468   3.982   6.373  13.650 -0.0907  0.8058 -2.2309
 1685TIP3   OH226469   5.036   5.515  11.287 -0.2735 -0.0536 -0.2950
 1685TIP3    H126470   4.964   5.563  11.246 -0.0738  1.1897  0.7418
 1685TIP3    H226471   5.077   5.467  11.215 -0.6585  1.1232 -1.3370
 1686TIP3   OH226472   3.316   0.025  13.940  0.3859  0.3634 -0.1136
 1686TIP3    H126473   3.386  -0.012  13.887 -2.1116 -0.7671 -2.9753
 1686TIP3    H226474   3.289  -0.045  13.999 -0.0980 -0.2158 -0.9927
 1687TIP3   OH226475   2.556   3.369   0.056  0.1716 -0.1166  0.0755
 1687TIP3    H126476   2.623   3.387  -0.010 -1.6142 -1.5756 -2.2986
 1687TIP3    H226477   2.504   3.450   0.060  0.4989  0.0996 -0.0307
 1688TIP3   OH226478   0.027   3.555   4.354 -0.0791  0.3147 -0.4088
 1688TIP3    H126479  -0.017   3.555   4.439  0.4816  0.2459 -0.1123
 1688TIP3    H226480   0.114   3.518   4.372 -0.8519 -2.2642 -1.4798
 1689TIP3   OH226481   6.011   5.863  13.909  0.1870  0.3467  0.4340
 1689TIP3    H126482   5.919   5.882  13.890 -0.4119 -1.9520  0.7814
 1689TIP3    H226483   6.037   5.932  13.970 -1.6536  0.4266  1.1892
 1690TIP3   OH226484   4.387   5.727  11.773  0.2768  0.1948  0.0581
 1690TIP3    H126485   4.459   5.720  11.836 -0.1878  2.8129  1.0004
 1690TIP3    H226486   4.308   5.715  11.825 -0.0771 -2.3665 -0.9231
 1691TIP3   OH226487   0.581   5.518  11.026  0.8765  1.1709  0.3036
 1691TIP3    H126488   0.495   5.525  10.983  0.7730 -2.1744 -0.2963
 1691TIP3    H226489   0.634   5.586  10.985 -0.6732  1.4145 -1.4438
 1692TIP3   OH226490   6.504   3.170  13.660 -0.3227 -0.0713 -0.2234
 1692TIP3    H126491   6.596   3.144  13.666 -0.6751 -1.0855  1.8844
 1692TIP3    H226492   6.469   3.116  13.588  0.9193  1.1342 -1.8018
 1693TIP3   OH226493   6.148   6.483   2.537  0.1401  0.1476  0.1354
 1693TIP3    H126494   6.172   6.424   2.608  0.1703  0.1848  0.1566
 1693TIP3    H226495   6.141   6.427   2.460  0.2527  0.1287  0.1380
 1694TIP3   OH226496   4.395   4.392  14.364 -0.0600  0.3342  0.8969
 1694TIP3    H126497   4.437   4.334  14.427 -0.3333 -1.3283 -0.3952
 1694TIP3    H226498   4.421   4.480  14.391  1.2620 -0.4442  2.2645
 1695TIP3   OH226499   4.339   5.780  13.909  0.5030  0.1880 -0.2514
 1695TIP3    H126500   4.291   5.861  13.929  1.2540  0.8551 -1.0739
 1695TIP3    H226501   4.354   5.783  13.815  2.3371  0.1180 -0.0067
 1696TIP3   OH226502   1.284   3.341  13.277 -0.1078 -0.4898  0.3185
 1696TIP3    H126503   1.302   3.435  13.283 -0.7039 -0.0530 -2.8968
 1696TIP3    H226504   1.370   3.300  13.274  0.1871  0.1362  0.0198
 1697TIP3   OH226505   4.303   3.146  11.451  0.0913  0.4233 -0.1274
 1697TIP3    H126506   4.374   3.088  11.421  1.4534  1.6719  0.5732
 1697TIP3    H226507   4.338   3.234  11.439 -0.3853  1.0348  2.5305
 1698TIP3   OH226508   1.144   3.654  11.380  0.1555  1.0023  0.8732
 1698TIP3    H126509   1.159   3.740  11.419 -0.6475  1.1006  0.9845
 1698TIP3    H226510   1.057   3.659  11.342  0.7768  0.7948 -0.6534
 1699TIP3   OH226511   3.059   2.717  12.372 -0.3702  0.5144 -0.2102
 1699TIP3    H126512   3.109   2.638  12.350  1.0440  1.2732  0.1460
 1699TIP3    H226513   2.976   2.707  12.325 -0.8359 -1.8611  0.9815
 1700TIP3   OH226514   4.036   6.672   5.211 -0.2239  0.5017 -0.1093
 1700TIP3    H126515   4.035   6.655   5.306 -0.6068 -0.1782 -0.2265
 1700TIP3    H226516   3.981   6.750   5.200 -0.4812  0.3683  0.1970
 1701TIP3   OH226517   0.601   5.124  12.244 -0.2632  0.2985  0.6047
 1701TIP3    H126518   0.510   5.117  12.275 -0.7988 -0.4467 -1.0171
 1701TIP3    H226519   0.652   5.075  12.309 -1.3973 -1.5753  0.1681
 1702TIP3   OH226520   4.801   3.165  12.126  0.4275  0.8526  0.3673
 1702TIP3    H126521   4.795   3.095  12.191  1.5207  1.4211  1.1251
 1702TIP3    H226522   4.748   3.236  12.164 -1.4708  0.1630 -0.8438
 1703TIP3   OH226523   0.223   6.629  16.130  0.9241  0.4235 -0.2466
 1703TIP3    H126524   0.264   6.656  16.048 -0.4110  0.2648 -0.9901
 1703TIP3    H226525   0.168   6.703  16.155 -0.8675 -0.5664 -1.0202
 1704TIP3   OH226526   3.302   2.909   3.416 -0.0565 -0.0886  0.6131
 1704TIP3    H126527   3.329   2.910   3.324  0.1296 -0.6846  0.6606
 1704TIP3    H226528   3.368   2.855   3.460 -0.0621  0.3162  1.1251
 1705TIP3   OH226529   2.369   2.084   6.061  0.4205  0.4658  0.9698
 1705TIP3    H126530   2.294   2.025   6.072 -0.4137  0.9912 -1.2946
 1705TIP3    H226531   2.444   2.027   6.051 -0.3837 -0.3264 -1.2635
 1706TIP3   OH226532   0.330   2.341  12.801 -0.3662 -0.2719 -0.3352
 1706TIP3    H126533   0.417   2.379  12.791 -1.3665  2.6927  0.8686
 1706TIP3    H226534   0.286   2.358  12.718 -0.4584  0.2554 -0.1831
 1707TIP3   OH226535   5.397   0.888   3.795 -0.0522  0.1820 -0.1229
 1707TIP3    H126536   5.364   0.810   3.750 -1.2755  0.0961  0.8702
 1707TIP3    H226537   5.484   0.863   3.825 -0.2914 -0.6837 -0.1198
 1708TIP3   OH226538   3.719   5.198   4.350 -0.0423 -0.2826  0.0703
 1708TIP3    H126539   3.811   5.200   4.378 -0.0875 -2.3022  0.5632
 1708TIP3    H226540   3.722   5.162   4.261 -0.3641 -0.7713  0.2513
 1709TIP3   OH226541   3.829   5.143  17.013  0.0306 -0.2469 -0.4861
 1709TIP3    H126542   3.900   5.091  17.051  0.4887  0.6909 -0.0336
 1709TIP3    H226543   3.830   5.225  17.063 -0.2934  0.4371 -1.5644
 1710TIP3   OH226544   1.599   4.097   5.882 -0.7713 -0.3037  0.4711
 1710TIP3    H126545   1.677   4.126   5.835 -1.6899 -1.0857 -1.6610
 1710TIP3    H226546   1.615   4.122   5.973  0.3830  2.8686 -0.4684
 1711TIP3   OH226547   2.560   3.506  11.796  0.4296 -0.7533  0.3086
 1711TIP3    H126548   2.497   3.435  11.802 -0.7398  0.1474 -0.7396
 1711TIP3    H226549   2.611   3.501  11.877 -0.3746 -2.0712  0.7450
 1712TIP3   OH226550   5.251   5.641   4.944  0.3549  0.3251  0.3889
 1712TIP3    H126551   5.262   5.719   4.999  1.7779  0.2376  0.2498
 1712TIP3    H226552   5.283   5.667   4.858  0.6814 -0.3683  0.2968
 1713TIP3   OH226553   0.806   4.850   5.885  0.0254  0.2850  0.0476
 1713TIP3    H126554   0.758   4.815   5.961  2.6277 -1.3505  1.1077
 1713TIP3    H226555   0.868   4.912   5.923  1.1325 -0.3021 -0.7399
 1714TIP3   OH226556   3.587   1.392   4.671  0.6374  0.0138  0.0234
 1714TIP3    H126557   3.507   1.398   4.619  0.9587 -0.9557 -0.6226
 1714TIP3    H226558   3.618   1.482   4.679 -3.3256  1.4058  4.9620
 1715TIP3   OH226559   6.497   2.837   4.641 -0.0359  0.4246  0.1459
 1715TIP3    H126560   6.461   2.896   4.708 -2.3753 -2.0832  1.3122
 1715TIP3    H226561   6.420   2.798   4.600  1.3790  0.6963 -3.0202
 1716TIP3   OH226562   0.397   2.569   2.349  0.3543  0.1841 -0.1199
 1716TIP3    H126563   0.387   2.564   2.254 -2.0102 -0.8857  0.1047
 1716TIP3    H226564   0.308   2.555   2.383  0.8867  1.8626  2.2300
 1717TIP3   OH226565   2.248   1.036   3.345 -0.3125  0.3449  0.1264
 1717TIP3    H126566   2.241   1.089   3.424  0.0677 -0.5034  0.7517
 1717TIP3    H226567   2.209   1.090   3.276  0.0145  1.4030  0.7400
 1718TIP3   OH226568   6.199   0.615   3.573  0.2227  0.2366 -0.4952
 1718TIP3    H126569   6.141   0.595   3.499  0.2524 -1.2371 -0.1466
 1718TIP3    H226570   6.143   0.605   3.650  0.0158  2.4198 -0.3066
 1719TIP3   OH226571   1.419   2.760  14.564  0.1622 -0.3289  0.0492
 1719TIP3    H126572   1.446   2.722  14.480  1.2798  2.2206 -0.8409
 1719TIP3    H226573   1.327   2.781  14.553  0.1533 -0.5683 -0.3321
 1720TIP3   OH226574   4.118   1.576  12.522 -0.0117  0.2703  0.6217
 1720TIP3    H126575   4.187   1.563  12.457 -0.6665  0.2969 -0.0964
 1720TIP3    H226576   4.141   1.659  12.564 -0.8429  1.5238 -1.2417
 1721TIP3   OH226577   2.640   4.907  15.346  0.2956  0.3032  0.0695
 1721TIP3    H126578   2.574   4.863  15.400  1.1153 -0.4543  0.4877
 1721TIP3    H226579   2.595   4.925  15.263 -0.6672  0.5266  0.6267
 1722TIP3   OH226580   6.389   6.562  14.198 -0.0581  0.1111 -0.6150
 1722TIP3    H126581   6.436   6.645  14.194 -0.6043  0.4063 -1.1562
 1722TIP3    H226582   6.458   6.495  14.196  0.3852  0.5463 -0.0815
 1723TIP3   OH226583   0.980   0.164   6.224  0.0872 -0.0906  0.1723
 1723TIP3    H126584   0.909   0.216   6.262 -0.7395 -1.0308 -0.0681
 1723TIP3    H226585   1.059   0.215   6.243 -0.7458  1.5559 -0.5868
 1724TIP3   OH226586   4.483   2.457  11.642 -1.4342 -0.2622 -0.1434
 1724TIP3    H126587   4.476   2.495  11.555  0.7631 -0.0874 -0.2958
 1724TIP3    H226588   4.435   2.518  11.699  1.6322  2.7350 -0.4295
 1725TIP3   OH226589   6.498   1.942   2.708 -0.1409  0.3881 -0.0403
 1725TIP3    H126590   6.507   2.034   2.680  0.0465 -0.1270 -1.8012
 1725TIP3    H226591   6.579   1.900   2.678 -0.7186 -0.5897 -0.2789
 1726TIP3   OH226592   2.457   0.980   4.419 -0.1307 -0.1047  0.4204
 1726TIP3    H126593   2.376   1.030   4.404  1.6098  3.2400  1.1445
 1726TIP3    H226594   2.501   0.980   4.334 -0.4740 -1.2190  0.2249
 1727TIP3   OH226595   6.300   1.723  15.018  0.3498  0.0662 -0.8325
 1727TIP3    H126596   6.291   1.675  15.100 -2.8787 -0.8741 -1.5896
 1727TIP3    H226597   6.265   1.664  14.951 -2.7520  2.8726 -1.9931
 1728TIP3   OH226598   0.989   3.923  14.890  0.1656  0.4999  0.2882
 1728TIP3    H126599   1.065   3.978  14.907 -0.4750  1.2929  0.6793
 1728TIP3    H226600   0.979   3.870  14.969  0.0355  0.7437  0.4386
 1729TIP3   OH226601   1.939   3.975  15.089 -0.3796  0.1202 -0.4738
 1729TIP3    H126602   1.878   3.976  15.015  0.9456 -0.0821 -1.5984
 1729TIP3    H226603   1.937   3.884  15.120  0.9908 -0.4406 -1.9388
 1730TIP3   OH226604   4.356   1.701  11.402 -0.3051  0.3679  0.3918
 1730TIP3    H126605   4.344   1.623  11.348  0.4147  0.8610 -0.5022
 1730TIP3    H226606   4.449   1.702  11.424 -0.6296  0.0218  1.9195
 1731TIP3   OH226607   4.870   1.829  10.998 -0.4495 -0.0033 -0.3594
 1731TIP3    H126608   4.878   1.743  11.039 -0.2180  0.2896  0.2186
 1731TIP3    H226609   4.798   1.819  10.936 -2.2783  0.1197  1.6525
 1732TIP3   OH226610   1.344   5.300  13.212 -0.1935 -0.1464 -0.2792
 1732TIP3    H126611   1.269   5.277  13.157 -0.8827  0.0068  0.5778
 1732TIP3    H226612   1.307   5.355  13.281  0.6764 -0.2309  0.2673
 1733TIP3   OH226613   6.725   2.459   5.530 -0.3224  0.4095 -0.1105
 1733TIP3    H126614   6.759   2.547   5.545  0.2230  0.3901 -1.1285
 1733TIP3    H226615   6.799   2.411   5.493 -0.3277 -0.7580  1.3033
 1734TIP3   OH226616   6.703   2.746  17.334 -0.6908 -0.3204 -0.6625
 1734TIP3    H126617   6.745   2.773  17.252  2.5778 -2.1841  0.2144
 1734TIP3    H226618   6.671   2.657  17.317 -0.7991 -0.3778 -0.1754
 1735TIP3   OH226619   3.461   0.632  11.151  0.0621 -0.3341 -0.2067
 1735TIP3    H126620   3.513   0.575  11.094 -0.1568 -1.8761  1.0727
 1735TIP3    H226621   3.520   0.704  11.173 -0.0030  0.5728 -2.7109
 1736TIP3   OH226622   4.396   0.697  15.957  0.1233  0.4788  0.2908
 1736TIP3    H126623   4.433   0.697  16.045  0.3693  0.6598  0.1874
 1736TIP3    H226624   4.302   0.699  15.970  0.1634  0.7374  0.5502
 1737TIP3   OH226625   6.453   4.237  12.698 -0.0743  0.5890  0.7923
 1737TIP3    H126626   6.437   4.144  12.688 -0.1626  0.8494 -3.0716
 1737TIP3    H226627   6.395   4.264  12.769 -2.2064 -1.8333  0.1249
 1738TIP3   OH226628   5.651   5.558  16.222 -0.3221 -0.3580  0.1842
 1738TIP3    H126629   5.632   5.464  16.225 -1.6625 -0.1005  0.4222
 1738TIP3    H226630   5.729   5.565  16.168 -0.4777 -1.5772 -0.2294
 1739TIP3   OH226631   1.033   1.239   4.068 -0.0157 -0.3658 -0.5171
 1739TIP3    H126632   0.993   1.169   4.016 -1.6880  0.0290  0.1738
 1739TIP3    H226633   0.969   1.258   4.136  0.8571  1.1430 -0.0658
 1740TIP3   OH226634   0.998   0.773  15.782  0.1615 -0.1779  0.2859
 1740TIP3    H126635   1.082   0.752  15.740  0.1826 -0.2432  0.3614
 1740TIP3    H226636   0.975   0.859  15.746 -1.1634 -1.3644 -1.9594
 1741TIP3   OH226637   0.955   4.194   3.034  0.4279  0.1256 -0.7635
 1741TIP3    H126638   1.032   4.140   3.048  1.3170  1.2288 -1.2786
 1741TIP3    H226639   0.926   4.173   2.945  0.6138  0.2986 -0.8650
 1742TIP3   OH226640   5.573   0.121  10.956  0.3637  0.3626  0.4466
 1742TIP3    H126641   5.505   0.155  10.898  0.8763  0.9832  0.2009
 1742TIP3    H226642   5.655   0.138  10.910  0.6043 -4.0589 -1.2682
 1743TIP3   OH226643   1.647   3.402  14.400 -0.3878 -0.0934  0.3398
 1743TIP3    H126644   1.597   3.389  14.480 -1.1526  2.4652  0.3877
 1743TIP3    H226645   1.627   3.492  14.374  0.7683 -0.4499 -2.0869
 1744TIP3   OH226646   5.709   5.755   3.849 -0.1266  0.5173  0.1696
 1744TIP3    H126647   5.701   5.689   3.780 -0.7787 -0.7137  1.3705
 1744TIP3    H226648   5.797   5.790   3.839  0.5861 -1.2173  0.0530
 1745TIP3   OH226649   2.037   2.386  11.693  0.1967  0.2008 -0.3760
 1745TIP3    H126650   1.999   2.423  11.772 -0.0268 -3.5429  1.5217
 1745TIP3    H226651   1.973   2.405  11.624 -2.0733 -0.4597  1.4011
 1746TIP3   OH226652   6.222   0.693   0.309  0.2676  0.4135  0.0502
 1746TIP3    H126653   6.224   0.783   0.341 -1.3205  0.2184  0.7735
 1746TIP3    H226654   6.192   0.641   0.383  0.7375 -0.6619 -0.4891
 1747TIP3   OH226655   2.782   1.119   4.901 -0.1086 -0.0592 -0.1133
 1747TIP3    H126656   2.836   1.148   4.975 -0.2665 -0.4543  0.1611
 1747TIP3    H226657   2.768   1.198   4.849  0.3295  0.1441  0.0736
 1748TIP3   OH226658   0.787   4.420  16.962  0.4587 -0.3950  0.5695
 1748TIP3    H126659   0.822   4.387  16.879 -0.1140  1.0113 -0.2570
 1748TIP3    H226660   0.707   4.466  16.938  0.6658  0.6683  1.8187
 1749TIP3   OH226661   3.766   3.114  16.115 -0.1379  0.2704 -0.0643
 1749TIP3    H126662   3.752   3.026  16.150  0.4470  0.2651  0.1666
 1749TIP3    H226663   3.729   3.172  16.181 -0.3488  0.2109 -0.1264
 1750TIP3   OH226664   2.874   2.792   3.366  0.2514 -0.0163  0.4238
 1750TIP3    H126665   2.800   2.734   3.346  0.4547  0.0094 -0.4062
 1750TIP3    H226666   2.887   2.843   3.287  0.8976  0.2711  0.7122
 1751TIP3   OH226667   2.942   6.457  15.555  0.1531 -0.1188  0.2032
 1751TIP3    H126668   2.907   6.373  15.527 -0.5240  0.1194  0.3117
 1751TIP3    H226669   2.873   6.520  15.533  0.4098  0.3264  0.6614
 1752TIP3   OH226670   0.909   3.230   2.826 -0.4028 -0.1773 -0.0358
 1752TIP3    H126671   0.952   3.179   2.895  0.0745 -2.0538 -1.6293
 1752TIP3    H226672   0.842   3.171   2.791 -3.2594  2.0939  1.2531
 1753TIP3   OH226673   6.675   4.646   5.634  0.2356  0.2911 -0.1037
 1753TIP3    H126674   6.728   4.690   5.567 -0.8276  0.5786 -0.7783
 1753TIP3    H226675   6.723   4.566   5.654  1.6846  1.2337  0.3869
 1754TIP3   OH226676   3.581   5.811  12.504 -0.2562 -0.2231  0.0810
 1754TIP3    H126677   3.505   5.792  12.559  0.2002 -0.8372  0.5046
 1754TIP3    H226678   3.573   5.753  12.429 -0.4488  0.0455 -0.1108
 1755TIP3   OH226679   5.867   5.528   2.141  0.3956 -0.4971  0.1855
 1755TIP3    H126680   5.844   5.445   2.100 -0.5100 -0.8740  1.3934
 1755TIP3    H226681   5.948   5.510   2.189  2.0310  0.2021 -2.1171
 1756TIP3   OH226682   0.040   1.778   5.524  0.4402 -0.6318  0.2962
 1756TIP3    H126683   0.007   1.692   5.498  0.4435 -0.4010 -0.5028
 1756TIP3    H226684   0.109   1.759   5.588 -0.2743 -1.1743  0.9134
 1757TIP3   OH226685   3.044   5.398   1.311  0.7936 -0.5733 -0.0104
 1757TIP3    H126686   3.039   5.376   1.404  2.5415  0.8362  0.4773
 1757TIP3    H226687   3.134   5.428   1.298  0.2722  0.3647 -1.9184
 1758TIP3   OH226688   5.355   4.400   4.065  0.1640  0.3487  0.5208
 1758TIP3    H126689   5.368   4.493   4.046  1.9708 -0.2265 -1.4039
 1758TIP3    H226690   5.277   4.376   4.015  1.4306  0.2192 -1.4985
 1759TIP3   OH226691   2.050   2.825  13.569  0.7549  0.5746  0.2657
 1759TIP3    H126692   2.128   2.877  13.589  2.3747  0.0254 -3.6254
 1759TIP3    H226693   2.081   2.735  13.565  1.0265  0.6049 -4.5908
 1760TIP3   OH226694   2.681   5.323  12.372  0.5392 -0.2981  0.1213
 1760TIP3    H126695   2.774   5.323  12.352  1.0173  1.4682  2.0091
 1760TIP3    H226696   2.639   5.353  12.292  1.6567 -0.2405 -0.4618
 1761TIP3   OH226697   5.438   3.178  12.468 -0.1341  0.3111 -0.0340
 1761TIP3    H126698   5.500   3.175  12.395  0.4963 -0.6310  0.5148
 1761TIP3    H226699   5.367   3.234  12.437 -1.9595 -3.2184 -3.0220
 1762TIP3   OH226700   3.608   0.500  15.468 -0.2539 -0.2837 -0.6979
 1762TIP3    H126701   3.628   0.492  15.561 -0.0494 -1.0266 -0.7972
 1762TIP3    H226702   3.661   0.574  15.439 -1.0545  0.5695 -0.0296
 1763TIP3   OH226703   5.071   0.594   3.704  0.2160  0.0454 -0.0116
 1763TIP3    H126704   5.120   0.514   3.722 -1.6888 -1.1353  0.1854
 1763TIP3    H226705   4.984   0.564   3.677 -0.5071  2.0476 -0.0953
 1764TIP3   OH226706   1.618   1.086  11.496 -0.3345  0.1644  0.0691
 1764TIP3    H126707   1.645   1.173  11.527 -2.7040  0.7192  0.7859
 1764TIP3    H226708   1.620   1.093  11.401 -0.8953  1.1547  0.1198
 1765TIP3   OH226709   6.153   5.179  17.252  0.0952  0.3152 -0.1415
 1765TIP3    H126710   6.076   5.147  17.300  0.2135  1.2470  0.7101
 1765TIP3    H226711   6.128   5.173  17.160  0.7037 -3.7292 -0.1999
 1766TIP3   OH226712   4.465   3.768  16.923 -0.0517 -0.7045 -0.1405
 1766TIP3    H126713   4.383   3.738  16.961 -0.1914  0.2607  0.3430
 1766TIP3    H226714   4.454   3.754  16.829 -0.6309 -0.9043 -0.0486
 1767TIP3   OH226715   4.488   4.291  14.867 -0.4052 -0.5838 -0.0987
 1767TIP3    H126716   4.401   4.325  14.889  0.1928 -0.2200  1.9510
 1767TIP3    H226717   4.547   4.364  14.886  0.3666 -0.8778 -1.3204
 1768TIP3   OH226718   3.999   0.335  17.205 -0.7899  0.3780 -0.6493
 1768TIP3    H126719   4.053   0.354  17.128 -0.2393 -0.6032 -0.5151
 1768TIP3    H226720   4.060   0.300  17.269 -1.5259 -0.3852 -0.3570
 1769TIP3   OH226721   0.367   2.483   3.939  0.1106 -0.3185  0.1949
 1769TIP3    H126722   0.350   2.570   3.974 -2.3117 -0.4972 -0.3715
 1769TIP3    H226723   0.380   2.428   4.016  0.2686  0.2816  0.5996
 1770TIP3   OH226724   3.098   2.885  15.014  0.3959 -0.2461  0.0815
 1770TIP3    H126725   3.178   2.924  15.050 -1.2383  1.0160  2.6882
 1770TIP3    H226726   3.095   2.797  15.051 -0.1282  0.2449  1.2637
 1771TIP3   OH226727   6.583   3.110  14.194 -0.1697 -0.4065 -0.0122
 1771TIP3    H126728   6.563   3.081  14.283 -3.0377 -1.1293 -0.8001
 1771TIP3    H226729   6.678   3.094  14.185  0.2793  0.0034  2.9557
 1772TIP3   OH226730   5.623   4.655   0.357 -0.3054 -0.1364 -0.2297
 1772TIP3    H126731   5.579   4.739   0.347 -0.0697 -0.1834 -1.8716
 1772TIP3    H226732   5.571   4.594   0.305  1.6208 -0.1994 -2.2258
 1773TIP3   OH226733   1.441   4.073  14.920  0.2927  0.1254 -0.1949
 1773TIP3    H126734   1.459   4.001  14.980  0.6972  0.3952  0.0127
 1773TIP3    H226735   1.514   4.134  14.933  1.5947 -0.7909 -2.4854
 1774TIP3   OH226736   4.090   6.431  11.625  0.4895 -0.5315  0.5025
 1774TIP3    H126737   4.005   6.419  11.666 -0.0694  1.3241 -0.0455
 1774TIP3    H226738   4.105   6.350  11.576 -2.5773  0.3652 -2.2463
 1775TIP3   OH226739   3.229   6.244  17.225 -0.1057  0.1958 -0.1275
 1775TIP3    H126740   3.311   6.219  17.181 -1.4103 -1.2282 -1.9410
 1775TIP3    H226741   3.256   6.303  17.295  2.6656 -1.6102  0.5163
 1776TIP3   OH226742   4.371   4.358   4.516 -0.0625  0.2103 -0.5892
 1776TIP3    H126743   4.283   4.359   4.553  1.0376 -0.2859  2.4005
 1776TIP3    H226744   4.404   4.447   4.528 -0.0079  0.2938 -1.3147
 1777TIP3   OH226745   2.792   5.100  12.756 -0.3475  0.3604 -0.4480
 1777TIP3    H126746   2.798   5.106  12.661  0.8011  0.3252 -0.3993
 1777TIP3    H226747   2.846   5.173  12.788 -0.2286  0.0090  0.1730
 1778TIP3   OH226748   0.679   4.075  14.876 -0.4490 -0.4040 -0.0793
 1778TIP3    H126749   0.740   4.098  14.947 -0.7729  0.3317 -0.0302
 1778TIP3    H226750   0.694   4.142  14.809 -3.1389  1.5678  1.0793
 1779TIP3   OH226751   4.244   4.093  16.912 -0.2888  0.0006  0.2747
 1779TIP3    H126752   4.213   4.032  16.845 -0.6598 -1.4654  1.7134
 1779TIP3    H226753   4.331   4.062  16.934  0.4884  1.4454 -0.6078
 1780TIP3   OH226754   2.990   3.262  16.813 -0.3136 -0.1463  0.6917
 1780TIP3    H126755   2.896   3.279  16.809 -0.2524  0.5105  1.6648
 1780TIP3    H226756   3.031   3.346  16.793  0.0703 -0.3709  0.5082
 1781TIP3   OH226757   4.292   3.416   1.269 -0.1726  0.4889  0.9579
 1781TIP3    H126758   4.266   3.392   1.358  1.2961  0.6612  1.4759
 1781TIP3    H226759   4.380   3.453   1.279  0.5965 -0.7391 -0.7248
 1782TIP3   OH226760   2.915   6.253   6.561 -0.3533  0.1922  0.1704
 1782TIP3    H126761   2.876   6.201   6.632  0.1415  0.6441  0.7873
 1782TIP3    H226762   3.007   6.228   6.561 -0.1896  0.7764  0.2196
 1783TIP3   OH226763   5.367   5.624  12.091  0.4692  0.4191 -0.3998
 1783TIP3    H126764   5.391   5.697  12.149  0.5431 -0.5159  0.7807
 1783TIP3    H226765   5.321   5.562  12.149  1.2612 -0.9139 -1.1647
 1784TIP3   OH226766   5.068   2.602   0.784 -0.5299  0.6800 -0.3108
 1784TIP3    H126767   5.110   2.562   0.860 -0.9166 -0.9987 -0.9353
 1784TIP3    H226768   5.140   2.632   0.729 -0.2433  1.4156  0.4645
 1785TIP3   OH226769   3.265   5.325  13.479  0.5251 -0.4737 -0.2192
 1785TIP3    H126770   3.192   5.373  13.518  1.1820  0.0320  0.4038
 1785TIP3    H226771   3.223   5.266  13.416 -0.4251 -0.2450  0.1776
 1786TIP3   OH226772   6.275   6.148  15.139  0.1029  0.3653  0.6626
 1786TIP3    H126773   6.266   6.198  15.057 -0.3587  0.0113  0.4947
 1786TIP3    H226774   6.361   6.173  15.172  1.0959 -0.8205 -0.8427
 1787TIP3   OH226775   0.794   0.880   1.925 -0.6426  0.0795 -0.2994
 1787TIP3    H126776   0.743   0.889   1.844 -0.7642  0.0820 -0.2223
 1787TIP3    H226777   0.787   0.965   1.967  1.5904  0.9759 -1.5511
 1788TIP3   OH226778   2.694   1.251   2.337  0.0045 -0.5354  0.1903
 1788TIP3    H126779   2.622   1.212   2.386  0.2430 -0.1656  0.8465
 1788TIP3    H226780   2.771   1.237   2.393  0.4937 -1.1775 -0.6274
 1789TIP3   OH226781   4.101   5.349  14.285 -0.3108  0.1545 -0.2477
 1789TIP3    H126782   4.127   5.270  14.332 -1.1010  0.1864  0.2658
 1789TIP3    H226783   4.168   5.413  14.307 -1.0004  0.3636  1.3930
 1790TIP3   OH226784   5.788   3.654  16.747 -0.1999  0.4696  0.0602
 1790TIP3    H126785   5.751   3.614  16.826 -0.5920 -0.0110 -0.3574
 1790TIP3    H226786   5.718   3.710  16.713 -0.9894 -1.2693 -1.3255
 1791TIP3   OH226787   3.642   0.719  14.296 -0.3285 -0.7292 -0.8323
 1791TIP3    H126788   3.552   0.703  14.326 -0.4101  0.9484 -0.0681
 1791TIP3    H226789   3.634   0.789  14.232  0.4178 -0.7389 -0.9407
 1792TIP3   OH226790   4.636   5.186  12.093  0.1090  0.1568 -0.2142
 1792TIP3    H126791   4.700   5.153  12.030  0.4671 -0.1418  0.3051
 1792TIP3    H226792   4.568   5.118  12.094 -0.3012  0.5434 -0.8755
 1793TIP3   OH226793   1.442   2.247  13.721 -0.2540 -0.7434 -0.2728
 1793TIP3    H126794   1.496   2.169  13.714  1.3319  0.4031 -1.6229
 1793TIP3    H226795   1.493   2.308  13.774 -1.0679 -0.3058  0.0311
 1794TIP3   OH226796   5.303   6.224  11.934  0.3690  0.3773  0.0384
 1794TIP3    H126797   5.378   6.282  11.922  1.2678 -0.6602  0.4420
 1794TIP3    H226798   5.338   6.136  11.916 -1.2382  0.0452 -1.7592
 1795TIP3   OH226799   0.845   1.725   0.736  0.2903  0.2310  0.1096
 1795TIP3    H126800   0.789   1.650   0.719  0.5326  0.1310 -0.2681
 1795TIP3    H226801   0.912   1.693   0.797 -0.4223  0.5180  1.0626
 1796TIP3   OH226802   3.875   1.967   3.009 -0.4541 -0.5246  0.0165
 1796TIP3    H126803   3.901   2.056   3.035 -0.3566 -1.1085  2.1729
 1796TIP3    H226804   3.934   1.944   2.938  1.1057  0.2967  0.9803
 1797TIP3   OH226805   4.270   3.250   3.162 -0.2397  0.0172  0.1753
 1797TIP3    H126806   4.230   3.330   3.195 -1.9997 -0.9273  0.4390
 1797TIP3    H226807   4.215   3.225   3.087  0.0593 -1.1371  0.3279
 1798TIP3   OH226808   3.739   0.574  16.221  0.1213 -0.0203  0.6407
 1798TIP3    H126809   3.717   0.536  16.136 -0.0198  0.0318  0.6537
 1798TIP3    H226810   3.686   0.653  16.227 -1.2235 -0.9385  1.5280
 1799TIP3   OH226811   0.901   3.446   5.703  0.0720 -0.1228  0.5093
 1799TIP3    H126812   0.897   3.535   5.737  0.3497  1.4418 -3.0769
 1799TIP3    H226813   0.954   3.398   5.767  0.4545  2.4404  2.2472
 1800TIP3   OH226814   2.290   2.692   1.217 -0.6736 -0.2010  0.7591
 1800TIP3    H126815   2.306   2.600   1.196 -0.6532 -0.1884  0.7184
 1800TIP3    H226816   2.274   2.692   1.312 -3.3744 -0.6204  0.3709
 1801TIP3   OH226817   4.733   0.952  11.502  0.0898 -0.3097  0.0007
 1801TIP3    H126818   4.770   1.010  11.436  0.4929  0.5630  0.9715
 1801TIP3    H226819   4.681   1.010  11.559  0.1042 -0.9660  0.6989
 1802TIP3   OH226820   5.105   4.008  11.717  0.2689  0.0203  0.3367
 1802TIP3    H126821   5.150   4.075  11.665  0.0711 -0.7707 -0.9166
 1802TIP3    H226822   5.096   3.934  11.656 -0.1264 -0.8866  1.4737
 1803TIP3   OH226823   3.568   3.612  11.772  0.1516  0.0423 -0.1666
 1803TIP3    H126824   3.494   3.566  11.731  0.4789  0.4058 -1.1957
 1803TIP3    H226825   3.646   3.564  11.741  0.3471 -0.9801  1.7084
 1804TIP3   OH226826   2.648   0.262   1.898  0.3747 -0.2011 -0.5173
 1804TIP3    H126827   2.586   0.199   1.862 -2.3282  0.9871  1.6393
 1804TIP3    H226828   2.606   0.347   1.886  1.9753  0.7729  0.3502
 1805TIP3   OH226829   3.387   0.047   5.725  0.3083  0.6520  0.5144
 1805TIP3    H126830   3.466   0.013   5.766 -0.0729 -0.1461  0.6043
 1805TIP3    H226831   3.390   0.141   5.741  2.2423  0.9521 -1.1653
 1806TIP3   OH226832   4.640   5.724   3.113 -0.4036 -0.0514  0.4179
 1806TIP3    H126833   4.644   5.639   3.069 -0.3118  0.7938 -1.2843
 1806TIP3    H226834   4.706   5.717   3.183  0.3617 -1.0142 -0.3600
 1807TIP3   OH226835   3.070   1.989  13.942 -0.1876 -0.1778 -1.3448
 1807TIP3    H126836   3.081   1.925  13.872 -1.0764 -0.9063 -0.8390
 1807TIP3    H226837   3.030   1.939  14.014  0.2917  0.6486 -0.4777
 1808TIP3   OH226838   4.921   3.795   2.159  0.4541 -0.5391 -0.3361
 1808TIP3    H126839   4.872   3.876   2.151 -1.1150 -1.3753  0.3504
 1808TIP3    H226840   4.855   3.726   2.155  1.7645 -1.8163 -1.1639
 1809TIP3   OH226841   2.008   0.728   0.008  0.5510  0.3772 -0.4802
 1809TIP3    H126842   2.024   0.712  -0.085  0.0518  1.0080 -0.6814
 1809TIP3    H226843   2.076   0.790   0.034 -0.8986  2.3372 -1.1111
 1810TIP3   OH226844   5.879   1.324   6.695  0.6726  0.0283 -0.0186
 1810TIP3    H126845   5.927   1.243   6.678 -0.6800 -0.4794 -1.7700
 1810TIP3    H226846   5.792   1.295   6.722  0.2575  0.8830 -0.3883
 1811TIP3   OH226847   5.662   0.553   6.018  0.1038  0.4402 -0.3181
 1811TIP3    H126848   5.583   0.500   6.005  0.8957 -0.8300 -0.1913
 1811TIP3    H226849   5.680   0.544   6.112 -0.0593  1.4084 -0.1898
 1812TIP3   OH226850   5.214   3.742  13.060  1.1814  0.2416 -0.4050
 1812TIP3    H126851   5.194   3.835  13.073  1.8036  0.2209  0.8656
 1812TIP3    H226852   5.194   3.701  13.144  1.4742 -0.6669 -0.7668
 1813TIP3   OH226853   6.493   4.485   0.842  0.2486  0.3963  0.5894
 1813TIP3    H126854   6.500   4.469   0.936 -0.2668  0.4111  0.6345
 1813TIP3    H226855   6.400   4.505   0.828  0.5071  1.4296  0.2409
 1814TIP3   OH226856   2.475   3.913   2.646  0.2808 -0.0734 -0.0017
 1814TIP3    H126857   2.510   3.995   2.682  0.3509 -0.3950  0.6809
 1814TIP3    H226858   2.546   3.880   2.591 -0.4673  1.3023 -1.9027
 1815TIP3   OH226859   5.840   0.138  16.831 -0.5486  0.1286  0.0888
 1815TIP3    H126860   5.862   0.121  16.923  0.7990 -1.9126 -0.5569
 1815TIP3    H226861   5.747   0.117  16.825 -0.5082 -0.3328  0.8527
 1816TIP3   OH226862   1.031   0.804   2.114  0.1544  0.0229  0.7658
 1816TIP3    H126863   1.028   0.709   2.105  0.0413  0.1354 -0.5516
 1816TIP3    H226864   0.976   0.837   2.043 -0.0620  1.0744  1.3960
 1817TIP3   OH226865   3.477   5.731   5.900 -0.3882 -0.0432  0.1407
 1817TIP3    H126866   3.539   5.687   5.959 -0.2282 -1.9812 -1.3944
 1817TIP3    H226867   3.533   5.779   5.839 -0.4600 -0.4011 -0.2055
 1818TIP3   OH226868   0.979   2.102  11.248 -0.3938 -0.1158 -0.0682
 1818TIP3    H126869   0.889   2.095  11.215 -0.5202 -4.0235  0.6364
 1818TIP3    H226870   0.969   2.120  11.341 -0.5252 -1.0116  0.1041
 1819TIP3   OH226871   3.762   3.058   6.247 -0.2126  0.7303 -0.1070
 1819TIP3    H126872   3.816   2.997   6.298 -0.4384 -0.2653 -1.0019
 1819TIP3    H226873   3.750   3.134   6.303 -2.0528 -1.0658  2.1076
 1820TIP3   OH226874   1.362   5.496   6.172 -0.0902  0.2057 -0.0932
 1820TIP3    H126875   1.270   5.520   6.184  0.5024  2.5059  0.2423
 1820TIP3    H226876   1.409   5.579   6.174  1.7272 -0.5726 -3.3982
 1821TIP3   OH226877   5.443   2.143   0.617  0.2610 -0.3539 -0.5499
 1821TIP3    H126878   5.456   2.237   0.604  1.1683 -0.8038 -3.7557
 1821TIP3    H226879   5.354   2.126   0.588 -1.0767 -0.1433  3.0004
 1822TIP3   OH226880   5.750   4.998   1.205 -0.6464  0.1268  0.2017
 1822TIP3    H126881   5.695   4.926   1.239 -0.0446 -0.1645  0.5724
 1822TIP3    H226882   5.833   4.989   1.252 -1.0580  1.9971  1.4065
 1823TIP3   OH226883   3.512   1.746  11.306 -0.0292 -0.6350  0.3693
 1823TIP3    H126884   3.565   1.705  11.373  0.9610 -1.2127 -0.7250
 1823TIP3    H226885   3.520   1.840  11.323  2.3793 -0.6202 -0.4526
 1824TIP3   OH226886   0.920   0.720   4.914  0.2878 -0.1063 -0.3922
 1824TIP3    H126887   0.932   0.644   4.971  1.5115 -1.5261 -2.3697
 1824TIP3    H226888   0.955   0.691   4.829 -0.9568  2.0449 -1.7312
 1825TIP3   OH226889   2.735   5.229  11.944  0.3903 -0.3564  0.8777
 1825TIP3    H126890   2.740   5.324  11.932  0.2392 -0.5415 -1.0294
 1825TIP3    H226891   2.799   5.194  11.881 -1.4112 -1.5904 -0.3466
 1826TIP3   OH226892   6.186   5.303  16.357  0.0803  0.3292 -0.6220
 1826TIP3    H126893   6.231   5.376  16.315  1.3102 -0.0099  0.0711
 1826TIP3    H226894   6.102   5.340  16.386  0.8037  1.5426 -0.0319
 1827TIP3   OH226895   5.903   1.814   1.938 -0.6938  0.2933 -0.1821
 1827TIP3    H126896   5.942   1.892   1.899  0.2157  0.2107  0.5341
 1827TIP3    H226897   5.956   1.797   2.015 -1.4811 -0.4779  0.2002
 1828TIP3   OH226898   1.675   3.925   5.516 -0.3093 -0.2689  0.1167
 1828TIP3    H126899   1.701   4.013   5.544 -0.5957  0.7666 -2.6261
 1828TIP3    H226900   1.737   3.902   5.447 -1.1061 -1.6243 -0.1852
 1829TIP3   OH226901   3.081   1.029  15.522  0.3083 -0.4798  0.4639
 1829TIP3    H126902   3.018   1.098  15.501  1.2277  0.0806 -0.5402
 1829TIP3    H226903   3.030   0.964  15.571 -0.8611  0.3212  0.3430
 1830TIP3   OH226904   6.438   2.660   5.631  0.4100 -0.3202 -0.1039
 1830TIP3    H126905   6.468   2.627   5.716 -0.0697 -0.2129  0.1146
 1830TIP3    H226906   6.342   2.656   5.637  0.2690  2.2152  0.4032
 1831TIP3   OH226907   0.679   4.487  16.132  0.3433  0.3019  0.5176
 1831TIP3    H126908   0.698   4.571  16.090  0.6931  0.9818  1.9876
 1831TIP3    H226909   0.636   4.509  16.214 -0.5841 -1.0105  0.4221
 1832TIP3   OH226910   0.681   5.759  13.358 -0.5582 -0.2224 -0.9423
 1832TIP3    H126911   0.742   5.833  13.361 -0.4033 -0.3199 -1.5599
 1832TIP3    H226912   0.610   5.784  13.417  0.4610 -0.4626  0.4444
 1833TIP3   OH226913   1.230   2.214   2.459 -0.2343 -0.1047  0.7300
 1833TIP3    H126914   1.322   2.194   2.441 -0.2420  0.8017 -0.3987
 1833TIP3    H226915   1.190   2.226   2.373 -1.4626 -0.6244  1.1909
 1834TIP3   OH226916   0.847   3.831  15.849 -0.0733 -0.1499 -0.6103
 1834TIP3    H126917   0.817   3.799  15.764  1.8834  0.9357 -1.7669
 1834TIP3    H226918   0.939   3.808  15.852  0.1411  0.7911  0.7606
 1835TIP3   OH226919   3.322   6.679  14.861 -0.0294 -0.6383 -0.6112
 1835TIP3    H126920   3.283   6.651  14.779 -1.0018  1.1698 -0.8157
 1835TIP3    H226921   3.253   6.728  14.905  1.2879  0.6778  0.0801
 1836TIP3   OH226922   0.756   0.094   1.039  0.6789 -0.2917 -0.2238
 1836TIP3    H126923   0.662   0.111   1.034  0.5453 -0.8535  0.2708
 1836TIP3    H226924   0.778   0.106   1.132  1.3515  1.0990 -0.5373
 1837TIP3   OH226925   4.851   1.941  14.969 -0.3574  0.5763  0.1258
 1837TIP3    H126926   4.935   1.896  14.964 -0.1830  0.9244 -0.1188
 1837TIP3    H226927   4.792   1.888  14.914 -0.5781 -0.2630  1.1478
 1838TIP3   OH226928   4.758   2.348   2.211  0.3292  0.1671  0.7441
 1838TIP3    H126929   4.793   2.259   2.211  0.0521  0.0336 -0.5753
 1838TIP3    H226930   4.663   2.336   2.213  0.3010  0.4721  1.7411
 1839TIP3   OH226931   6.488   3.750  13.692  0.0263 -0.0688 -0.3331
 1839TIP3    H126932   6.434   3.719  13.619  0.7343  0.0008 -0.8871
 1839TIP3    H226933   6.567   3.696  13.689  1.3383  1.8062 -1.3874
 1840TIP3   OH226934   5.228   2.801   1.677 -0.2715  0.1644  0.1243
 1840TIP3    H126935   5.154   2.770   1.729 -0.4423 -0.7008 -0.6185
 1840TIP3    H226936   5.240   2.734   1.610  1.0258  0.4187  0.0783
 1841TIP3   OH226937   3.740   1.503   2.088  0.0104 -0.5882 -0.6145
 1841TIP3    H126938   3.798   1.427   2.086  1.2536  0.2846  0.5753
 1841TIP3    H226939   3.665   1.477   2.035  0.1772 -2.8115  0.1293
 1842TIP3   OH226940   5.558   6.660  13.008 -0.1823 -0.4096  0.1035
 1842TIP3    H126941   5.645   6.643  12.973 -0.5616  0.5751 -1.3750
 1842TIP3    H226942   5.574   6.694  13.096  0.9281 -0.2830 -0.1390
 1843TIP3   OH226943   1.811   5.308  13.146  0.4233  0.1662 -0.3840
 1843TIP3    H126944   1.817   5.331  13.238 -0.0178 -0.9531 -0.0637
 1843TIP3    H226945   1.719   5.320  13.124  0.1555 -1.3127 -0.1804
 1844TIP3   OH226946   4.917   3.946   1.563 -0.1319  0.0424 -0.1965
 1844TIP3    H126947   4.874   3.909   1.486  0.9827  0.6847 -1.1828
 1844TIP3    H226948   4.989   3.886   1.582 -0.7864 -0.4601  0.7737
 1845TIP3   OH226949   0.447   2.959  11.643  0.2536  0.1185  0.8166
 1845TIP3    H126950   0.510   2.947  11.572  1.6808 -1.7241  2.3101
 1845TIP3    H226951   0.379   2.893  11.626  1.4905 -1.5568  2.0151
 1846TIP3   OH226952   6.151   1.667  17.348  0.0716  0.4352  0.4097
 1846TIP3    H126953   6.194   1.628  17.425 -0.7251  0.9943  1.1569
 1846TIP3    H226954   6.160   1.761  17.360  0.0441  0.5261 -0.2522
 1847TIP3   OH226955   5.044   5.753   2.675  0.1101  0.6929  0.0802
 1847TIP3    H126956   5.020   5.737   2.584 -0.2088 -4.3330  0.7149
 1847TIP3    H226957   4.962   5.742   2.724  0.7545  0.4351  1.1416
 1848TIP3   OH226958   4.180   2.172   2.516 -0.1680  0.5683 -0.1374
 1848TIP3    H126959   4.136   2.087   2.506  0.3313  0.3011 -0.0739
 1848TIP3    H226960   4.200   2.178   2.609 -1.0969  1.2121  0.0419
 1849TIP3   OH226961   2.266   2.521   3.184  0.4436  0.2282 -0.1711
 1849TIP3    H126962   2.174   2.493   3.183  0.4877  0.0042 -2.2526
 1849TIP3    H226963   2.262   2.615   3.166  0.6136  0.1394 -0.7084
 1850TIP3   OH226964   0.503   5.061  15.464 -0.6247  0.2210 -0.1900
 1850TIP3    H126965   0.425   5.057  15.518 -0.7493 -1.1412 -0.4136
 1850TIP3    H226966   0.511   5.152  15.437 -0.4486  1.0003  2.2628
 1851TIP3   OH226967   4.023   2.313  16.321 -0.0411  0.1826  0.3348
 1851TIP3    H126968   3.992   2.395  16.283  3.5562  0.7730 -1.7941
 1851TIP3    H226969   4.004   2.247  16.254  0.8777  0.1006  0.1419
 1852TIP3   OH226970   0.505   1.831  12.063 -0.4549 -0.1413 -0.1497
 1852TIP3    H126971   0.448   1.901  12.033  1.6932  3.4586  3.2604
 1852TIP3    H226972   0.583   1.838  12.008 -1.0159 -1.3957 -1.1724
 1853TIP3   OH226973   2.720   4.742   3.163  0.6807  0.0763 -0.1834
 1853TIP3    H126974   2.696   4.814   3.222 -0.3474 -0.0958 -0.3664
 1853TIP3    H226975   2.689   4.771   3.077  1.2095 -0.1324 -0.4429
 1854TIP3   OH226976   1.218   5.200   0.053 -0.4744 -0.2472  0.7126
 1854TIP3    H126977   1.213   5.217  -0.041 -2.0996  0.7990  0.9537
 1854TIP3    H226978   1.280   5.127   0.061 -0.3787 -0.4150 -1.1584
 1855TIP3   OH226979   5.469   4.474   0.169 -0.0073  0.0779  0.0462
 1855TIP3    H126980   5.396   4.470   0.107  0.5670  3.6334 -1.1135
 1855TIP3    H226981   5.529   4.405   0.142 -1.3605 -0.6615 -1.1631
 1856TIP3   OH226982   4.234   2.350   0.137 -0.2607 -0.5758 -0.4495
 1856TIP3    H126983   4.209   2.341   0.228 -0.0447  1.8199 -0.0990
 1856TIP3    H226984   4.306   2.413   0.138 -0.9811  0.3523 -2.3598
 1857TIP3   OH226985   5.427   6.561  12.208  0.6208 -0.4644  0.2889
 1857TIP3    H126986   5.510   6.606  12.190 -0.2701  0.8976 -0.6461
 1857TIP3    H226987   5.383   6.615  12.273  0.6488 -1.4365  1.1431
 1858TIP3   OH226988   5.337   3.496  14.118 -0.2383  0.2251 -0.3851
 1858TIP3    H126989   5.270   3.432  14.144  0.6818 -0.6268 -0.0242
 1858TIP3    H226990   5.404   3.489  14.186  0.6462  0.3805 -1.2195
 1859TIP3   OH226991   5.111   2.283   4.066  0.3972  0.3731 -0.5335
 1859TIP3    H126992   5.098   2.198   4.108 -0.6997  0.4839 -0.6183
 1859TIP3    H226993   5.157   2.262   3.984  0.5027 -0.0834 -0.3619
 1860TIP3   OH226994   1.906   3.497   0.012 -0.0887  0.3417  0.2926
 1860TIP3    H126995   1.994   3.461  -0.003 -1.0467 -2.1150  0.1565
 1860TIP3    H226996   1.870   3.445   0.083 -1.8227  0.5979 -0.3509
 1861TIP3   OH226997   3.478   6.498  14.337  0.5806  0.1542 -0.5011
 1861TIP3    H126998   3.516   6.416  14.369  0.4906  0.0668 -0.6184
 1861TIP3    H226999   3.489   6.493  14.242  1.0626  0.5195 -0.4696
 1862TIP3   OH227000   6.635   5.486   1.928  0.7436  0.1289 -0.4410
 1862TIP3    H127001   6.546   5.459   1.952  0.5395  0.8289 -0.3938
 1862TIP3    H227002   6.690   5.412   1.956  0.3619  0.3737  1.0527
 1863TIP3   OH227003   5.905   2.901  17.190  0.3104  0.2023 -0.1788
 1863TIP3    H127004   5.839   2.908  17.121 -0.6315  0.7260  0.7459
 1863TIP3    H227005   5.854   2.904  17.271  1.4466  0.2023  0.5430
 1864TIP3   OH227006   2.488   2.870   4.179 -0.1987 -0.5589  0.3506
 1864TIP3    H127007   2.568   2.906   4.217 -0.3139  0.4733 -0.3577
 1864TIP3    H227008   2.487   2.779   4.209  1.8321 -0.9410 -0.5587
 1865TIP3   OH227009   4.728   0.214   3.843  0.4422 -0.2821 -0.1836
 1865TIP3    H127010   4.805   0.270   3.832 -0.6273  1.0201 -1.6003
 1865TIP3    H227011   4.761   0.125   3.835  2.0305  0.1624  0.9633
 1866TIP3   OH227012   2.387   5.177  10.908  0.0711 -0.3089  0.4175
 1866TIP3    H127013   2.336   5.244  10.954  0.1675 -0.0592  0.1658
 1866TIP3    H227014   2.392   5.209  10.817 -0.5451 -1.0440  0.1188
 1867TIP3   OH227015   6.518   4.896   2.602  0.1003 -0.0260  0.1412
 1867TIP3    H127016   6.588   4.886   2.538  0.1543  0.2334  0.1575
 1867TIP3    H227017   6.444   4.928   2.551 -0.3174 -1.2518 -0.0532
 1868TIP3   OH227018   6.698   3.310   1.545  0.3585  0.2247  0.4431
 1868TIP3    H127019   6.770   3.307   1.608  0.3924 -0.8263  0.3750
 1868TIP3    H227020   6.732   3.361   1.472  1.3126 -0.8467  0.1064
 1869TIP3   OH227021   4.886   5.580  13.884 -0.1486  0.5372  0.2449
 1869TIP3    H127022   4.930   5.665  13.877 -0.8983  0.8693 -0.6378
 1869TIP3    H227023   4.827   5.578  13.809  0.2053 -0.9788 -0.0256
 1870TIP3   OH227024   6.190   2.805   1.814  0.1443 -0.3233 -0.8298
 1870TIP3    H127025   6.154   2.728   1.772  0.7574 -0.3559 -1.2958
 1870TIP3    H227026   6.221   2.774   1.899 -0.7087 -0.3386 -0.5117
 1871TIP3   OH227027   1.109   1.828   4.569 -0.5425 -0.0638  0.0209
 1871TIP3    H127028   1.154   1.775   4.635 -0.8085 -2.2168 -1.4019
 1871TIP3    H227029   1.168   1.902   4.554 -0.3309  0.3104  2.3854
 1872TIP3   OH227030   2.170   5.691   4.110 -0.1021 -0.0873  0.3766
 1872TIP3    H127031   2.095   5.642   4.144  0.0432  0.6435  1.8216
 1872TIP3    H227032   2.132   5.761   4.058 -0.3350 -1.0236 -0.7708
 1873TIP3   OH227033   4.024   4.768  11.539  0.3252  0.1238  0.3706
 1873TIP3    H127034   4.003   4.860  11.554 -0.8197 -0.3875  2.2746
 1873TIP3    H227035   4.090   4.748  11.606 -0.7983 -0.8683  1.2237
 1874TIP3   OH227036   0.645   2.608  15.630  0.1934  0.0322  0.1613
 1874TIP3    H127037   0.731   2.638  15.601  0.0517 -0.1150 -0.4248
 1874TIP3    H227038   0.593   2.602  15.550 -0.1606 -0.5254  0.4233
 1875TIP3   OH227039   0.449   0.211   3.418  0.3925  0.1065  0.6687
 1875TIP3    H127040   0.502   0.202   3.339  1.1494 -0.9263  1.2680
 1875TIP3    H227041   0.358   0.214   3.387  0.7666  3.3192 -0.4984
 1876TIP3   OH227042   1.450   2.332   4.157 -0.2830 -0.2762 -0.1465
 1876TIP3    H127043   1.425   2.322   4.065 -3.7847 -0.1803  0.6608
 1876TIP3    H227044   1.473   2.424   4.166 -0.3654 -0.1841 -0.8573
 1877TIP3   OH227045   3.337   6.147  13.202  0.8654  0.3889 -0.1695
 1877TIP3    H127046   3.259   6.189  13.168 -0.8115 -0.9858  1.7406
 1877TIP3    H227047   3.352   6.072  13.144 -0.2995 -0.3167  0.4004
 1878TIP3   OH227048   2.368   5.215  14.225  0.1285 -0.5768 -0.0049
 1878TIP3    H127049   2.413   5.132  14.211  0.2357 -0.8545  1.6969
 1878TIP3    H227050   2.332   5.208  14.314 -1.1122  0.6274 -0.3659
 1879TIP3   OH227051   1.107   1.826  17.224  0.2902 -0.6641  0.0926
 1879TIP3    H127052   1.186   1.878  17.212 -0.4180  0.3559 -0.2778
 1879TIP3    H227053   1.120   1.749  17.169  2.0415 -1.7290  1.8733
 1880TIP3   OH227054   5.475   1.351  13.174 -0.0641 -0.3573  0.1324
 1880TIP3    H127055   5.419   1.301  13.234 -1.4653 -0.3298 -1.1037
 1880TIP3    H227056   5.518   1.415  13.231 -1.3822 -0.2962  1.1281
 1881TIP3   OH227057   4.324   4.963   0.688 -0.4920 -0.0817 -0.1321
 1881TIP3    H127058   4.398   4.986   0.631 -0.2659  0.5257  0.3941
 1881TIP3    H227059   4.267   4.910   0.632  0.1317 -0.2002 -0.6729
 1882TIP3   OH227060   4.878   4.388  12.511  0.7101 -0.3493 -0.5668
 1882TIP3    H127061   4.892   4.459  12.449  0.1954  1.8778  1.6946
 1882TIP3    H227062   4.801   4.414  12.561  1.8238 -1.3547  1.8502
 1883TIP3   OH227063   4.129   6.225  11.435 -0.0360  0.1499 -0.2053
 1883TIP3    H127064   4.164   6.136  11.424 -0.8509 -0.2773  0.4999
 1883TIP3    H227065   4.034   6.213  11.440 -0.1365  1.0220  0.2291
 1884TIP3   OH227066   1.152   1.305   4.951  0.0474 -0.1657 -0.4705
 1884TIP3    H127067   1.189   1.222   4.981 -0.2073  0.2691  1.1681
 1884TIP3    H227068   1.099   1.282   4.875 -1.4505 -1.8069  0.9859
 1885TIP3   OH227069   1.889   3.474   4.216  0.4647  0.2912 -0.2624
 1885TIP3    H127070   1.905   3.455   4.308 -1.2341  2.0226  0.4673
 1885TIP3    H227071   1.861   3.391   4.178 -1.3123  0.0384  1.4303
 1886TIP3   OH227072   1.578   5.549  16.713  0.3286 -0.1952 -0.2197
 1886TIP3    H127073   1.648   5.493  16.746  0.4270 -0.9776 -1.6541
 1886TIP3    H227074   1.605   5.572  16.624 -0.3750  1.0138 -0.1479
 1887TIP3   OH227075   0.989   1.470  17.158  0.4236  0.1231  0.1609
 1887TIP3    H127076   0.924   1.399  17.153 -0.6315  0.9888  1.0477
 1887TIP3    H227077   1.011   1.489  17.067 -1.3576  0.5064 -0.2172
 1888TIP3   OH227078   3.323   5.182  14.887 -0.5675 -0.0406  0.2282
 1888TIP3    H127079   3.287   5.150  14.804  1.1795 -0.9603 -0.2159
 1888TIP3    H227080   3.370   5.262  14.863  1.0451 -0.9908  0.0287
 1889TIP3   OH227081   2.731   1.690  15.333 -0.2078  0.2679 -0.9279
 1889TIP3    H127082   2.729   1.768  15.388  0.7398 -0.1585 -0.2600
 1889TIP3    H227083   2.747   1.618  15.395  3.1986  0.0069 -1.9177
 1890TIP3   OH227084   2.943   6.425   4.050 -0.5607 -0.2338  0.4751
 1890TIP3    H127085   2.933   6.480   4.128 -1.8587 -1.8321  1.4935
 1890TIP3    H227086   3.033   6.393   4.055 -0.1998  0.7494  0.5634
 1891TIP3   OH227087   0.607   2.200   6.232  0.0172 -0.3232  0.1673
 1891TIP3    H127088   0.529   2.251   6.208 -0.9781 -0.7615  2.2644
 1891TIP3    H227089   0.584   2.109   6.210 -0.2534 -0.5045  1.1371
 1892TIP3   OH227090   3.094   2.827  15.717 -0.1194  0.3335 -0.1346
 1892TIP3    H127091   3.189   2.813  15.717 -0.1748 -0.0888 -1.0217
 1892TIP3    H227092   3.064   2.791  15.800  0.3295 -0.7552 -0.4377
 1893TIP3   OH227093   1.757   4.432  17.018 -0.4949 -0.2284  0.6407
 1893TIP3    H127094   1.801   4.363  16.968 -0.3897  0.5756 -0.3920
 1893TIP3    H227095   1.676   4.449  16.969 -0.8738 -0.1128  1.2930
 1894TIP3   OH227096   2.081   1.245   6.228 -0.3584 -0.3898  0.2485
 1894TIP3    H127097   2.119   1.177   6.283 -1.2280 -1.8616 -0.9011
 1894TIP3    H227098   2.024   1.295   6.287  0.7294 -0.2598  1.2314
 1895TIP3   OH227099   0.223   1.728  17.266 -0.2874  0.3655 -0.5883
 1895TIP3    H127100   0.303   1.778  17.280  0.6951 -0.9630 -1.2917
 1895TIP3    H227101   0.210   1.680  17.348  0.2212 -0.2256 -0.8552
 1896TIP3   OH227102   5.929   2.336   3.624  0.0018  0.2712 -0.6494
 1896TIP3    H127103   6.002   2.338   3.686  0.5140 -0.5289 -1.2084
 1896TIP3    H227104   5.872   2.408   3.651  0.6010  0.4095  0.2774
 1897TIP3   OH227105   5.085   2.368  11.923  1.0187  0.2345  0.1836
 1897TIP3    H127106   5.084   2.445  11.866 -0.1335 -1.4244 -2.2472
 1897TIP3    H227107   5.000   2.325  11.906  1.1460 -0.9781  2.3133
 1898TIP3   OH227108   6.231   0.543   1.802  0.4713 -0.0320  0.3493
 1898TIP3    H127109   6.291   0.567   1.732 -0.3307  0.2080 -0.2729
 1898TIP3    H227110   6.276   0.473   1.849  0.2017 -1.6526 -1.6379
 1899TIP3   OH227111   5.190   6.294  12.685 -0.0480 -0.5230  0.0625
 1899TIP3    H127112   5.202   6.389  12.679 -0.1722 -0.5472 -0.6199
 1899TIP3    H227113   5.171   6.266  12.596 -0.5099 -1.1233  0.3406
 1900TIP3   OH227114   4.699   3.901   2.788  0.2326  0.3029 -0.0767
 1900TIP3    H127115   4.674   3.934   2.701 -0.2488 -0.0745 -0.0864
 1900TIP3    H227116   4.663   3.812   2.790  1.9105 -0.4010 -0.2286
 1901TIP3   OH227117   0.453   2.830  12.147 -0.0096  0.3276  0.4474
 1901TIP3    H127118   0.489   2.755  12.195  2.6183  1.5110  0.4950
 1901TIP3    H227119   0.510   2.839  12.071 -0.2029  2.3106  0.4848
 1902TIP3   OH227120   2.067   6.227  14.659  0.8622  0.1807 -0.3553
 1902TIP3    H127121   1.990   6.284  14.654 -0.8466 -2.0769 -1.8256
 1902TIP3    H227122   2.116   6.246  14.579 -0.3726 -1.1617 -1.5026
 1903TIP3   OH227123   1.543   1.204   4.734 -0.1918  0.0091  0.7340
 1903TIP3    H127124   1.513   1.217   4.823 -0.0295  2.1481  0.5242
 1903TIP3    H227125   1.471   1.235   4.679 -0.6372 -2.0743  0.0656
 1904TIP3   OH227126   2.508   1.099  13.513 -0.4898  0.4270 -0.4601
 1904TIP3    H127127   2.471   1.139  13.434  1.2588  2.7379 -0.2036
 1904TIP3    H227128   2.568   1.032  13.480  0.1226  1.2798 -1.1199
 1905TIP3   OH227129   4.693   2.689   5.094 -0.4539  0.3243 -0.4740
 1905TIP3    H127130   4.606   2.674   5.130  0.1000 -1.1218  0.3542
 1905TIP3    H227131   4.746   2.717   5.169 -0.0018  0.2773 -0.7688
 1906TIP3   OH227132   4.853   4.291  13.522 -0.0462 -0.1621  0.0568
 1906TIP3    H127133   4.778   4.339  13.489 -0.6804 -1.7854 -0.9509
 1906TIP3    H227134   4.911   4.359  13.557 -1.6656  1.1716  0.2762
 1907TIP3   OH227135   4.515   5.937  15.509  0.3718  0.2419 -0.2852
 1907TIP3    H127136   4.487   5.847  15.494 -0.4642  0.2860  0.8796
 1907TIP3    H227137   4.436   5.982  15.538  0.9931  1.1284  0.0627
 1908TIP3   OH227138   3.796   5.911  11.703  0.6502  0.0118 -0.3684
 1908TIP3    H127139   3.865   5.849  11.727 -1.0404 -1.1251  2.0245
 1908TIP3    H227140   3.774   5.889  11.612  1.2876 -1.7615 -0.1340
 1909TIP3   OH227141   3.584   1.411  13.955 -0.2580 -0.8399 -0.0558
 1909TIP3    H127142   3.633   1.363  14.021 -2.1120 -1.1019  1.2128
 1909TIP3    H227143   3.553   1.489  14.000 -3.3155 -2.0071  0.1567
 1910TIP3   OH227144   6.153   1.093  13.621 -0.3327  0.1261 -0.3674
 1910TIP3    H127145   6.156   1.185  13.647 -0.8398  0.3581 -1.1104
 1910TIP3    H227146   6.070   1.084  13.574 -0.9169 -1.0204  0.8127
 1911TIP3   OH227147   5.175   5.318   3.868  0.4096  0.1114  0.1440
 1911TIP3    H127148   5.124   5.337   3.789 -0.8691  0.5098  1.0242
 1911TIP3    H227149   5.127   5.247   3.910  0.2757  0.8383  1.2569
 1912TIP3   OH227150   3.271   0.838   1.522 -0.1041  0.4705  0.0335
 1912TIP3    H127151   3.225   0.773   1.469  0.9207  0.4714 -0.8756
 1912TIP3    H227152   3.202   0.879   1.575 -1.0577  0.0542 -0.8583
 1913TIP3   OH227153   1.611   4.691  11.595  0.4148 -0.2938 -0.2003
 1913TIP3    H127154   1.640   4.670  11.506  1.5808  0.7303 -0.0960
 1913TIP3    H227155   1.560   4.615  11.622  2.6568 -2.0555 -0.5788
 1914TIP3   OH227156   5.049   0.426   1.621 -0.1033  0.1815  0.4435
 1914TIP3    H127157   5.112   0.445   1.691  1.2325 -2.1678 -0.0083
 1914TIP3    H227158   5.100   0.435   1.540 -1.6455  2.9527 -0.3759
 1915TIP3   OH227159   1.370   6.386  13.214  0.0671 -0.2958 -0.1157
 1915TIP3    H127160   1.443   6.327  13.195 -0.9366 -1.4401 -0.5174
 1915TIP3    H227161   1.323   6.393  13.131  0.7694  1.9893 -0.3917
 1916TIP3   OH227162   6.446   3.669   0.945  0.6878  0.0288 -0.0224
 1916TIP3    H127163   6.508   3.738   0.922 -0.3510  1.4935  1.3301
 1916TIP3    H227164   6.360   3.711   0.937 -0.0551 -1.4938 -0.3817
 1917TIP3   OH227165   1.041   0.279  11.617 -0.0390  0.2114  0.2028
 1917TIP3    H127166   0.965   0.221  11.614 -0.2696  0.5513 -1.0772
 1917TIP3    H227167   1.006   0.366  11.598  0.6657  0.3456 -0.5810
 1918TIP3   OH227168   2.589   4.054   3.239  0.1712  0.8112 -0.6149
 1918TIP3    H127169   2.682   4.046   3.221  0.4546  0.3094  0.9284
 1918TIP3    H227170   2.571   4.147   3.232  1.8046  1.6119  3.3410
 1919TIP3   OH227171   5.967   2.264   1.939  0.0947  0.2843  0.6210
 1919TIP3    H127172   5.919   2.326   1.995 -0.1355 -0.6428  1.4903
 1919TIP3    H227173   5.912   2.254   1.862  1.2637  2.9512 -0.6766
 1920TIP3   OH227174   4.259   3.242  13.203  0.2856 -0.1586 -0.1860
 1920TIP3    H127175   4.245   3.185  13.278  0.0643 -0.2526 -0.2995
 1920TIP3    H227176   4.336   3.206  13.159  0.1566 -0.3562 -0.2476
 1921TIP3   OH227177   1.819   2.084  14.877  0.0316 -0.4949  0.0847
 1921TIP3    H127178   1.890   2.143  14.849  0.6634 -1.2565  0.0538
 1921TIP3    H227179   1.821   2.013  14.812 -2.1073  0.4714 -1.1372
 1922TIP3   OH227180   1.783   4.244   1.583 -0.1389  0.1501 -0.2486
 1922TIP3    H127181   1.802   4.159   1.543  2.0622  0.4336  0.0531
 1922TIP3    H227182   1.776   4.304   1.508 -3.9252 -0.5528 -0.6380
 1923TIP3   OH227183   4.690   4.173  16.151  0.1755 -1.1675 -0.7192
 1923TIP3    H127184   4.595   4.172  16.154  0.1135  1.2674  0.5748
 1923TIP3    H227185   4.716   4.085  16.180 -1.6917 -0.5965  3.3465
 1924TIP3   OH227186   0.073   4.857   4.193 -0.2997  0.3151  0.0123
 1924TIP3    H127187   0.128   4.831   4.119  2.2040  0.9648  1.5266
 1924TIP3    H227188   0.043   4.775   4.231 -0.0456 -0.0710 -0.6060
 1925TIP3   OH227189   6.720   2.177   5.803  0.6502 -0.6443 -0.4202
 1925TIP3    H127190   6.669   2.197   5.724 -0.6734 -0.9873  0.3155
 1925TIP3    H227191   6.693   2.088   5.827  2.1517 -1.1292 -0.4013
 1926TIP3   OH227192   2.801   0.763   1.831  0.2833 -0.6629  0.5896
 1926TIP3    H127193   2.805   0.782   1.924 -1.5877  0.3775  0.5059
 1926TIP3    H227194   2.724   0.812   1.799  1.8682  0.4748 -1.8263
 1927TIP3   OH227195   1.217   4.658  14.876 -0.5609  0.1667 -0.0730
 1927TIP3    H127196   1.296   4.667  14.931 -0.8609  2.0902  0.1172
 1927TIP3    H227197   1.170   4.740  14.889 -2.0703 -0.5100 -1.0411
 1928TIP3   OH227198   3.086   4.886  12.061 -0.3450 -0.6314 -0.1913
 1928TIP3    H127199   3.169   4.923  12.029 -0.0852  0.2636  1.4003
 1928TIP3    H227200   3.108   4.796  12.085 -0.1953 -0.8479 -1.0936
 1929TIP3   OH227201   1.847   1.582  11.395  0.1176 -0.1105  0.2869
 1929TIP3    H127202   1.924   1.526  11.390 -0.5609 -1.0952  0.5739
 1929TIP3    H227203   1.882   1.668  11.416  1.2270 -0.3000 -0.6448
 1930TIP3   OH227204   5.058   3.806  12.221 -0.3545 -0.4607  0.0189
 1930TIP3    H127205   4.964   3.816  12.229 -0.7229 -3.0028 -0.4838
 1930TIP3    H227206   5.077   3.831  12.130 -0.7524 -1.2566 -0.2857
 1931TIP3   OH227207   4.448   1.694   2.529 -0.4217 -0.6531  0.1437
 1931TIP3    H127208   4.353   1.702   2.536 -0.5324 -0.4200 -1.3150
 1931TIP3    H227209   4.474   1.769   2.476  0.3505 -1.7341 -1.0476
 1932TIP3   OH227210   2.904   0.910   2.853 -0.0674 -0.3489  0.2437
 1932TIP3    H127211   2.979   0.854   2.836  0.7372  0.2559  1.5911
 1932TIP3    H227212   2.866   0.876   2.934  0.1068  0.6729  0.7805
 1933TIP3   OH227213   0.589   5.609   6.564  0.0658  0.5403 -0.3614
 1933TIP3    H127214   0.635   5.540   6.612 -1.9498 -1.9396 -1.7534
 1933TIP3    H227215   0.568   5.674   6.631  1.5904 -0.4014  1.1294
 1934TIP3   OH227216   4.316   0.282   2.147 -0.5443  0.0389  0.2488
 1934TIP3    H127217   4.268   0.363   2.165  0.4399  0.9913 -1.2349
 1934TIP3    H227218   4.302   0.266   2.054 -2.0174 -2.4128  0.8018
 1935TIP3   OH227219   5.244   4.126   4.310  0.1544 -0.7187  0.0555
 1935TIP3    H127220   5.263   4.149   4.218 -0.8541  1.2104  0.2888
 1935TIP3    H227221   5.219   4.033   4.306  0.2805 -0.7269 -1.5945
 1936TIP3   OH227222   5.960   6.522  14.723  0.2387 -0.2437 -0.2371
 1936TIP3    H127223   5.968   6.586  14.794  1.8157 -1.3573  0.6508
 1936TIP3    H227224   5.953   6.575  14.644 -0.2912  1.0186  0.6178
 1937TIP3   OH227225   6.190   3.604   4.195 -0.2187 -0.0384 -0.0132
 1937TIP3    H127226   6.252   3.536   4.170  0.9808  1.3586 -1.0871
 1937TIP3    H227227   6.106   3.575   4.159  0.3689 -0.7180 -0.8671
 1938TIP3   OH227228   4.044   4.890  15.924  0.3361  0.1424 -0.3885
 1938TIP3    H127229   4.084   4.969  15.889  1.0487 -1.0681 -2.5150
 1938TIP3    H227230   3.956   4.889  15.885  0.1757  0.1088 -0.0265
 1939TIP3   OH227231   3.262   3.620   0.088  0.2620  0.0831  0.1831
 1939TIP3    H127232   3.194   3.553   0.097 -0.3954  0.9133  2.1670
 1939TIP3    H227233   3.320   3.605   0.162  0.8382  0.8967 -0.0892
 1940TIP3   OH227234   5.256   1.404   3.688  0.0347  0.3016 -0.4613
 1940TIP3    H127235   5.226   1.478   3.741 -1.0687 -0.2841 -0.2463
 1940TIP3    H227236   5.204   1.330   3.718  0.9342 -0.5150 -0.8663
 1941TIP3   OH227237   2.547   4.659  13.557 -0.5273 -0.2833 -0.0474
 1941TIP3    H127238   2.621   4.639  13.501 -0.2894 -2.3181  0.8828
 1941TIP3    H227239   2.585   4.703  13.633 -0.2908 -1.0416  0.2838
 1942TIP3   OH227240   3.742   5.598   0.129 -0.0988  0.6491 -0.6647
 1942TIP3    H127241   3.837   5.596   0.116 -0.0089 -3.6066 -0.6887
 1942TIP3    H227242   3.729   5.655   0.204  2.6497  0.3925  0.1110
 1943TIP3   OH227243   3.228   4.150  13.040  0.1907 -0.2365 -0.4090
 1943TIP3    H127244   3.212   4.055  13.038 -1.8749  0.0727 -2.3610
 1943TIP3    H227245   3.261   4.171  12.953  1.6585  0.7335  0.3444
 1944TIP3   OH227246   2.607   5.972   1.906 -0.4272  0.1009  0.5937
 1944TIP3    H127247   2.691   5.935   1.934 -0.2533  0.6452  0.7929
 1944TIP3    H227248   2.608   6.062   1.938 -0.6939  0.3993 -0.2183
 1945TIP3   OH227249   2.490   1.743   3.991  0.3988  0.5551 -0.2679
 1945TIP3    H127250   2.532   1.811   3.938  0.0790 -0.7647 -2.3212
 1945TIP3    H227251   2.525   1.661   3.957 -0.2875 -0.3844  1.1952
 1946TIP3   OH227252   4.144   3.678   5.009  0.1936  0.1355  0.0634
 1946TIP3    H127253   4.089   3.692   5.086  0.8100  0.3978  0.4687
 1946TIP3    H227254   4.133   3.586   4.988  0.7506 -0.1822  1.0600
 1947TIP3   OH227255   3.831   2.786   3.685  0.1257  0.2446 -0.7003
 1947TIP3    H127256   3.842   2.880   3.696  1.4859  0.5006 -3.2300
 1947TIP3    H227257   3.768   2.760   3.752  0.0400  2.8618  0.3407
 1948TIP3   OH227258   5.886   3.506  16.281 -0.1407 -0.0027 -0.2720
 1948TIP3    H127259   5.926   3.532  16.364  0.4588 -0.8368 -0.2811
 1948TIP3    H227260   5.920   3.569  16.218  2.1586 -1.3460 -0.4954
 1949TIP3   OH227261   5.610   6.047   1.251 -0.0471  0.4209  0.1178
 1949TIP3    H127262   5.564   6.044   1.167  0.1652 -0.2239  0.0153
 1949TIP3    H227263   5.541   6.034   1.316 -0.5383  2.8724  0.2021
 1950TIP3   OH227264   6.358   5.068  11.588 -0.7956  0.0203  0.4927
 1950TIP3    H127265   6.360   5.082  11.683 -0.3895 -0.5384  0.5695
 1950TIP3    H227266   6.304   4.990  11.577 -0.7168 -0.0027  0.2727
 1951TIP3   OH227267   5.380   2.662   0.334 -0.0037  0.0433 -0.0404
 1951TIP3    H127268   5.293   2.656   0.295 -0.3479  0.8265  0.5751
 1951TIP3    H227269   5.414   2.573   0.331 -0.9144 -0.3155 -0.0804
 1952TIP3   OH227270   5.920   6.675  12.635  0.1061  0.9401  0.5884
 1952TIP3    H127271   5.909   6.580  12.639  0.5374  0.8259 -0.6893
 1952TIP3    H227272   5.952   6.699  12.723  1.5872 -0.3136  0.4363
 1953TIP3   OH227273   1.402   5.249  10.918  0.0465 -0.3498  0.2849
 1953TIP3    H127274   1.350   5.288  10.989  0.8832  0.2740  0.5682
 1953TIP3    H227275   1.416   5.159  10.947 -0.6866 -0.4612  0.3100
 1954TIP3   OH227276   1.404   0.797  13.094  0.5207 -0.0823 -0.1449
 1954TIP3    H127277   1.475   0.847  13.134  0.1670 -0.7171  1.3799
 1954TIP3    H227278   1.433   0.780  13.005  0.8423  2.4225 -0.5894
 1955TIP3   OH227279   4.517   5.106  13.138 -0.3023  0.2666 -0.5864
 1955TIP3    H127280   4.458   5.073  13.070  0.8231 -1.3039 -0.8550
 1955TIP3    H227281   4.517   5.038  13.205 -0.4630  1.2547  0.4503
 1956TIP3   OH227282   5.742   3.581   1.932  0.6942  0.0011  0.6761
 1956TIP3    H127283   5.715   3.538   1.851  0.7595  1.9497 -0.4489
 1956TIP3    H227284   5.661   3.588   1.983 -0.3113  2.2745 -0.9947
 1957TIP3   OH227285   0.859   4.549   5.382  0.1968 -0.3199 -0.0767
 1957TIP3    H127286   0.879   4.515   5.469 -0.9943  2.4310  1.4034
 1957TIP3    H227287   0.928   4.514   5.326  1.0963 -2.0498  1.9579
 1958TIP3   OH227288   2.744   0.490  12.977  0.3463 -0.4400  0.0644
 1958TIP3    H127289   2.709   0.493  12.888  1.0137  1.1742 -0.1732
 1958TIP3    H227290   2.675   0.528  13.032  0.3054 -0.5688  0.1025
 1959TIP3   OH227291   1.029   4.515   0.000 -0.2972 -0.1898  0.3937
 1959TIP3    H127292   0.955   4.456   0.011  0.0229 -0.2611  2.6329
 1959TIP3    H227293   1.106   4.459   0.008  0.0129  0.0338 -0.9123
 1960TIP3   OH227294   0.840   1.548  16.740 -0.6174 -0.3397  0.2202
 1960TIP3    H127295   0.852   1.500  16.658  1.3655 -1.6870  1.2001
 1960TIP3    H227296   0.907   1.617  16.738  0.8394 -1.6245  1.4749
 1961TIP3   OH227297   5.961   6.291  14.046 -0.2928 -0.5281  0.4968
 1961TIP3    H127298   5.891   6.347  14.082 -1.2755 -1.2154 -0.2753
 1961TIP3    H227299   6.042   6.334  14.072 -0.9515 -0.5125  2.7430
 1962TIP3   OH227300   3.983   0.910  16.180  0.1623 -0.6879  0.4287
 1962TIP3    H127301   4.029   0.994  16.174 -0.0169 -0.6795 -1.8448
 1962TIP3    H227302   4.045   0.851  16.221 -0.0366  0.7102  2.9768
 1963TIP3   OH227303   2.498   1.656  16.320  0.7058 -0.3779  0.0972
 1963TIP3    H127304   2.470   1.602  16.394 -2.3871 -2.5046 -2.3927
 1963TIP3    H227305   2.537   1.594  16.258  1.8839  1.1273 -0.7406
 1964TIP3   OH227306   3.346   0.881   5.208  0.1024  0.4996 -0.0297
 1964TIP3    H127307   3.416   0.817   5.221 -1.3115 -1.0054  0.5184
 1964TIP3    H227308   3.317   0.904   5.296 -1.2152 -0.2257 -0.2431
 1965TIP3   OH227309   2.054   1.765  12.818  0.0994 -0.6279 -0.1561
 1965TIP3    H127310   2.107   1.845  12.820 -0.5211 -0.1168 -1.9163
 1965TIP3    H227311   2.067   1.726  12.904 -0.4280  1.9252  1.1951
 1966TIP3   OH227312   4.464   5.207  14.786  0.0417  0.2072  0.2246
 1966TIP3    H127313   4.449   5.165  14.871  1.6622 -0.5350  0.1833
 1966TIP3    H227314   4.479   5.134  14.725  0.0553  0.7596 -0.4493
 1967TIP3   OH227315   3.868   3.583   2.658 -0.2964  0.1913  0.0046
 1967TIP3    H127316   3.926   3.651   2.692 -0.5906  0.2502  0.3881
 1967TIP3    H227317   3.924   3.533   2.598  0.3811 -0.2195  0.9370
 1968TIP3   OH227318   3.659   6.243   3.192  0.2013  0.3901  0.4566
 1968TIP3    H127319   3.650   6.155   3.156  1.6583  0.9510 -1.4363
 1968TIP3    H227320   3.692   6.230   3.280 -0.4242 -0.9599  0.5139
 1969TIP3   OH227321   4.794   5.433   2.422 -0.1575 -0.5061  0.3067
 1969TIP3    H127322   4.712   5.482   2.429  0.0237 -0.2646  0.8044
 1969TIP3    H227323   4.848   5.468   2.492  1.1438  0.7852 -1.2648
 1970TIP3   OH227324   4.494   1.720   4.952 -0.0613  0.1027 -0.0618
 1970TIP3    H127325   4.529   1.808   4.968 -0.4756  0.9095 -2.9031
 1970TIP3    H227326   4.413   1.716   5.003 -0.4456  1.7113 -0.4810
 1971TIP3   OH227327   4.097   0.786  11.989 -0.8798 -0.0352  0.0212
 1971TIP3    H127328   4.060   0.866  11.950 -0.0440  0.5048  0.3178
 1971TIP3    H227329   4.120   0.731  11.914 -1.3008  0.0646 -0.1864
 1972TIP3   OH227330   6.586   2.730   3.763 -0.3384 -0.3137  0.4316
 1972TIP3    H127331   6.651   2.784   3.809  0.1586  0.2138 -0.8505
 1972TIP3    H227332   6.515   2.792   3.743 -1.4835 -0.9782  2.2125
 1973TIP3   OH227333   2.900   0.072  17.210 -0.3865  0.6087 -0.2034
 1973TIP3    H127334   2.873  -0.015  17.242  2.1330  0.1719  0.9958
 1973TIP3    H227335   2.856   0.081  17.126  0.4241 -2.5387 -1.0958
 1974TIP3   OH227336   2.740   2.573  10.736  0.2516  0.2451 -0.6339
 1974TIP3    H127337   2.742   2.666  10.713  1.5050  0.4707  0.2804
 1974TIP3    H227338   2.829   2.542  10.717  0.1152 -0.5389 -0.0387
 1975TIP3   OH227339   4.719   4.766  11.779 -0.5131  0.2312 -0.1643
 1975TIP3    H127340   4.793   4.719  11.742 -1.1576 -0.3218 -0.8022
 1975TIP3    H227341   4.758   4.834  11.834  0.4452 -1.3398  1.1840
 1976TIP3   OH227342   5.459   2.166   1.192 -0.0456  0.4843  0.0366
 1976TIP3    H127343   5.483   2.156   1.100  0.8383 -1.2130  0.3993
 1976TIP3    H227344   5.396   2.096   1.209 -1.6736  1.9405  0.3046
 1977TIP3   OH227345   2.865   0.275  14.488 -0.3086 -0.4175 -0.1834
 1977TIP3    H127346   2.922   0.277  14.410  0.1352  2.3385  0.1055
 1977TIP3    H227347   2.923   0.246  14.559  0.3935  0.9168 -0.1771
 1978TIP3   OH227348   0.488   3.142  15.384  0.1338 -0.0850 -0.0899
 1978TIP3    H127349   0.482   3.210  15.317  0.1016 -1.5368 -1.6365
 1978TIP3    H227350   0.580   3.117  15.385 -0.0394 -0.7574 -0.3240
 1979TIP3   OH227351   3.431   2.172   2.965  0.2263  0.3595  0.1052
 1979TIP3    H127352   3.383   2.128   2.894 -1.9023 -0.1465  1.7540
 1979TIP3    H227353   3.456   2.101   3.025  1.8077  0.8042  0.0259
 1980TIP3   OH227354   5.316   5.656  14.865 -0.2707  0.5587  0.5950
 1980TIP3    H127355   5.343   5.639  14.956  1.6722 -1.6140 -0.2865
 1980TIP3    H227356   5.373   5.600  14.813 -2.6263  0.3009 -1.8845
 1981TIP3   OH227357   0.748   2.375   1.127 -0.0486 -0.4258  0.3934
 1981TIP3    H127358   0.719   2.320   1.199 -0.2074  0.5386  1.0933
 1981TIP3    H227359   0.733   2.465   1.158 -0.9204  0.0124 -1.1600
 1982TIP3   OH227360   0.438   4.868  17.188 -0.2116  0.6664 -0.4006
 1982TIP3    H127361   0.355   4.822  17.178 -1.5131  2.7456  0.0946
 1982TIP3    H227362   0.500   4.801  17.216 -1.5377 -1.0762 -1.4735
 1983TIP3   OH227363   3.544   0.481   2.026 -0.1097 -0.0810 -0.1069
 1983TIP3    H127364   3.605   0.408   2.011 -0.5193 -0.5661  0.5793
 1983TIP3    H227365   3.458   0.441   2.025 -0.2510  0.1108  1.9486
 1984TIP3   OH227366   3.186   1.351   0.904  0.2393 -0.3284  0.6541
 1984TIP3    H127367   3.187   1.295   0.982  2.7006  0.2621  1.1371
 1984TIP3    H227368   3.261   1.322   0.852  0.7135  1.5377  0.2048
 1985TIP3   OH227369   3.538   4.708  13.012  0.0543  0.0407  0.1044
 1985TIP3    H127370   3.584   4.791  13.005  1.0041 -0.5634 -1.6115
 1985TIP3    H227371   3.447   4.728  12.989 -0.0441  0.8377  1.1527
 1986TIP3   OH227372   2.296   5.353   6.533  0.3085 -0.4266 -0.0699
 1986TIP3    H127373   2.254   5.390   6.455 -2.9402 -0.2954  1.5671
 1986TIP3    H227374   2.309   5.427   6.592 -1.5916 -1.0378  1.2401
 1987TIP3   OH227375   4.996   2.549  14.336  0.0155  0.2951  0.1264
 1987TIP3    H127376   4.949   2.560  14.253  0.1827 -0.3959 -0.0681
 1987TIP3    H227377   5.051   2.471  14.322  1.1784  1.0463  0.3656
 1988TIP3   OH227378   5.997   4.541  15.951  0.0181  0.2026  0.2424
 1988TIP3    H127379   5.919   4.581  15.912  0.8890  0.3422 -1.4495
 1988TIP3    H227380   5.970   4.452  15.971 -0.7265  0.3964  0.1485
 1989TIP3   OH227381   3.292   6.057   1.098  0.2377 -0.1190  0.2526
 1989TIP3    H127382   3.274   6.073   1.006 -0.1025 -1.9736 -0.0585
 1989TIP3    H227383   3.378   6.014   1.099  0.2114 -0.1665  0.7839
 1990TIP3   OH227384   0.722   5.700   6.343 -0.2223 -0.9619 -0.0618
 1990TIP3    H127385   0.659   5.690   6.415 -0.3028  1.7601  0.3391
 1990TIP3    H227386   0.673   5.672   6.265 -1.7930  0.5044  0.3243
 1991TIP3   OH227387   6.210   5.756  11.741 -0.3244 -0.0071  0.1135
 1991TIP3    H127388   6.189   5.824  11.677 -1.0595  1.6081  1.9806
 1991TIP3    H227389   6.128   5.708  11.753  0.0311 -0.8515 -0.7390
 1992TIP3   OH227390   1.315   4.779   5.138 -0.2134  0.2359 -0.2920
 1992TIP3    H127391   1.337   4.814   5.051 -1.1408 -1.9602 -1.4780
 1992TIP3    H227392   1.397   4.785   5.187  1.4777 -1.9873 -2.5730
 1993TIP3   OH227393   0.070   6.098  16.165 -0.1682 -0.4304  0.0274
 1993TIP3    H127394  -0.008   6.108  16.110 -0.8528  1.6251  1.2550
 1993TIP3    H227395   0.123   6.175  16.144 -0.3143  0.2467  1.9772
 1994TIP3   OH227396   0.445   0.885  11.256  0.2331 -0.8195  0.2680
 1994TIP3    H127397   0.443   0.970  11.301  0.8345  0.4282 -1.8957
 1994TIP3    H227398   0.359   0.880  11.213  0.8517 -0.4028 -1.0751
 1995TIP3   OH227399   3.236   1.422  10.814  0.2832 -0.7760  0.3408
 1995TIP3    H127400   3.217   1.363  10.742  1.8277  0.2373 -0.9618
 1995TIP3    H227401   3.159   1.480  10.818 -0.2400 -1.4486  0.1745
 1996TIP3   OH227402   0.591   4.844   0.603  0.2485 -0.1257  0.7190
 1996TIP3    H127403   0.624   4.827   0.691 -1.6748 -0.1935  1.4732
 1996TIP3    H227404   0.593   4.759   0.559  1.0005 -0.1328  0.7473
 1997TIP3   OH227405   0.927   3.317   5.158  0.4994 -0.4041 -0.0257
 1997TIP3    H127406   0.997   3.371   5.121  0.3875 -1.0653 -1.2660
 1997TIP3    H227407   0.959   3.227   5.150 -0.8582 -0.8082 -1.5607
 1998TIP3   OH227408   3.917   1.380  16.606  0.4099 -0.2993  0.0832
 1998TIP3    H127409   3.857   1.389  16.681  1.4669  2.2998  0.7161
 1998TIP3    H227410   3.939   1.470  16.582  2.9880 -1.1391 -1.0172
 1999TIP3   OH227411   3.305   4.627  11.918  0.3768  0.2657  0.2935
 1999TIP3    H127412   3.243   4.671  11.860 -0.7535 -1.0902  0.4124
 1999TIP3    H227413   3.273   4.644  12.006  0.4101 -0.1085  0.3782
 2000TIP3   OH227414   0.863   2.194  10.949  0.6517  1.0118  0.0088
 2000TIP3    H127415   0.844   2.172  10.858 -1.4133  1.2802  0.3115
 2000TIP3    H227416   0.831   2.118  10.999  2.1494  0.6797  0.5175
 2001TIP3   OH227417   1.249   3.200   4.407 -0.0910  0.2733 -0.2054
 2001TIP3    H127418   1.327   3.152   4.380 -0.9600 -1.8549  0.8394
 2001TIP3    H227419   1.197   3.209   4.327  0.0669 -0.6040 -0.4144
 2002TIP3   OH227420   1.790   3.436   2.529  0.1136 -0.3303  0.2261
 2002TIP3    H127421   1.876   3.454   2.489  0.2705  0.1662  0.7623
 2002TIP3    H227422   1.748   3.375   2.469  1.2171 -1.3168  0.4270
 2003TIP3   OH227423   4.645   1.016  15.973  0.3551 -0.3421  0.0847
 2003TIP3    H127424   4.582   0.948  15.949  0.6104 -0.3066 -0.7231
 2003TIP3    H227425   4.607   1.097  15.941  0.2566 -0.1565  0.6598
 2004TIP3   OH227426   4.620   4.607  11.969 -0.2448  0.2126 -0.5179
 2004TIP3    H127427   4.705   4.608  12.013 -0.1512 -0.3235 -0.6810
 2004TIP3    H227428   4.624   4.680  11.907 -1.0359  2.1401  1.5544
 2005TIP3   OH227429   5.483   0.821  13.008  0.4342  0.2443  0.0165
 2005TIP3    H127430   5.452   0.871  13.083  1.1709 -0.6949  0.9698
 2005TIP3    H227431   5.564   0.864  12.982  0.5212  0.1814  0.1810
 2006TIP3   OH227432   3.918   2.298   4.010  0.3414  0.2329  0.0089
 2006TIP3    H127433   3.883   2.211   4.023  0.3195  0.4223  1.3200
 2006TIP3    H227434   3.994   2.303   4.068  1.0449  0.6964 -0.9127
 2007TIP3   OH227435   2.901   4.599   2.897  0.2491 -0.5862 -0.1068
 2007TIP3    H127436   2.967   4.611   2.965 -0.0726 -0.7360  0.2352
 2007TIP3    H227437   2.898   4.684   2.851  0.6536 -0.5719 -0.1082
 2008TIP3   OH227438   0.577   6.661  15.971  0.2690  0.1925  0.4209
 2008TIP3    H127439   0.644   6.657  15.903 -0.3402  0.4452 -0.2013
 2008TIP3    H227440   0.604   6.733  16.027  0.4782  0.3454  0.1277
 2009TIP3   OH227441   6.439   1.495  16.092  0.2871 -0.6171  0.1392
 2009TIP3    H127442   6.403   1.524  16.176 -0.5903 -1.4951  0.0749
 2009TIP3    H227443   6.364   1.496  16.032  1.0484  0.7660 -0.8653
 2010TIP3   OH227444   0.936   5.859  12.087 -0.0051 -0.3049  0.3546
 2010TIP3    H127445   0.896   5.772  12.083 -1.1838 -0.0397  3.3517
 2010TIP3    H227446   0.862   5.919  12.073  0.5766  0.2303 -0.4858
 2011TIP3   OH227447   5.801   4.508  14.612  0.3828  0.1179 -0.2873
 2011TIP3    H127448   5.748   4.580  14.577  0.2282  0.0067 -0.2829
 2011TIP3    H227449   5.884   4.549  14.635  0.6969  0.0830 -1.3173
 2012TIP3   OH227450   5.853   1.063   3.076  0.5755  0.1288 -0.1475
 2012TIP3    H127451   5.939   1.026   3.100 -0.4603 -0.7107  2.6908
 2012TIP3    H227452   5.812   0.996   3.023  0.7160 -0.6053  0.6467
 2013TIP3   OH227453   5.273   2.150   0.934  0.0227 -0.3256 -0.6124
 2013TIP3    H127454   5.243   2.070   0.891  1.3083 -0.6359 -0.9572
 2013TIP3    H227455   5.367   2.153   0.918  0.3671  0.1376  1.2185
 2014TIP3   OH227456   3.030   2.150   1.129 -0.1157  0.1944 -0.0774
 2014TIP3    H127457   2.973   2.100   1.070 -1.9003 -0.9935  2.4959
 2014TIP3    H227458   3.054   2.089   1.198  0.0639  2.0552  1.6042
 2015TIP3   OH227459   4.116   1.241   4.167  0.4402 -0.5403 -0.0776
 2015TIP3    H127460   4.177   1.298   4.212  0.3939  0.3913 -1.1530
 2015TIP3    H227461   4.034   1.291   4.162  0.5748 -0.4019 -1.5624
 2016TIP3   OH227462   5.038   5.213  15.697  0.5316 -0.2886  0.2734
 2016TIP3    H127463   5.019   5.123  15.724  0.7543 -0.3504  0.2275
 2016TIP3    H227464   5.130   5.226  15.720  0.3460  0.1292  0.8303
 2017TIP3   OH227465   6.063   3.781   3.047 -0.0535  0.0805  0.3400
 2017TIP3    H127466   6.019   3.841   3.107  2.5497  1.4084  1.0590
 2017TIP3    H227467   6.083   3.834   2.970  1.5220 -0.0430  0.6306
 2018TIP3   OH227468   5.311   4.598  11.862 -0.4104 -0.2437 -0.0835
 2018TIP3    H127469   5.391   4.643  11.886 -0.6308  0.7368 -1.1104
 2018TIP3    H227470   5.286   4.549  11.940 -0.1676  1.4273  1.0810
 2019TIP3   OH227471   4.555   2.066  14.583 -0.3191 -0.1764 -0.0670
 2019TIP3    H127472   4.642   2.104  14.571  0.2432 -0.5329  2.3814
 2019TIP3    H227473   4.555   1.987  14.529  1.0176 -0.3630  0.1910
 2020TIP3   OH227474   4.948   1.675  14.276  0.5011  0.1197 -0.0931
 2020TIP3    H127475   4.987   1.607  14.220  2.0915  2.0077 -1.4549
 2020TIP3    H227476   4.996   1.667  14.359 -1.0472 -1.9318  0.7007
 2021TIP3   OH227477   1.043   3.668   2.242  0.5056  0.5319 -0.5388
 2021TIP3    H127478   1.135   3.639   2.242  1.0199  2.0972 -0.7372
 2021TIP3    H227479   1.018   3.668   2.334  0.7044  0.1492 -0.4800
 2022TIP3   OH227480   5.481   4.773  15.098 -0.5498 -0.2188  0.5235
 2022TIP3    H127481   5.442   4.689  15.077 -0.2314 -0.1924 -0.2043
 2022TIP3    H227482   5.561   4.751  15.145  1.1662 -0.4954 -2.2729
 2023TIP3   OH227483   4.993   6.539   2.540  0.0889  0.1101 -0.3070
 2023TIP3    H127484   4.938   6.466   2.512 -0.6349 -0.1507  1.5906
 2023TIP3    H227485   5.026   6.512   2.626 -0.2436  2.0201  0.4779
 2024TIP3   OH227486   2.067   2.359   6.131  0.2654  0.0371  0.3710
 2024TIP3    H127487   2.160   2.355   6.154 -0.0584 -0.4019  1.6443
 2024TIP3    H227488   2.029   2.281   6.169 -0.0648 -1.6156 -2.9766
 2025TIP3   OH227489   4.433   6.393  16.321 -0.0076  0.3944  0.1988
 2025TIP3    H127490   4.391   6.446  16.253 -2.0257  0.4424  1.4005
 2025TIP3    H227491   4.399   6.429  16.404  0.1872 -1.4318  1.1288
 2026TIP3   OH227492   4.245   6.002  11.385  0.4069 -0.4946  0.5328
 2026TIP3    H127493   4.293   5.952  11.452  0.2488 -2.5894 -0.8315
 2026TIP3    H227494   4.295   5.990  11.305 -0.4052  0.4330 -0.1460
 2027TIP3   OH227495   0.111   4.814   6.140  0.0215 -0.1978  0.1500
 2027TIP3    H127496   0.056   4.892   6.142 -0.1161 -0.3035  1.2359
 2027TIP3    H227497   0.049   4.741   6.137  0.1366 -0.2973 -2.9405
 2028TIP3   OH227498   5.334   0.783   5.796 -0.0292  0.3044 -0.1895
 2028TIP3    H127499   5.391   0.780   5.719  0.9167  0.4254  0.4980
 2028TIP3    H227500   5.393   0.781   5.871 -0.9714 -1.8354  0.5989
 2029TIP3   OH227501   4.034   2.197   3.094 -0.4762 -0.5094  0.8247
 2029TIP3    H127502   4.086   2.142   3.153 -0.1180 -1.3382 -0.2235
 2029TIP3    H227503   4.083   2.279   3.088  1.1019 -1.4719 -0.5940
 2030TIP3   OH227504   4.400   5.786  16.429 -0.6319  0.4193  0.1777
 2030TIP3    H127505   4.349   5.765  16.351 -1.4723 -1.0779  1.0691
 2030TIP3    H227506   4.491   5.788  16.400 -0.7063 -2.2640 -0.4961
 2031TIP3   OH227507   4.710   4.863  11.474  0.2588  0.7612 -0.2606
 2031TIP3    H127508   4.761   4.786  11.499  2.2752  2.4951  1.2126
 2031TIP3    H227509   4.628   4.854  11.523  0.9866  0.1825  0.8886
 2032TIP3   OH227510   2.957   0.856   1.114  0.7575 -0.0771  0.0630
 2032TIP3    H127511   2.975   0.800   1.039  0.3365  0.0398 -0.1279
 2032TIP3    H227512   2.863   0.871   1.111  0.5717 -0.8618  1.1635
 2033TIP3   OH227513   4.637   3.862  15.996  0.5825  0.0270 -0.0298
 2033TIP3    H127514   4.728   3.857  16.025  1.1122  1.2875 -1.3175
 2033TIP3    H227515   4.587   3.813  16.061  2.0648  0.1476  1.2409
 2034TIP3   OH227516   6.727   3.745  12.124 -0.6788  0.0483  0.2940
 2034TIP3    H127517   6.712   3.709  12.212 -0.8723  2.5057  1.3365
 2034TIP3    H227518   6.717   3.839  12.134  2.2821  0.7298 -1.7362
 2035TIP3   OH227519   0.506   3.292  14.560 -0.1256 -0.5635  0.1651
 2035TIP3    H127520   0.438   3.235  14.524 -0.7926  0.7445 -0.7245
 2035TIP3    H227521   0.502   3.371  14.506 -0.8701  1.3493  2.8145
 2036TIP3   OH227522   0.152   4.896   3.547 -0.3469  0.4167 -0.1989
 2036TIP3    H127523   0.102   4.882   3.628 -0.3181  1.6647  0.0462
 2036TIP3    H227524   0.159   4.991   3.538 -0.4777  0.3081 -1.7592
 2037TIP3   OH227525   5.650   3.283  13.105 -0.4146 -0.5904 -0.1673
 2037TIP3    H127526   5.568   3.323  13.074  0.1074  0.4268 -0.2744
 2037TIP3    H227527   5.623   3.198  13.139 -1.4981 -0.3465 -0.3675
 2038TIP3   OH227528   6.629   4.154   5.659 -0.0844  0.5661  0.2841
 2038TIP3    H127529   6.558   4.150   5.595 -2.8874  1.5051  3.0923
 2038TIP3    H227530   6.701   4.105   5.618 -1.7979  0.6938 -3.2915
 2039TIP3   OH227531   5.852   5.197  14.463 -0.4360 -0.4575 -0.0245
 2039TIP3    H127532   5.821   5.159  14.381 -0.8856 -1.0353  0.4089
 2039TIP3    H227533   5.782   5.256  14.491 -1.9260 -2.9074  1.7454
 2040TIP3   OH227534   1.671   5.913   0.046 -0.6710  0.1341  0.4773
 2040TIP3    H127535   1.704   5.934   0.133  0.5013  1.1904 -0.1945
 2040TIP3    H227536   1.685   5.992  -0.005 -0.1979 -0.8584 -0.9967
 2041TIP3   OH227537   0.948   4.070  14.447 -0.3468  0.4346  0.1952
 2041TIP3    H127538   0.962   4.007  14.376 -1.2993  1.2597 -0.7458
 2041TIP3    H227539   0.911   4.018  14.518  0.7815 -0.4362  0.1906
 2042TIP3   OH227540   0.650   1.517   0.683 -0.2131 -0.0217 -0.0570
 2042TIP3    H127541   0.602   1.530   0.765 -0.7112  1.0814 -0.5098
 2042TIP3    H227542   0.597   1.453   0.635 -1.3676  1.3099 -0.6242
 2043TIP3   OH227543   0.383   1.291  16.156  0.4610  0.1356  0.3523
 2043TIP3    H127544   0.394   1.365  16.097  0.4423  0.4370  0.7219
 2043TIP3    H227545   0.288   1.277  16.160  0.5518 -1.1570 -1.2384
 2044TIP3   OH227546   5.694   3.137   3.780  0.0947 -0.0489  0.0448
 2044TIP3    H127547   5.742   3.178   3.852 -1.1939  1.5852  0.0483
 2044TIP3    H227548   5.749   3.152   3.703  0.4993  0.0765  0.3563
 2045TIP3   OH227549   3.827   1.566   2.667 -0.2901  0.5010 -0.0059
 2045TIP3    H127550   3.742   1.609   2.682 -1.2682 -1.7932  1.5955
 2045TIP3    H227551   3.817   1.523   2.582  0.7601  3.3239 -1.7147
 2046TIP3   OH227552   2.277   4.260  15.277 -0.3303 -0.2325  0.2170
 2046TIP3    H127553   2.195   4.232  15.237  0.4302 -2.3385 -0.0117
 2046TIP3    H227554   2.345   4.216  15.225  1.1128  2.8518 -0.7734
 2047TIP3   OH227555   5.495   3.617   2.030 -0.6205  0.1016 -0.2942
 2047TIP3    H127556   5.483   3.711   2.013 -0.7895 -0.0186 -0.8470
 2047TIP3    H227557   5.426   3.574   1.979  1.6978 -0.5858 -3.1427
 2048TIP3   OH227558   4.829   6.606   5.319  0.4348 -0.2337 -0.6049
 2048TIP3    H127559   4.776   6.642   5.390  0.8038 -1.3055  0.2272
 2048TIP3    H227560   4.919   6.614   5.350  0.7081  0.4704 -1.5075
 2049TIP3   OH227561   6.463   6.236   1.251 -0.5906 -0.8277 -0.0875
 2049TIP3    H127562   6.500   6.167   1.306  0.5172  0.3024  0.6595
 2049TIP3    H227563   6.439   6.192   1.170  1.6184 -1.8275 -0.2777
 2050TIP3   OH227564   0.200   1.007   4.712 -0.0167 -0.2162 -0.1014
 2050TIP3    H127565   0.224   0.932   4.657  1.1265  0.2563 -0.2673
 2050TIP3    H227566   0.196   0.971   4.800  0.0090 -0.5886 -0.2496
 2051TIP3   OH227567   0.043   6.488  14.129  0.1482  0.2821  0.3942
 2051TIP3    H127568   0.112   6.499  14.195 -0.4794  1.4648  0.8753
 2051TIP3    H227569   0.054   6.562  14.070  0.7904 -0.8397 -0.9492
 2052TIP3   OH227570   5.245   6.281  15.004 -0.2862  0.0899  0.0701
 2052TIP3    H127571   5.226   6.234  14.923  1.1147  0.8989 -0.7660
 2052TIP3    H227572   5.325   6.241  15.038 -0.4384  0.2573  0.6386
 2053TIP3   OH227573   4.243   1.179  13.437  0.2071 -0.2696  0.0739
 2053TIP3    H127574   4.269   1.088  13.449 -3.5367 -1.8131 -1.8259
 2053TIP3    H227575   4.179   1.195  13.506  0.2065  0.6516 -0.1320
 2054TIP3   OH227576   4.371   0.476   3.402  0.2765 -0.8048 -0.1539
 2054TIP3    H127577   4.420   0.423   3.465 -1.7920 -0.8479  1.5552
 2054TIP3    H227578   4.295   0.422   3.380 -0.1543  0.1195 -0.9893
 2055TIP3   OH227579   4.780   6.136   4.497  0.8025 -0.3121  0.3791
 2055TIP3    H127580   4.730   6.061   4.528  1.5969 -1.0463 -0.0362
 2055TIP3    H227581   4.752   6.148   4.406  0.7501 -0.1789  0.4132
 2056TIP3   OH227582   0.841   0.812  14.638  0.5062  0.0648 -0.5260
 2056TIP3    H127583   0.765   0.758  14.620  0.6992  0.2576 -2.0096
 2056TIP3    H227584   0.878   0.775  14.718 -1.1361 -0.0131  0.2406
 2057TIP3   OH227585   4.191   3.561  12.076 -0.1468  0.5433 -0.1447
 2057TIP3    H127586   4.238   3.615  12.012 -0.8767  0.0568 -1.1248
 2057TIP3    H227587   4.195   3.473  12.039  0.0478  0.1193  0.8623
 2058TIP3   OH227588   3.702   3.270   4.516 -0.0474 -0.8644 -0.4552
 2058TIP3    H127589   3.628   3.209   4.525  0.3104 -1.4405 -1.2938
 2058TIP3    H227590   3.669   3.338   4.457 -1.4919  1.4808  2.7706
 2059TIP3   OH227591   3.858   3.881   1.147 -0.0338 -0.2899  0.4971
 2059TIP3    H127592   3.940   3.836   1.129  0.4364  0.3669  0.9428
 2059TIP3    H227593   3.797   3.848   1.081  0.7901 -0.2466 -0.3048
 2060TIP3   OH227594   5.408   5.343   3.667  0.0342  0.4891 -0.0002
 2060TIP3    H127595   5.402   5.419   3.724  1.4247  0.5941  0.0435
 2060TIP3    H227596   5.425   5.270   3.726  1.5967  0.6175 -0.2660
 2061TIP3   OH227597   1.490   3.153  13.320 -0.5179 -0.0977  0.0119
 2061TIP3    H127598   1.507   3.158  13.226 -0.8413 -2.3680 -0.2120
 2061TIP3    H227599   1.575   3.167  13.361 -0.5272  1.8236 -0.5345
 2062TIP3   OH227600   0.502   6.147  13.327 -0.2083 -0.0791  0.0295
 2062TIP3    H127601   0.567   6.217  13.337 -0.4638  0.2481 -0.5922
 2062TIP3    H227602   0.447   6.154  13.405  1.2440 -1.1705  1.2271
 2063TIP3   OH227603   2.545   3.756  17.238  0.1200  0.2200 -0.0985
 2063TIP3    H127604   2.595   3.779  17.316  0.8489  0.8303 -0.7396
 2063TIP3    H227605   2.598   3.786  17.165  0.0963 -1.5496 -0.9009
 2064TIP3   OH227606   0.414   3.734  11.534  0.5376 -0.4824  0.5743
 2064TIP3    H127607   0.356   3.676  11.484  0.6053  0.2346 -0.3537
 2064TIP3    H227608   0.357   3.774  11.600 -0.5021  1.6139 -1.4745
 2065TIP3   OH227609   0.129   6.075  16.649  0.1522 -0.4833  0.3295
 2065TIP3    H127610   0.149   6.140  16.582  1.1307 -1.5584 -0.4854
 2065TIP3    H227611   0.034   6.070  16.651  0.1059 -0.4387 -1.0080
 2066TIP3   OH227612   5.264   0.473   4.196  0.2966  0.3329 -0.2268
 2066TIP3    H127613   5.299   0.447   4.281  2.2540 -0.5055 -1.2159
 2066TIP3    H227614   5.338   0.516   4.151 -0.5431  0.3537 -1.6687
 2067TIP3   OH227615   1.956   3.035   2.579 -0.0736 -0.6853  0.3786
 2067TIP3    H127616   1.956   3.085   2.661  0.0357 -1.2731  0.7487
 2067TIP3    H227617   1.970   2.944   2.607  1.3879 -0.7327 -0.3970
 2068TIP3   OH227618   0.834   4.153  13.348 -0.2598  0.1576 -0.0675
 2068TIP3    H127619   0.911   4.207  13.365 -0.6823  0.9626 -0.6181
 2068TIP3    H227620   0.766   4.216  13.324 -0.2385 -0.7292 -2.7544
 2069TIP3   OH227621   5.247   0.377  11.038  0.1763  0.4583 -0.4080
 2069TIP3    H127622   5.229   0.456  10.987  0.5336  0.2624 -0.8529
 2069TIP3    H227623   5.262   0.309  10.972 -0.4404 -0.0571 -0.0320
 2070TIP3   OH227624   1.957   3.397  12.396 -0.2948 -0.5319  0.3984
 2070TIP3    H127625   1.963   3.491  12.413 -0.6913 -0.6907  1.5001
 2070TIP3    H227626   1.966   3.357  12.482 -0.7021 -1.4801  0.0089
 2071TIP3   OH227627   0.104   0.633  11.985 -0.0990 -0.0366  0.5107
 2071TIP3    H127628   0.107   0.603  12.076  0.2131 -1.3646  0.0743
 2071TIP3    H227629   0.039   0.703  11.985 -0.3749 -0.2796  1.6835
 2072TIP3   OH227630   3.573   5.624   4.196  0.2601 -0.3424 -0.3787
 2072TIP3    H127631   3.506   5.691   4.180 -0.5437 -1.4772 -2.1328
 2072TIP3    H227632   3.653   5.674   4.212 -0.6070  1.0473 -0.1633
 2073TIP3   OH227633   0.570   2.185   3.926  0.6739  0.7617 -0.1939
 2073TIP3    H127634   0.624   2.106   3.926 -0.1918  0.1596 -0.0198
 2073TIP3    H227635   0.537   2.192   3.836  0.2527  0.5771 -0.0551
 2074TIP3   OH227636   3.370   5.846   4.069 -0.2776  0.0850 -0.2374
 2074TIP3    H127637   3.331   5.789   4.003  0.1651 -0.1820 -0.2784
 2074TIP3    H227638   3.381   5.930   4.026  0.6180 -0.2668 -0.7305
 2075TIP3   OH227639   1.543   0.642  14.123  0.0681  0.4857 -0.6501
 2075TIP3    H127640   1.499   0.558  14.112  0.4694  0.0846  0.6905
 2075TIP3    H227641   1.519   0.692  14.044 -2.3927  0.1250 -0.2141
 2076TIP3   OH227642   4.865   5.633   2.897 -0.4653  0.0561 -0.3644
 2076TIP3    H127643   4.917   5.615   2.975  0.0543  0.7957 -0.5170
 2076TIP3    H227644   4.783   5.587   2.910  0.0304 -0.7011  0.1349
 2077TIP3   OH227645   6.631   0.867   0.997  0.5119 -0.0479 -0.0518
 2077TIP3    H127646   6.711   0.840   1.042  0.3329  0.2774  0.4611
 2077TIP3    H227647   6.613   0.796   0.935  0.0886 -1.0787  1.2178
 2078TIP3   OH227648   3.646   2.025  12.756 -0.2258  0.3300  0.3529
 2078TIP3    H127649   3.609   2.000  12.671 -0.2447 -1.0319  0.7353
 2078TIP3    H227650   3.578   2.004  12.819 -0.5339  2.1087  0.6595
 2079TIP3   OH227651   2.265   2.014   1.664 -0.5859 -0.8437 -0.0428
 2079TIP3    H127652   2.253   1.919   1.666 -1.7516 -0.6986  0.6181
 2079TIP3    H227653   2.246   2.042   1.753 -1.0427  0.0945 -0.4233
 2080TIP3   OH227654   3.621   3.211  14.246  0.1472  0.3150 -0.0976
 2080TIP3    H127655   3.695   3.250  14.292  1.0236 -0.7380 -0.5864
 2080TIP3    H227656   3.567   3.286  14.220  1.9593  1.2728 -1.3060
 2081TIP3   OH227657   4.931   5.825  10.832 -0.2735 -0.3266 -0.3946
 2081TIP3    H127658   4.953   5.774  10.754  0.8996  1.2020 -1.0961
 2081TIP3    H227659   5.008   5.878  10.849 -0.2429 -1.0497  2.2118
 2082TIP3   OH227660   3.450   3.888   2.511  0.2072  0.3074 -0.1836
 2082TIP3    H127661   3.535   3.922   2.481  1.0906 -0.1277  1.6790
 2082TIP3    H227662   3.470   3.841   2.592 -1.6239 -1.0272 -0.4399
 2083TIP3   OH227663   2.776   4.466  16.469 -0.1141  0.1016 -0.5378
 2083TIP3    H127664   2.734   4.513  16.541  0.2618  0.2452 -0.4051
 2083TIP3    H227665   2.735   4.379  16.470  0.3293 -0.1090  0.2670
 2084TIP3   OH227666   4.440   6.708  10.685  0.2840 -0.2431  0.5320
 2084TIP3    H127667   4.355   6.752  10.688  0.2355 -0.3783  1.7554
 2084TIP3    H227668   4.423   6.621  10.722  1.7075  1.1589  5.2323
 2085TIP3   OH227669   0.936   1.962   1.277  0.2981 -0.1920 -0.3314
 2085TIP3    H127670   0.847   1.955   1.244  0.0006 -2.0374  0.7248
 2085TIP3    H227671   0.942   1.895   1.345  2.8924 -1.1225 -1.3510
 2086TIP3   OH227672   3.652   4.661   3.189 -0.0194 -0.1190 -0.1525
 2086TIP3    H127673   3.578   4.636   3.134  0.2011  0.4423 -0.7195
 2086TIP3    H227674   3.656   4.757   3.182  1.9052 -0.2624 -1.6721
 2087TIP3   OH227675   6.534   0.947  11.387 -0.3176 -0.0739  0.0313
 2087TIP3    H127676   6.587   1.024  11.410  0.0245 -0.7149  1.5367
 2087TIP3    H227677   6.574   0.913  11.308  0.5602  0.3531  0.2791
 2088TIP3   OH227678   3.752   0.554  12.113  0.0922  0.4378  0.4479
 2088TIP3    H127679   3.715   0.476  12.155  0.6266 -0.0559  0.0204
 2088TIP3    H227680   3.772   0.613  12.186  0.2204 -0.0606  0.8218
 2089TIP3   OH227681   6.156   1.595   2.684 -0.4502 -0.5151 -0.2846
 2089TIP3    H127682   6.234   1.544   2.704 -0.4469  0.3761  2.3020
 2089TIP3    H227683   6.188   1.683   2.665 -0.8146  0.1176  1.8026
 2090TIP3   OH227684   6.221   0.542  14.709  0.3445 -0.1627 -0.3052
 2090TIP3    H127685   6.170   0.573  14.783  0.9135 -0.7998  0.3599
 2090TIP3    H227686   6.239   0.450  14.727  1.6392  0.0149 -0.5548
 2091TIP3   OH227687   1.133   6.343   2.249  0.2728  0.1775  0.3726
 2091TIP3    H127688   1.049   6.312   2.216  0.6664 -0.1166 -0.3901
 2091TIP3    H227689   1.198   6.291   2.202  0.9278  1.5275 -0.2828
 2092TIP3   OH227690   1.167   5.709  16.286  0.0464  0.1074 -0.3551
 2092TIP3    H127691   1.211   5.793  16.273 -0.6235  0.3513 -1.1903
 2092TIP3    H227692   1.075   5.728  16.267 -0.1660 -0.7325 -0.1687
 2093TIP3   OH227693   6.615   2.450  17.068  0.0147  0.1087 -0.1000
 2093TIP3    H127694   6.590   2.460  17.159  0.6304 -2.3917  0.4269
 2093TIP3    H227695   6.711   2.447  17.069  0.0418  0.4267 -0.8911
 2094TIP3   OH227696   0.980   6.024   1.236  0.0733 -0.3398  0.2728
 2094TIP3    H127697   1.021   6.037   1.322 -2.0446 -1.3463  1.5196
 2094TIP3    H227698   1.007   5.937   1.210  0.1633 -0.3015  0.2379
 2095TIP3   OH227699   0.014   5.039   6.316 -0.2328 -0.3371 -0.2532
 2095TIP3    H127700   0.008   4.981   6.393 -0.4598 -2.8997 -2.0697
 2095TIP3    H227701  -0.066   5.091   6.319 -1.4595 -2.1438 -0.0058
 2096TIP3   OH227702   3.991   6.692   3.873 -0.4351  0.0136 -0.3847
 2096TIP3    H127703   4.026   6.639   3.801  0.0598  0.7476 -0.6938
 2096TIP3    H227704   3.995   6.782   3.840  2.4963  0.7382  1.5566
 2097TIP3   OH227705   1.019   4.554  17.096 -0.2475 -0.4598  0.5815
 2097TIP3    H127706   1.003   4.543  17.190 -0.8833  0.2290  0.5616
 2097TIP3    H227707   0.946   4.508  17.054 -1.1201  0.9779  0.4640
 2098TIP3   OH227708   3.530   1.296   1.457  0.3283 -0.3134  0.3590
 2098TIP3    H127709   3.572   1.270   1.538 -0.2979  1.3657  1.2895
 2098TIP3    H227710   3.459   1.233   1.444  0.5331 -0.6845  1.0439
 2099TIP3   OH227711   6.079   3.678  16.837  0.0526  0.1526 -0.1275
 2099TIP3    H127712   6.058   3.735  16.910 -1.5520  0.2784 -0.6447
 2099TIP3    H227713   5.994   3.660  16.796  0.7674 -0.9571 -1.1775
 2100TIP3   OH227714   3.323   4.623  13.550  0.2771 -0.1773 -0.6071
 2100TIP3    H127715   3.320   4.545  13.606  2.5489 -0.7033 -1.1455
 2100TIP3    H227716   3.319   4.589  13.461 -0.7215  0.5024 -0.8481
 2101TIP3   OH227717   0.693   6.535  13.144  0.1171  0.0614 -0.0997
 2101TIP3    H127718   0.762   6.473  13.119 -0.1196 -0.2802  0.0753
 2101TIP3    H227719   0.699   6.540  13.239  0.4971  0.7435 -0.1549
 2102TIP3   OH227720   4.664   3.179  14.900 -0.1746  0.5285 -0.6845
 2102TIP3    H127721   4.612   3.259  14.902 -0.7080  0.1778 -0.2901
 2102TIP3    H227722   4.754   3.209  14.888 -0.4854  1.1301 -1.5695
 2103TIP3   OH227723   2.941   6.276  16.395  0.8613  0.2140 -0.2238
 2103TIP3    H127724   2.884   6.204  16.423 -1.5576  1.7021 -1.0321
 2103TIP3    H227725   2.980   6.308  16.476 -1.2246  0.5568  0.7201
 2104TIP3   OH227726   5.625   2.807  15.166 -0.3824  0.1833  0.7974
 2104TIP3    H127727   5.647   2.834  15.255 -0.5284  0.5385  0.7279
 2104TIP3    H227728   5.707   2.774  15.129 -0.0014  1.3350  0.5938
 2105TIP3   OH227729   2.077   5.720  16.344 -0.3949  0.2176 -0.1851
 2105TIP3    H127730   2.003   5.757  16.391  0.0010 -0.5485  1.0692
 2105TIP3    H227731   2.150   5.726  16.405  0.6885  1.2437 -1.5085
 2106TIP3   OH227732   4.344   5.067  11.396  0.3163  0.2948 -0.3702
 2106TIP3    H127733   4.433   5.063  11.428 -0.0055 -0.5883  0.4540
 2106TIP3    H227734   4.328   5.160  11.381  1.3411  0.4670 -0.4618
 2107TIP3   OH227735   3.484   3.624  16.487  0.5587 -0.6277 -0.0269
 2107TIP3    H127736   3.420   3.623  16.559  0.9774  0.8665  0.4116
 2107TIP3    H227737   3.451   3.692  16.427  1.0176 -0.8058 -0.4795
 2108TIP3   OH227738   1.968   6.361  17.236  0.0112  0.1494 -0.5384
 2108TIP3    H127739   1.888   6.381  17.285 -0.0006  0.0624 -0.5223
 2108TIP3    H227740   2.009   6.290  17.286  0.0845  0.1752 -0.5626
 2109TIP3   OH227741   0.991   5.369   0.835 -0.2357  0.6334  0.0268
 2109TIP3    H127742   0.926   5.405   0.896 -1.0853  0.4222 -0.7185
 2109TIP3    H227743   1.073   5.410   0.860 -0.7797  1.4196  0.5841
 2110TIP3   OH227744   5.414   2.947   5.476 -0.2505  0.1431  0.3847
 2110TIP3    H127745   5.367   3.030   5.472 -1.5597 -0.6217 -1.5247
 2110TIP3    H227746   5.368   2.896   5.542 -1.2684 -0.0823 -0.4796
 2111TIP3   OH227747   2.460   1.831   1.501  0.0094 -0.3520  0.2033
 2111TIP3    H127748   2.456   1.806   1.409  0.2939  1.1962 -0.2629
 2111TIP3    H227749   2.373   1.867   1.519 -0.3380 -1.4527  0.8068
 2112TIP3   OH227750   3.775   3.516  11.605 -0.5191  0.5654  0.1021
 2112TIP3    H127751   3.853   3.463  11.620  0.5652  1.6347 -1.4326
 2112TIP3    H227752   3.722   3.465  11.544 -0.5604  0.2609  0.3924
 2113TIP3   OH227753   4.005   3.992  16.186 -0.3475  0.0480  0.0468
 2113TIP3    H127754   4.043   3.905  16.204  2.6355  1.0817 -0.7596
 2113TIP3    H227755   4.064   4.053  16.230 -1.3960  1.7916 -0.8854
 2114TIP3   OH227756   2.783   5.070  12.419  0.3478  0.1513 -0.2996
 2114TIP3    H127757   2.787   5.038  12.329 -1.6069  0.9536 -0.7110
 2114TIP3    H227758   2.731   5.150  12.414  0.7680  0.5769  1.4651
 2115TIP3   OH227759   5.115   6.671  11.436  0.6051  0.2173  0.0132
 2115TIP3    H127760   5.104   6.631  11.350  0.2470 -0.4245  0.3544
 2115TIP3    H227761   5.103   6.600  11.498  0.0146  0.8312  0.6270
 2116TIP3   OH227762   2.844   3.806   1.796 -0.3746 -0.6080 -0.0422
 2116TIP3    H127763   2.799   3.776   1.875 -0.6391 -1.0029 -0.3389
 2116TIP3    H227764   2.774   3.819   1.732 -0.1508 -0.4043 -0.2485
 2117TIP3   OH227765   1.856   2.648  11.776  0.1987 -0.0570  0.4575
 2117TIP3    H127766   1.775   2.639  11.726  0.1269 -0.2292  0.6061
 2117TIP3    H227767   1.861   2.568  11.828 -0.6228  0.9059  2.0671
 2118TIP3   OH227768   0.928   1.379   0.687  0.5084  0.2512 -0.5147
 2118TIP3    H127769   0.949   1.414   0.774  0.7986 -2.8803  0.8056
 2118TIP3    H227770   0.832   1.373   0.686  0.5399 -0.6298  0.0541
 2119TIP3   OH227771   5.628   1.356  16.142  0.1392 -0.3318 -0.0948
 2119TIP3    H127772   5.682   1.408  16.082  1.3730 -0.3104  0.9842
 2119TIP3    H227773   5.674   1.361  16.226 -1.0962 -1.0506  0.6577
 2120TIP3   OH227774   0.576   6.075  13.624  0.1317 -0.1883 -0.1259
 2120TIP3    H127775   0.503   6.135  13.607 -0.1239 -0.8059 -1.3074
 2120TIP3    H227776   0.593   6.084  13.718 -1.8085 -0.3922  0.2888
 2121TIP3   OH227777   4.603   6.623   5.157  0.0648 -0.1392 -0.2103
 2121TIP3    H127778   4.692   6.649   5.183  0.3533 -0.3035 -1.0240
 2121TIP3    H227779   4.573   6.694   5.101  0.2844 -0.8316 -1.2172
 2122TIP3   OH227780   5.021   4.705   5.551 -0.3141 -0.2432  0.6402
 2122TIP3    H127781   5.054   4.713   5.462  0.7258  0.1821  1.0476
 2122TIP3    H227782   4.950   4.768   5.557  0.9997  1.2775  0.7216
 2123TIP3   OH227783   6.015   2.367   5.895 -0.0758  0.3005  0.5458
 2123TIP3    H127784   6.007   2.450   5.942  0.0808  0.4203  0.3617
 2123TIP3    H227785   5.927   2.329   5.899  0.2687 -0.4003  2.2436
 2124TIP3   OH227786   0.889   4.418  11.667 -0.4302  0.7440 -0.4015
 2124TIP3    H127787   0.903   4.492  11.725 -0.8033  0.4967  0.0116
 2124TIP3    H227788   0.806   4.437  11.623 -0.4133  0.6789 -0.4619
 2125TIP3   OH227789   5.209   4.022  15.915  0.1952 -0.3902 -0.4791
 2125TIP3    H127790   5.131   4.041  15.967  0.3012  2.7478 -1.3132
 2125TIP3    H227791   5.178   3.963  15.847 -0.8388 -1.2248  0.6567
 2126TIP3   OH227792   4.412   2.526   2.722  0.6439 -0.3200  0.2815
 2126TIP3    H127793   4.426   2.447   2.775  0.6141 -0.2202  0.4374
 2126TIP3    H227794   4.341   2.572   2.767  0.4741 -0.3398  0.0390
 2127TIP3   OH227795   4.031   2.770   1.547 -0.1840  0.1421 -0.7527
 2127TIP3    H127796   4.060   2.713   1.476 -0.8242 -0.3826 -0.6072
 2127TIP3    H227797   3.992   2.845   1.504  0.3356  0.3046 -0.9487
 2128TIP3   OH227798   6.010   6.035  13.270 -1.0855  0.4193 -0.1914
 2128TIP3    H127799   5.973   6.106  13.218  0.7187  0.4168 -1.5676
 2128TIP3    H227800   5.997   5.957  13.216  0.4797  0.3538 -0.5209
 2129TIP3   OH227801   3.016   3.259   4.946 -0.3165 -0.2666  0.3452
 2129TIP3    H127802   3.077   3.276   4.874  0.2325  1.3442  1.1473
 2129TIP3    H227803   2.972   3.343   4.961 -1.0256 -0.7951  1.3236
 2130TIP3   OH227804   6.698   6.213   6.224  0.3026 -0.6645 -0.3586
 2130TIP3    H127805   6.610   6.179   6.241  0.3083 -0.4725  0.0902
 2130TIP3    H227806   6.697   6.300   6.264  0.5161 -0.4311 -0.8531
 2131TIP3   OH227807   0.952   4.963   1.740  0.3385 -0.8377 -0.2626
 2131TIP3    H127808   1.041   4.988   1.714  0.1883 -0.0443 -0.0374
 2131TIP3    H227809   0.956   4.868   1.751  1.2705 -0.7612  0.1716
 2132TIP3   OH227810   1.572   0.914   5.314  0.2159  0.1556  0.0615
 2132TIP3    H127811   1.481   0.884   5.315 -0.0949  0.8948  2.6962
 2132TIP3    H227812   1.624   0.834   5.309 -0.5905 -0.3957  0.3666
 2133TIP3   OH227813   4.417   2.103  16.257  0.1387 -0.1788 -0.3878
 2133TIP3    H127814   4.483   2.055  16.308  0.8860  1.0873 -0.1414
 2133TIP3    H227815   4.377   2.036  16.202  1.6573 -0.9690 -0.5819
 2134TIP3   OH227816   3.256   0.244  15.959  0.3119 -0.2177  0.6706
 2134TIP3    H127817   3.210   0.183  16.018 -0.5438  0.5783  0.8605
 2134TIP3    H227818   3.198   0.320  15.955  0.0025 -0.5054 -1.7642
 2135TIP3   OH227819   5.628   4.897  11.780 -0.0022 -0.1926  0.9393
 2135TIP3    H127820   5.639   4.992  11.779  0.7157 -0.2716  0.3464
 2135TIP3    H227821   5.573   4.880  11.855  0.3371  0.6521  1.3910
 2136TIP3   OH227822   5.738   3.411   4.215 -0.1142 -0.0100 -0.0798
 2136TIP3    H127823   5.762   3.486   4.270 -1.9959  0.3257  0.3466
 2136TIP3    H227824   5.701   3.347   4.276 -0.4575 -0.4190 -0.7043
 2137TIP3   OH227825   4.078   3.371   3.490 -0.6586 -0.2902 -0.1815
 2137TIP3    H127826   4.105   3.443   3.433 -1.0713 -0.0018 -0.0199
 2137TIP3    H227827   3.994   3.342   3.456 -1.2810  0.3928  0.7178
 2138TIP3   OH227828   4.478   5.141  16.880 -0.1895 -0.2232  0.2051
 2138TIP3    H127829   4.401   5.195  16.863  0.1475  0.4226  0.7052
 2138TIP3    H227830   4.465   5.064  16.824 -1.0308  0.0273  0.0303
 2139TIP3   OH227831   1.074   2.776   1.334  0.0351 -0.4753 -0.0863
 2139TIP3    H127832   1.034   2.691   1.315  1.2564 -0.9686 -0.4705
 2139TIP3    H227833   1.110   2.805   1.251  1.8791 -0.7888  0.5699
 2140TIP3   OH227834   5.497   4.783  12.053 -0.2567  0.6554  0.0786
 2140TIP3    H127835   5.458   4.867  12.075 -1.3220 -0.0487  1.0420
 2140TIP3    H227836   5.582   4.783  12.098 -1.2127  0.3596  1.9955
 2141TIP3   OH227837   0.484   6.241   6.998  0.0761  0.2222 -0.2866
 2141TIP3    H127838   0.575   6.271   6.993  0.1319  0.0576 -0.2596
 2141TIP3    H227839   0.482   6.162   6.944 -0.1234  0.4035 -0.5450
 2142TIP3   OH227840   0.540   5.985   3.466  0.2333  0.0932  0.1932
 2142TIP3    H127841   0.623   5.977   3.514  0.5325  1.0568 -0.1360
 2142TIP3    H227842   0.479   6.022   3.530  0.4865  0.8598  0.0066
 2143TIP3   OH227843   3.055   4.943   5.041 -0.8714 -0.0627  0.2302
 2143TIP3    H127844   3.099   4.858   5.040  1.0056  0.8340  0.4318
 2143TIP3    H227845   3.054   4.971   4.949  2.4570  1.4806  0.4951
 2144TIP3   OH227846   0.812   0.346   6.647 -0.0200  0.3073  0.5095
 2144TIP3    H127847   0.722   0.361   6.674  0.1100  0.6323  0.7751
 2144TIP3    H227848   0.839   0.428   6.606 -0.0073  0.0379 -0.0193
 2145TIP3   OH227849   0.869   2.191   0.654  0.3125  0.4127  0.1252
 2145TIP3    H127850   0.964   2.204   0.651  0.2231  1.5229  1.2294
 2145TIP3    H227851   0.837   2.262   0.710 -1.3667  1.0738 -1.5834
 2146TIP3   OH227852   1.935   4.515   2.066 -0.3664  0.2458  0.1436
 2146TIP3    H127853   1.927   4.423   2.041 -0.2544  0.2265  0.1821
 2146TIP3    H227854   2.027   4.526   2.089  0.2632  1.0039 -2.4277
 2147TIP3   OH227855   3.940   2.472  12.778  1.0497 -0.4300 -0.1487
 2147TIP3    H127856   3.978   2.555  12.751  0.0116 -0.4320 -1.7679
 2147TIP3    H227857   3.876   2.452  12.710 -0.2926 -1.4803  1.3420
 2148TIP3   OH227858   1.807   2.164  13.233 -0.2954  0.5791  0.1830
 2148TIP3    H127859   1.866   2.239  13.223  1.5476 -0.9713 -1.0935
 2148TIP3    H227860   1.753   2.166  13.154 -1.0973  1.2208  0.7256
 2149TIP3   OH227861   2.129   1.914  10.725 -0.0942 -0.6057  0.2192
 2149TIP3    H127862   2.069   1.958  10.665  0.8941  1.9537  1.0056
 2149TIP3    H227863   2.127   1.822  10.697 -1.8960 -0.0318 -1.8012
 2150TIP3   OH227864   4.474   4.281  15.232  0.7476 -0.7117  0.4630
 2150TIP3    H127865   4.392   4.319  15.202  0.5996  0.5233  2.2881
 2150TIP3    H227866   4.542   4.341  15.201  1.0665 -1.9801 -1.4565
 2151TIP3   OH227867   5.469   2.126   5.195 -0.0388 -0.1460 -0.2448
 2151TIP3    H127868   5.496   2.218   5.195 -0.1512 -0.0992 -1.3484
 2151TIP3    H227869   5.414   2.118   5.118 -0.4867 -1.0202  0.1567
 2152TIP3   OH227870   5.030   2.131   1.827  0.1164  0.4314  0.2445
 2152TIP3    H127871   5.069   2.148   1.913 -0.5942  1.3913  0.4030
 2152TIP3    H227872   5.075   2.053   1.795  1.5681  1.0157  0.7656
 2153TIP3   OH227873   4.589   0.920  14.169 -0.1569 -0.8105  0.7846
 2153TIP3    H127874   4.673   0.963  14.151 -0.0446 -1.4064 -0.1926
 2153TIP3    H227875   4.606   0.828  14.152 -1.5252 -0.7136 -1.4159
 2154TIP3   OH227876   4.400   3.606  11.887 -0.9361  0.0968  0.3376
 2154TIP3    H127877   4.445   3.603  11.802  2.5374 -3.0201  1.9845
 2154TIP3    H227878   4.454   3.663  11.941 -0.6760 -1.1881  1.5022
 2155TIP3   OH227879   6.105   0.080   0.655  0.0725 -0.7526 -0.0037
 2155TIP3    H127880   6.049   0.010   0.688  0.3172 -0.6604  0.6106
 2155TIP3    H227881   6.193   0.043   0.654  0.5091  0.0992  2.0699
 2156TIP3   OH227882   1.986   2.312  13.100 -0.2275 -0.3307  0.0265
 2156TIP3    H127883   1.921   2.324  13.031 -0.1031 -0.4852 -0.1163
 2156TIP3    H227884   2.028   2.229  13.079  1.1155  0.5174 -0.7549
 2157TIP3   OH227885   3.917   5.870   5.924 -0.5973 -0.3387 -0.5375
 2157TIP3    H127886   3.983   5.923   5.970 -0.6744 -0.1062 -0.6929
 2157TIP3    H227887   3.849   5.854   5.990 -0.5457 -0.2911 -0.4729
 2158TIP3   OH227888   1.872   6.502  15.159  0.1488 -0.4086  0.4978
 2158TIP3    H127889   1.867   6.417  15.203 -0.3396 -1.0716 -0.7823
 2158TIP3    H227890   1.799   6.501  15.097  1.9306 -0.3940 -1.7635
 2159TIP3   OH227891   2.631   6.087  14.453 -0.1498  0.3548 -0.0540
 2159TIP3    H127892   2.551   6.076  14.504 -0.7104 -1.0593 -1.1541
 2159TIP3    H227893   2.685   6.147  14.504 -0.9542 -0.4810  1.8625
 2160TIP3   OH227894   4.198   0.476  14.953  0.1551 -0.6241  0.1059
 2160TIP3    H127895   4.258   0.445  15.021 -0.3964 -2.5163 -0.2009
 2160TIP3    H227896   4.164   0.396  14.913  0.8169  0.4056 -2.7449
 2161TIP3   OH227897   2.909   4.317  12.431  0.4806 -0.4433  0.2158
 2161TIP3    H127898   2.909   4.361  12.346 -0.4370 -0.4869  0.1774
 2161TIP3    H227899   2.856   4.374  12.487  0.6049 -0.6990  0.5988
 2162TIP3   OH227900   4.375   0.764   4.029 -0.4718 -0.6794  0.1963
 2162TIP3    H127901   4.282   0.753   4.045 -0.8180  0.1772 -1.0886
 2162TIP3    H227902   4.383   0.851   3.990  0.9250 -0.5380  0.7226
 2163TIP3   OH227903   2.461   0.136   6.662 -0.1273  0.5229  0.2745
 2163TIP3    H127904   2.535   0.125   6.603  1.0532 -0.2493  1.8091
 2163TIP3    H227905   2.470   0.225   6.696  0.4843  0.2151  0.9362
 2164TIP3   OH227906   6.359   4.544   1.398  0.4992 -0.4336 -0.1951
 2164TIP3    H127907   6.266   4.518   1.398  0.5037 -0.7165  2.1625
 2164TIP3    H227908   6.401   4.479   1.454  1.3609  1.8577  2.0391
 2165TIP3   OH227909   4.577   0.998   4.662  0.0490 -0.7728  0.2626
 2165TIP3    H127910   4.605   0.962   4.746  3.0131 -0.0115 -0.2780
 2165TIP3    H227911   4.539   1.083   4.683 -0.3166 -1.0995  0.9255
 2166TIP3   OH227912   5.221   2.392   1.700  1.0543 -0.0263 -0.2739
 2166TIP3    H127913   5.166   2.330   1.653 -0.3825 -0.2156  1.5493
 2166TIP3    H227914   5.173   2.474   1.698  2.4120  0.7837 -1.6893
 2167TIP3   OH227915   4.907   3.110   1.375  0.1424 -0.2409  0.0506
 2167TIP3    H127916   4.887   3.017   1.379  0.4132 -0.2790  2.5704
 2167TIP3    H227917   5.002   3.114   1.365 -0.0594 -0.1448 -2.4759
 2168TIP3   OH227918   5.152   6.743   2.329 -0.3930 -0.0993  0.0418
 2168TIP3    H127919   5.188   6.663   2.289 -0.1800 -1.3347  2.5317
 2168TIP3    H227920   5.230   6.795   2.353 -0.3624 -0.7969  1.5587
 2169TIP3   OH227921   5.655   5.090  10.308 -0.0218  0.8209  0.6153
 2169TIP3    H127922   5.577   5.039  10.330 -0.4812  2.1430  2.2536
 2169TIP3    H227923   5.676   5.063  10.219 -3.6257  1.9453 -0.7551
 2170TIP3   OH227924   4.592   0.439  15.558  0.1396  0.2677  0.2853
 2170TIP3    H127925   4.502   0.408  15.544  0.8038 -1.1574 -1.1209
 2170TIP3    H227926   4.581   0.526  15.596 -1.8304 -0.2158  0.9476
 2171TIP3   OH227927   0.361   6.678  16.777  0.3051  0.7932 -0.3049
 2171TIP3    H127928   0.395   6.766  16.760 -0.0505  0.8728 -0.6291
 2171TIP3    H227929   0.409   6.648  16.853  3.2311 -0.2249 -2.3735
 2172TIP3   OH227930   5.305   3.564  10.692 -0.2636  0.1645 -0.2681
 2172TIP3    H127931   5.355   3.488  10.723 -0.7199 -0.3283 -0.7177
 2172TIP3    H227932   5.258   3.594  10.770  1.0197  0.8875  0.2642
 2173TIP3   OH227933   1.215   5.334  14.977 -0.3348  0.0157 -0.3740
 2173TIP3    H127934   1.262   5.262  15.019 -1.5683 -0.4169  0.2795
 2173TIP3    H227935   1.280   5.372  14.918  0.3785 -1.5497 -0.6595
 2174TIP3   OH227936   1.695   2.028   3.934 -0.3118  0.1266  0.3498
 2174TIP3    H127937   1.713   2.118   3.905 -4.1573  0.4043 -1.7224
 2174TIP3    H227938   1.679   2.037   4.028 -1.6373  1.8718  0.0126
 2175TIP3   OH227939   0.468   2.304   3.431 -0.1462 -0.0357 -0.0975
 2175TIP3    H127940   0.377   2.286   3.457 -0.5208  0.1951 -1.1847
 2175TIP3    H227941   0.505   2.217   3.414 -1.2305 -0.0318 -2.9898
 2176TIP3   OH227942   5.960   0.978  15.281  0.3359 -0.0699 -0.1367
 2176TIP3    H127943   5.979   0.943  15.369  0.5494  0.9435  0.2275
 2176TIP3    H227944   5.870   1.009  15.287  0.5064  0.4257 -0.1371
 2177TIP3   OH227945   4.634   1.512  14.028  0.2410  0.1813  0.7599
 2177TIP3    H127946   4.716   1.468  14.006  0.5388 -0.1461  2.3536
 2177TIP3    H227947   4.570   1.441  14.036  0.2362  0.2395  1.2965
 2178TIP3   OH227948   3.709   4.451  17.144  0.5576 -0.2634  0.5481
 2178TIP3    H127949   3.742   4.522  17.088 -0.2592 -0.7323 -0.5846
 2178TIP3    H227950   3.707   4.488  17.232  0.2778  1.0860 -0.0044
 2179TIP3   OH227951   6.522   2.165  13.211  0.0764  0.3407 -0.1004
 2179TIP3    H127952   6.533   2.161  13.306 -0.9923 -2.0909  0.0014
 2179TIP3    H227953   6.588   2.104  13.177  0.3126  1.0417 -0.9074
 2180TIP3   OH227954   2.383   4.578  13.020 -0.5509  0.1015 -0.0383
 2180TIP3    H127955   2.364   4.626  13.101 -0.9858 -0.5922  0.2874
 2180TIP3    H227956   2.297   4.551  12.988 -0.2542 -1.6461  0.5417
 2181TIP3   OH227957   3.295   4.746   2.244 -0.4546  0.8904  0.0695
 2181TIP3    H127958   3.245   4.812   2.196 -2.3373 -0.6498 -0.2011
 2181TIP3    H227959   3.270   4.757   2.335 -1.6711 -0.0980 -0.1036
 2182TIP3   OH227960   3.718   5.816  15.081  0.0534  0.4335  0.0913
 2182TIP3    H127961   3.768   5.885  15.036 -0.1054 -0.1823 -1.0677
 2182TIP3    H227962   3.775   5.789  15.153  0.2738  1.5171  0.3474
 2183TIP3   OH227963   6.191   2.904   2.997 -0.1041  0.9729  0.0157
 2183TIP3    H127964   6.104   2.914   3.035 -0.1043  1.4818 -0.1190
 2183TIP3    H227965   6.175   2.874   2.908 -0.0804 -1.9376  0.8733
 2184TIP3   OH227966   0.402   3.518  14.432  0.2516  0.4438  0.0208
 2184TIP3    H127967   0.460   3.578  14.385  1.7815 -0.8955  0.1153
 2184TIP3    H227968   0.347   3.575  14.486  1.2770  1.7735 -0.2876
 2185TIP3   OH227969   2.843   6.158  17.221 -0.6181 -0.3522  0.6036
 2185TIP3    H127970   2.882   6.200  17.298  0.6199 -0.8727  0.2794
 2185TIP3    H227971   2.851   6.064  17.238 -1.8601 -0.4881  0.5662
 2186TIP3   OH227972   6.050   1.151   3.527  0.2027 -0.2349 -0.5758
 2186TIP3    H127973   6.038   1.170   3.620 -2.5212  0.1444 -0.9430
 2186TIP3    H227974   6.053   1.055   3.522  2.6426 -0.2731  0.0576
 2187TIP3   OH227975   3.947   2.066   6.483 -0.4808 -0.0255  0.1717
 2187TIP3    H127976   3.975   2.152   6.453 -0.3513 -0.1592 -0.1023
 2187TIP3    H227977   3.973   2.062   6.574 -0.7528  0.3383  0.2702
 2188TIP3   OH227978   4.113   2.470   5.723  0.2088 -0.1023  0.2337
 2188TIP3    H127979   4.058   2.546   5.707 -0.9367 -0.4512  2.1267
 2188TIP3    H227980   4.151   2.486   5.810  1.9113 -0.5832 -0.3832
 2189TIP3   OH227981   5.175   4.264   5.197 -0.5527 -0.6408 -0.2130
 2189TIP3    H127982   5.214   4.210   5.128  0.8172 -0.7181  0.5930
 2189TIP3    H227983   5.215   4.350   5.185 -0.0152 -0.7521  0.6931
 2190TIP3   OH227984   0.990   4.888  12.968 -0.1000 -0.8115 -0.1358
 2190TIP3    H127985   1.047   4.921  12.899  0.5365 -0.6189  0.4810
 2190TIP3    H227986   0.948   4.966  13.005 -0.0123 -0.8610  0.0706
 2191TIP3   OH227987   3.331   2.355   5.263  0.2923  0.4064  0.2773
 2191TIP3    H127988   3.390   2.279   5.262 -1.0098 -0.6373 -1.0869
 2191TIP3    H227989   3.258   2.330   5.207 -1.3593  1.7530  1.7079
 2192TIP3   OH227990   6.498   5.693  11.430  0.1415  0.1850 -0.6047
 2192TIP3    H127991   6.539   5.729  11.351  0.4430  0.6339 -0.2449
 2192TIP3    H227992   6.410   5.731  11.431 -0.2728 -0.7062 -1.3279
 2193TIP3   OH227993   3.548   0.142  16.793 -0.1543  0.0634 -0.7707
 2193TIP3    H127994   3.588   0.174  16.874 -0.1381  1.9968 -1.4853
 2193TIP3    H227995   3.623   0.121  16.736 -0.1734 -0.2788 -0.6762
 2194TIP3   OH227996   5.553   1.276   1.915 -0.5255  0.0869 -0.2509
 2194TIP3    H127997   5.474   1.329   1.929  0.4138  2.0386 -1.7881
 2194TIP3    H227998   5.608   1.296   1.991 -0.3385  1.0893 -0.6263
 2195TIP3   OH227999   2.925   0.984  13.397  0.0048 -0.1727  0.2429
 2195TIP3    H128000   2.990   0.915  13.405  0.9432  0.8855  2.6901
 2195TIP3    H228001   2.973   1.060  13.363 -0.2122  0.2443  0.8393
 2196TIP3   OH228002   6.303   5.691   4.760  0.1366  0.5429  0.0700
 2196TIP3    H128003   6.223   5.703   4.709  0.3453  2.9231  0.2198
 2196TIP3    H228004   6.338   5.779   4.772  1.1167 -0.1083  2.6989
 2197TIP3   OH228005   0.170   3.809   0.886 -0.1708  0.5965 -0.4782
 2197TIP3    H128006   0.134   3.894   0.911  1.3457  1.3085 -0.5720
 2197TIP3    H228007   0.094   3.756   0.862 -1.1828  1.7520  0.1046
 2198TIP3   OH228008   3.302   0.921  13.487 -0.2612 -0.7858  0.4296
 2198TIP3    H128009   3.312   0.912  13.582 -0.1519 -0.1020  0.4916
 2198TIP3    H228010   3.264   1.008  13.475 -1.7084 -1.4656 -0.0841
 2199TIP3   OH228011   1.316   2.320   2.781  0.2197  0.4150 -0.3433
 2199TIP3    H128012   1.268   2.242   2.807 -1.0310  1.7302  1.4409
 2199TIP3    H228013   1.289   2.336   2.690  0.2867 -1.0193 -0.6398
 2200TIP3   OH228014   2.919   0.837   3.115  0.4958  0.1357 -0.3834
 2200TIP3    H128015   2.938   0.930   3.124 -0.6062  0.5255 -1.7644
 2200TIP3    H228016   2.904   0.807   3.205 -2.9759  2.1963 -0.0833
 2201TIP3   OH228017   5.228   3.108   4.917 -0.0285  0.4191  0.0075
 2201TIP3    H128018   5.181   3.134   4.837 -0.6622 -1.9605 -0.4524
 2201TIP3    H228019   5.295   3.047   4.887  0.2019  0.0449  1.2303
 2202TIP3   OH228020   6.176   2.149   1.799  0.2027 -0.3396 -0.6597
 2202TIP3    H128021   6.207   2.199   1.874 -1.4245  0.9485 -0.7772
 2202TIP3    H228022   6.081   2.162   1.799 -0.1513 -2.4478 -1.4442
 2203TIP3   OH228023   4.747   1.273  14.237  0.2734 -0.7240 -0.2916
 2203TIP3    H128024   4.763   1.315  14.322  2.6034 -0.8852 -0.5662
 2203TIP3    H228025   4.654   1.285  14.222  0.3125  2.0256  0.8801
 2204TIP3   OH228026   0.744   5.794  12.987 -0.4982 -0.6529 -0.0108
 2204TIP3    H128027   0.822   5.740  12.997 -0.2307 -0.1287  0.8415
 2204TIP3    H228028   0.767   5.859  12.921 -0.3077 -0.6820  0.0269
 2205TIP3   OH228029   5.096   5.188   6.202 -0.0810 -1.0515  0.3712
 2205TIP3    H128030   5.078   5.171   6.110 -1.7392 -1.4025  0.7227
 2205TIP3    H228031   5.121   5.280   6.206  0.1334 -1.0735 -0.4427
 2206TIP3   OH228032   2.092   3.651   5.941 -0.1481 -0.0406  0.3631
 2206TIP3    H128033   2.071   3.683   5.854 -0.1630  0.2488  0.4724
 2206TIP3    H228034   2.037   3.573   5.953  0.9572 -0.9865 -0.4809
 2207TIP3   OH228035   5.252   1.098   3.575  0.5555 -0.4829 -0.0103
 2207TIP3    H128036   5.162   1.123   3.553  0.3586 -0.2080  1.0264
 2207TIP3    H228037   5.268   1.019   3.524 -0.1487 -0.3335 -0.4804
 2208TIP3   OH228038   2.153   0.467   1.700 -0.0746 -0.4992 -0.2256
 2208TIP3    H128039   2.065   0.432   1.708 -0.4452  0.2857 -0.7164
 2208TIP3    H228040   2.145   0.537   1.635  1.1919 -1.3679 -1.3749
 2209TIP3   OH228041   0.678   5.762  12.164  0.0911  0.3139 -0.2387
 2209TIP3    H128042   0.583   5.763  12.177  0.0394 -0.9644 -0.4120
 2209TIP3    H228043   0.710   5.696  12.226  0.8639  0.6581 -0.2545
 2210TIP3   OH228044   6.277   3.486   3.395 -0.5924 -0.2644  0.2619
 2210TIP3    H128045   6.193   3.519   3.362 -0.2730  0.1561 -0.1571
 2210TIP3    H228046   6.269   3.391   3.391 -0.3415 -0.2354 -1.6509
 2211TIP3   OH228047   0.688   1.954   1.450  0.4119 -0.2364 -0.1804
 2211TIP3    H128048   0.701   1.861   1.468 -0.0901 -0.0327  1.3511
 2211TIP3    H228049   0.764   1.998   1.489  0.3365  0.0438 -0.3438
 2212TIP3   OH228050   3.132   1.511   3.113 -0.0355  0.0042  0.3513
 2212TIP3    H128051   3.043   1.495   3.081 -0.1367 -0.3869  0.8185
 2212TIP3    H228052   3.182   1.534   3.035 -0.5958  0.4435  0.1155
 2213TIP3   OH228053   0.935   2.168   1.993  0.7092  0.5897  0.1239
 2213TIP3    H128054   1.026   2.199   1.992  1.4535 -1.3090  1.6153
 2213TIP3    H228055   0.885   2.242   2.025  1.8190  1.4945 -0.1683
 2214TIP3   OH228056   3.800   6.498   3.982  0.1792  0.2495 -0.3319
 2214TIP3    H128057   3.860   6.566   3.953  1.9368 -0.9952  0.1784
 2214TIP3    H228058   3.797   6.436   3.910  0.3447 -0.2030  0.0435
 2215TIP3   OH228059   0.082   5.668   1.456  0.0825  0.1643 -0.1273
 2215TIP3    H128060   0.155   5.633   1.506  1.6416  2.2002 -0.8066
 2215TIP3    H228061   0.016   5.691   1.521  0.2567 -1.1538  0.5495
 2216TIP3   OH228062   4.284   2.884   0.313  0.2168 -0.2668 -0.3029
 2216TIP3    H128063   4.288   2.962   0.369 -0.7287 -0.6811  0.3867
 2216TIP3    H228064   4.192   2.856   0.319  0.8384 -2.3091  0.7375
 2217TIP3   OH228065   2.668   2.977  13.439 -0.0365  0.1900  0.2522
 2217TIP3    H128066   2.616   2.897  13.432  1.8698 -1.0474 -1.0140
 2217TIP3    H228067   2.617   3.034  13.496 -1.0189 -2.2890  2.0541
 2218TIP3   OH228068   2.301   6.526  11.451 -0.1860  0.3186  0.2305
 2218TIP3    H128069   2.285   6.464  11.380  1.5314  0.7914 -0.6079
 2218TIP3    H228070   2.360   6.592  11.414  0.7424  0.6029  2.0760
 2219TIP3   OH228071   3.209   2.163   6.546 -0.1206 -0.4521  0.3452
 2219TIP3    H128072   3.267   2.142   6.619  0.4212  0.1553  0.1046
 2219TIP3    H228073   3.200   2.259   6.550  0.8928 -0.2552 -1.0875
 2220TIP3   OH228074   2.159   0.465  14.664 -0.1166 -0.1602  0.3861
 2220TIP3    H128075   2.185   0.515  14.588 -0.2066 -1.5153 -0.5762
 2220TIP3    H228076   2.066   0.487  14.677  0.1025  0.6698  0.6115
 2221TIP3   OH228077   5.312   1.600   0.691 -0.1084 -0.0155  0.3416
 2221TIP3    H128078   5.399   1.635   0.712 -0.8972  2.3780 -0.0820
 2221TIP3    H228079   5.295   1.536   0.760  0.3585  2.4087  2.9258
 2222TIP3   OH228080   2.790   4.831  14.671 -0.2944  0.4746  0.1222
 2222TIP3    H128081   2.767   4.774  14.598  1.8842  0.9894 -1.0540
 2222TIP3    H228082   2.719   4.895  14.674 -0.9289 -0.1419 -0.9133
 2223TIP3   OH228083   1.342   6.200   4.990 -0.3944  0.1575  0.1844
 2223TIP3    H128084   1.300   6.132   5.044 -0.9710  1.4859  1.4990
 2223TIP3    H228085   1.298   6.281   5.017  0.8608  1.1678 -0.7201
 2224TIP3   OH228086   2.435   1.169  15.644  0.1108  0.1296  0.0980
 2224TIP3    H128087   2.475   1.248  15.682  3.0896 -0.3754 -1.6632
 2224TIP3    H228088   2.492   1.147  15.570 -2.5370 -1.7918 -1.5229
 2225TIP3   OH228089   1.247   3.899   2.193 -0.1505  0.6404  0.0393
 2225TIP3    H128090   1.261   3.816   2.148  0.1295  0.9806 -0.5170
 2225TIP3    H228091   1.297   3.963   2.141 -0.6840  1.2203  0.2256
 2226TIP3   OH228092   4.005   3.292   4.597  0.3001 -0.1831 -0.5375
 2226TIP3    H128093   3.956   3.217   4.631 -1.2917  0.9824 -0.1430
 2226TIP3    H228094   3.946   3.333   4.535  1.0730  0.8662 -0.6077
 2227TIP3   OH228095   0.119   5.460  17.100 -0.0881 -0.3603  0.1321
 2227TIP3    H128096   0.109   5.518  17.025 -0.1943 -0.0706  0.3677
 2227TIP3    H228097   0.161   5.515  17.167 -0.4183 -0.4785  0.4391
 2228TIP3   OH228098   0.390   5.843  15.330  0.2395  0.2591 -0.4698
 2228TIP3    H128099   0.377   5.762  15.281 -0.7927  0.2865 -0.2554
 2228TIP3    H228100   0.345   5.910  15.279 -1.5930  0.1406  0.9175
 2229TIP3   OH228101   1.375   6.165  13.862 -0.6955 -0.5178 -0.5044
 2229TIP3    H128102   1.334   6.082  13.839 -3.3919  0.3339  0.8158
 2229TIP3    H228103   1.343   6.227  13.796 -2.0134  0.2570  0.8046
 2230TIP3   OH228104   1.307   0.939   4.847  0.1028 -0.0593  0.8494
 2230TIP3    H128105   1.279   0.874   4.784  0.7468 -0.6086  1.1173
 2230TIP3    H228106   1.226   0.967   4.890 -0.4808  1.0488 -0.8624
 2231TIP3   OH228107   4.971   4.228  15.770  0.2236 -0.5678 -0.0181
 2231TIP3    H128108   4.967   4.135  15.788  0.5071 -0.6784 -0.5003
 2231TIP3    H228109   4.932   4.270  15.846 -2.2860 -1.1868 -0.8825
 2232TIP3   OH228110   6.030   2.300   1.268  0.3457  0.4366 -0.7730
 2232TIP3    H128111   6.075   2.217   1.286 -1.2196 -0.6388 -1.5187
 2232TIP3    H228112   6.066   2.361   1.333  1.1073 -0.9889  0.2175
 2233TIP3   OH228113   4.421   0.183  16.042 -0.3962 -0.3203 -0.3989
 2233TIP3    H128114   4.515   0.171  16.025 -0.1674 -1.4349  1.3855
 2233TIP3    H228115   4.392   0.241  15.972  1.6599  0.2083 -0.9022
 2234TIP3   OH228116   3.724   1.043   3.779 -0.2353  0.0539 -0.0417
 2234TIP3    H128117   3.666   0.991   3.724 -0.2439  0.5599 -0.5183
 2234TIP3    H228118   3.800   0.986   3.796 -0.1150 -0.0106 -0.7886
 2235TIP3   OH228119   2.415   5.549   6.696  0.5179 -0.4511 -0.6560
 2235TIP3    H128120   2.460   5.520   6.775 -0.5804  0.2130  0.2445
 2235TIP3    H228121   2.475   5.613   6.656  0.7099 -0.1274  0.1241
 2236TIP3   OH228122   2.449   2.875   4.888 -0.3050  0.3060  0.9319
 2236TIP3    H128123   2.412   2.820   4.820  2.2122  1.4221 -1.5647
 2236TIP3    H228124   2.479   2.814   4.955  0.9850 -1.3357 -1.0146
 2237TIP3   OH228125   3.444   6.429  16.807  0.9587  0.2353 -0.3846
 2237TIP3    H128126   3.402   6.348  16.779 -0.0406  0.4217  0.5263
 2237TIP3    H228127   3.527   6.431  16.758  0.2992 -0.5503 -1.5786
 2238TIP3   OH228128   6.641   0.464   3.750 -0.2708 -0.3512  0.1144
 2238TIP3    H128129   6.668   0.555   3.737  0.4906 -0.6368 -0.3307
 2238TIP3    H228130   6.546   0.466   3.742 -0.1689  0.1936 -1.2228
 2239TIP3   OH228131   0.513   2.551  11.947 -0.0120  0.5499  0.0964
 2239TIP3    H128132   0.529   2.485  12.013  0.7271 -0.1607 -0.7772
 2239TIP3    H228133   0.578   2.619  11.964 -0.0802  0.5573  0.3319
 2240TIP3   OH228134   4.044   4.183   5.717 -0.4057  0.2290  0.1659
 2240TIP3    H128135   4.138   4.197   5.707 -0.1646 -1.8713 -1.0943
 2240TIP3    H228136   4.037   4.112   5.781 -1.1094  0.0807 -0.0680
 2241TIP3   OH228137   3.572   0.492   6.765 -0.2301 -0.4481 -0.1206
 2241TIP3    H128138   3.514   0.535   6.702 -0.1346 -0.7950 -0.4517
 2241TIP3    H228139   3.657   0.488   6.720  0.2583  0.7542  0.6565
 2242TIP3   OH228140   5.462   0.606  12.598 -0.0308  0.4911  0.1444
 2242TIP3    H128141   5.381   0.572  12.559  0.7582 -0.6724 -0.5708
 2242TIP3    H228142   5.454   0.588  12.691  0.0109 -1.0058 -0.1150
 2243TIP3   OH228143   5.334   6.425  14.352  0.7409 -0.5783 -0.0826
 2243TIP3    H128144   5.302   6.475  14.427  3.3239  0.7787  0.1945
 2243TIP3    H228145   5.413   6.382  14.383  1.3942 -0.7047 -1.7873
 2244TIP3   OH228146   0.884   5.958   1.601 -0.1603 -0.0679  0.5733
 2244TIP3    H128147   0.807   5.902   1.592 -1.7974  1.9630  1.1406
 2244TIP3    H228148   0.938   5.915   1.668 -2.1563 -0.1933  2.1885
 2245TIP3   OH228149   1.140   1.792  15.079  0.6466 -0.7384  0.1358
 2245TIP3    H128150   1.107   1.717  15.129 -0.1439 -0.2359  0.3898
 2245TIP3    H228151   1.234   1.779  15.077  0.5808 -1.4007  0.7361
 2246TIP3   OH228152   1.594   3.189   5.679 -0.3833 -0.1932  0.0255
 2246TIP3    H128153   1.505   3.211   5.651 -1.3173  0.0178  2.8344
 2246TIP3    H228154   1.596   3.211   5.772  1.7802 -2.6573  0.6910
 2247TIP3   OH228155   3.944   5.320   2.857  0.1174  0.0071  0.0856
 2247TIP3    H128156   3.907   5.234   2.837  2.0023 -0.8750  0.1425
 2247TIP3    H228157   4.019   5.329   2.798  0.2944  1.3551  0.4724
 2248TIP3   OH228158   1.995   6.703   4.163  0.0457  0.5697  0.1268
 2248TIP3    H128159   2.087   6.712   4.137 -0.2768  0.2168 -1.1928
 2248TIP3    H228160   1.982   6.608   4.171 -0.3104  0.5948 -0.1271
 2249TIP3   OH228161   3.536   0.989   2.253 -0.6662 -0.3816 -0.0323
 2249TIP3    H128162   3.490   1.009   2.334 -1.7583  1.3621 -1.0152
 2249TIP3    H228163   3.512   0.898   2.234 -0.1992 -0.9037  1.6672
 2250TIP3   OH228164   4.417   1.555   3.712 -0.5243 -0.0480  0.4835
 2250TIP3    H128165   4.496   1.605   3.733  0.6942 -1.3527 -0.6783
 2250TIP3    H228166   4.385   1.593   3.630 -0.1427 -0.5007  0.1081
 2251TIP3   OH228167   1.878   3.236   4.772 -0.0969  0.5371  0.0690
 2251TIP3    H128168   1.794   3.246   4.726  0.6512  1.9266 -1.0704
 2251TIP3    H228169   1.870   3.153   4.818 -0.8316 -1.1175 -2.8018
 2252TIP3   OH228170   2.027   1.880   3.920  0.1169 -1.0042 -0.7769
 2252TIP3    H128171   2.084   1.953   3.895 -0.5683 -0.4947 -0.8749
 2252TIP3    H228172   2.086   1.804   3.924  0.8187 -0.4680 -0.7628
 2253TIP3   OH228173   6.061   3.137   4.869 -0.1522 -0.2602  0.0034
 2253TIP3    H128174   6.023   3.224   4.860 -3.4626 -1.6715 -1.5026
 2253TIP3    H228175   6.140   3.140   4.815  0.8498  2.2369  1.4525
 2254TIP3   OH228176   1.073   5.496  15.152  0.1098  0.6301  0.4283
 2254TIP3    H128177   1.124   5.577  15.154 -0.2131  0.9030 -1.3265
 2254TIP3    H228178   1.112   5.444  15.083 -0.7866  0.0301  0.3575
 2255TIP3   OH228179   1.969   0.116   1.539  0.1936 -0.5100  0.0398
 2255TIP3    H128180   2.052   0.148   1.505  0.4650 -1.0053  0.2183
 2255TIP3    H228181   1.936   0.057   1.471 -0.8803  1.0149 -0.8161
 2256TIP3   OH228182   2.104   4.890   3.397  1.1783  0.0372 -0.6544
 2256TIP3    H128183   2.194   4.857   3.400  1.5144  0.9726 -0.0550
 2256TIP3    H228184   2.104   4.964   3.458 -0.2048 -0.4473 -0.0458
 2257TIP3   OH228185   3.212   5.747   5.934  0.0948 -0.3962  0.2403
 2257TIP3    H128186   3.308   5.749   5.932  0.1219 -1.3036 -1.3179
 2257TIP3    H228187   3.190   5.709   6.019  1.1875 -1.7436 -0.0470
 2258TIP3   OH228188   3.388   2.181  13.204 -0.0937  0.7909 -0.1913
 2258TIP3    H128189   3.376   2.226  13.287  0.4319  0.4512  0.0731
 2258TIP3    H228190   3.419   2.249  13.144 -0.0540  0.9435  0.0031
 2259TIP3   OH228191   5.539   4.075   0.331 -0.2534  0.4319  0.3334
 2259TIP3    H128192   5.635   4.077   0.331 -0.0058 -3.3404  0.6983
 2259TIP3    H228193   5.514   4.130   0.405  1.7920 -0.2294  1.6107
 2260TIP3   OH228194   2.010   2.722   3.431 -0.3067 -0.5437  0.0081
 2260TIP3    H128195   1.988   2.815   3.425  0.4280 -0.2626  1.2759
 2260TIP3    H228196   2.018   2.693   3.340 -2.2444  0.1935 -0.4511
 2261TIP3   OH228197   6.656   0.444  11.263  0.2084 -0.1965 -0.0270
 2261TIP3    H128198   6.679   0.520  11.209 -1.5852  0.3380 -0.0950
 2261TIP3    H228199   6.581   0.404  11.218  1.3244 -2.2553 -0.1828
 2262TIP3   OH228200   3.914   2.012  17.091  0.6310 -0.3009 -0.3246
 2262TIP3    H128201   3.954   1.948  17.150 -0.3765 -2.3464 -1.7248
 2262TIP3    H228202   3.967   2.007  17.011 -0.1858 -0.3351 -0.8850
 2263TIP3   OH228203   2.044   1.063  14.381 -0.3214 -0.1474 -0.2160
 2263TIP3    H128204   2.120   1.043  14.436  1.0752  2.0980 -1.1815
 2263TIP3    H228205   1.980   0.996  14.404  0.9440 -0.5494  2.6110
 2264TIP3   OH228206   1.436   4.338  12.849 -0.4489  0.0722 -0.3183
 2264TIP3    H128207   1.445   4.292  12.932  0.8984 -0.5194 -0.7581
 2264TIP3    H228208   1.426   4.269  12.784 -1.3689  0.5229 -0.6721
 2265TIP3   OH228209   0.101   0.368  16.310  0.4203 -0.1358 -0.1191
 2265TIP3    H128210   0.056   0.371  16.225 -0.1288 -1.9256  0.0489
 2265TIP3    H228211   0.163   0.441  16.308 -0.4396  0.5962 -1.5576
 2266TIP3   OH228212   1.268   5.407  11.109  0.5826  0.1989 -0.0744
 2266TIP3    H128213   1.205   5.375  11.174  0.0523 -0.8625 -1.0643
 2266TIP3    H228214   1.311   5.481  11.151 -1.8004  1.4050  0.4225
 2267TIP3   OH228215   1.552   5.355   0.620  0.2857  0.2810  0.4723
 2267TIP3    H128216   1.621   5.393   0.675  1.7189 -1.2934 -0.1464
 2267TIP3    H228217   1.591   5.352   0.532 -0.7469 -0.2313  0.0165
 2268TIP3   OH228218   3.462   5.711   4.951 -0.0593  0.6077  0.2248
 2268TIP3    H128219   3.451   5.719   5.046 -2.9668  0.0894  0.0311
 2268TIP3    H228220   3.465   5.801   4.920 -1.8621  0.8303  0.6128
 2269TIP3   OH228221   0.452   5.493  16.609 -0.5910 -0.3191  0.1970
 2269TIP3    H128222   0.459   5.398  16.615  0.2154 -0.4572 -2.0896
 2269TIP3    H228223   0.407   5.509  16.526 -2.2680  1.3063  1.3358
 2270TIP3   OH228224   6.556   4.553   1.717 -0.4892  0.3429  0.4618
 2270TIP3    H128225   6.510   4.616   1.771 -0.3898  0.4127  0.4639
 2270TIP3    H228226   6.487   4.496   1.683 -0.4601 -0.2626  1.3932
 2271TIP3   OH228227   1.408   0.170  15.098  0.1749 -0.8804 -0.1643
 2271TIP3    H128228   1.313   0.175  15.107  0.4666  2.1060  3.8601
 2271TIP3    H228229   1.428   0.229  15.025 -0.9965  1.2423  1.1292
 2272TIP3   OH228230   4.851   1.641  12.974 -0.0680 -0.2163  0.0308
 2272TIP3    H128231   4.920   1.707  12.963  0.5065 -0.6140  1.0178
 2272TIP3    H228232   4.781   1.687  13.019 -0.3129  0.1069 -0.6727
 2273TIP3   OH228233   1.621   5.057   3.452  0.1819 -0.1262  0.6869
 2273TIP3    H128234   1.530   5.086   3.453  0.3777  0.8505 -1.8832
 2273TIP3    H228235   1.670   5.132   3.416  1.9004 -0.9303  1.2164
 2274TIP3   OH228236   1.311   6.514   4.582  0.0164 -0.4894  0.4624
 2274TIP3    H128237   1.349   6.592   4.622  0.6712  0.0962 -1.2036
 2274TIP3    H228238   1.323   6.445   4.647 -0.7181  0.7943  2.0424
 2275TIP3   OH228239   1.109   1.153  12.677  0.0921 -0.1727  0.1319
 2275TIP3    H128240   1.028   1.200  12.697 -0.0887 -0.3289 -0.2256
 2275TIP3    H228241   1.097   1.122  12.587  0.8265  0.3911 -0.1660
 2276TIP3   OH228242   0.595   0.146   6.187 -0.1760 -0.2525  0.5731
 2276TIP3    H128243   0.642   0.063   6.198 -0.2683 -0.2761  0.7968
 2276TIP3    H228244   0.598   0.187   6.273  2.0194  1.1392 -0.0773
 2277TIP3   OH228245   5.614   0.842  17.263  0.8257 -0.1965  0.0237
 2277TIP3    H128246   5.561   0.859  17.341 -0.9632 -1.8685 -0.7392
 2277TIP3    H228247   5.704   0.839  17.296  0.3308  0.9916  1.6752
 2278TIP3   OH228248   4.503   3.697   4.240 -0.1709 -0.5197  0.4081
 2278TIP3    H128249   4.590   3.731   4.260 -0.8375  0.6390  1.4830
 2278TIP3    H228250   4.446   3.774   4.240 -0.9533 -1.0192 -2.0132
 2279TIP3   OH228251   1.340   4.811   5.455 -0.0002 -0.0013  0.0986
 2279TIP3    H128252   1.391   4.751   5.401 -0.5278  0.5866 -1.0950
 2279TIP3    H228253   1.253   4.772   5.460  0.2206 -0.4048  1.1454
 2280TIP3   OH228254   3.356   1.022  12.334  0.1764 -0.7765 -0.1789
 2280TIP3    H128255   3.262   1.009  12.318  0.4662 -1.4752 -1.3728
 2280TIP3    H228256   3.386   1.074  12.260  0.5720  0.2392  0.6679
 2281TIP3   OH228257   2.254   6.089   4.775 -0.0724  0.2459  1.1180
 2281TIP3    H128258   2.220   6.014   4.824 -0.3015 -0.0834  0.4666
 2281TIP3    H228259   2.175   6.133   4.741  0.1087  0.0827  0.4809
 2282TIP3   OH228260   5.546   2.766   0.738 -0.2638 -0.8468 -0.2740
 2282TIP3    H128261   5.573   2.693   0.683  2.2298  0.9309 -1.5971
 2282TIP3    H228262   5.627   2.796   0.780 -1.1555  1.2171  0.1178
 2283TIP3   OH228263   6.134   4.995   5.101 -0.5791  0.1127  0.1268
 2283TIP3    H128264   6.084   5.028   5.026  0.9362  0.1663 -0.8940
 2283TIP3    H228265   6.114   4.901   5.103 -0.6398  0.1145 -0.3416
 2284TIP3   OH228266   2.761   3.733   5.888  0.7578 -0.5539 -0.3885
 2284TIP3    H128267   2.767   3.706   5.980  0.7907 -1.4973 -0.6539
 2284TIP3    H228268   2.703   3.669   5.848 -0.4756  0.7235 -0.7259
 2285TIP3   OH228269   0.098   3.750   1.872 -0.6537  0.0562 -0.6358
 2285TIP3    H128270   0.046   3.793   1.940  0.2475 -0.1652  0.2206
 2285TIP3    H228271   0.104   3.659   1.900  0.0990  0.0549 -0.7746
 2286TIP3   OH228272   4.467   3.920   0.293  0.2525 -0.2378 -0.4727
 2286TIP3    H128273   4.404   3.963   0.351 -1.0222 -0.1614 -1.8406
 2286TIP3    H228274   4.505   3.992   0.242  1.1089 -0.3363  0.0105
 2287TIP3   OH228275   1.132   4.214  16.033  0.4886  0.1360 -0.2694
 2287TIP3    H128276   1.039   4.235  16.024 -0.0113 -1.2679  1.1139
 2287TIP3    H228277   1.138   4.122  16.009  1.8111  0.5744 -1.7859
 2288TIP3   OH228278   4.705   0.852   5.750  0.2487 -0.1599 -0.3236
 2288TIP3    H128279   4.644   0.787   5.784  0.7746  0.0029  0.9796
 2288TIP3    H228280   4.722   0.825   5.660  1.1911 -2.3576  0.4682
 2289TIP3   OH228281   4.413   2.006   4.546 -0.4284 -0.3485 -0.2024
 2289TIP3    H128282   4.438   2.034   4.634  0.0028 -1.6008  0.1002
 2289TIP3    H228283   4.349   1.936   4.560 -0.1465 -0.7528 -0.8750
 2290TIP3   OH228284   2.551   6.333   1.396 -0.1113 -0.5291  0.2923
 2290TIP3    H128285   2.555   6.259   1.335 -0.7370  0.4585 -0.9751
 2290TIP3    H228286   2.465   6.324   1.438  0.6232 -1.6465  1.6497
 2291TIP3   OH228287   1.391   5.399   4.098 -0.2341 -0.0717  0.5478
 2291TIP3    H128288   1.423   5.424   4.011  1.5092  0.3976  1.2711
 2291TIP3    H228289   1.460   5.344   4.133 -0.2732  0.8374  2.1462
 2292TIP3   OH228290   0.881   3.000   1.585 -0.5912 -0.2778  0.7968
 2292TIP3    H128291   0.949   2.973   1.646 -0.9026 -1.0819  0.8026
 2292TIP3    H228292   0.924   3.002   1.500 -0.5189 -0.5958  0.8270
 2293TIP3   OH228293   1.976   1.470  14.587 -0.1143 -0.2340 -0.3302
 2293TIP3    H128294   1.971   1.391  14.533 -1.0655 -1.1898  1.0842
 2293TIP3    H228295   1.977   1.437  14.677  0.4984  1.3475  0.2641
 2294TIP3   OH228296   2.759   5.410   1.412  0.8291 -0.4924  0.5660
 2294TIP3    H128297   2.817   5.413   1.337  0.3130  0.3805  0.1917
 2294TIP3    H228298   2.682   5.461   1.386  0.0556 -1.2946  1.1863
 2295TIP3   OH228299   3.772   3.330   1.478 -0.3427  0.0266 -0.0376
 2295TIP3    H128300   3.797   3.278   1.554 -1.0622  1.5357  1.2839
 2295TIP3    H228301   3.701   3.386   1.509 -0.4752  0.8842 -1.7486
 2296TIP3   OH228302   2.723   4.202  16.524  0.5673 -0.1244  0.0514
 2296TIP3    H128303   2.650   4.144  16.544  1.0279 -1.1369 -1.0824
 2296TIP3    H228304   2.790   4.181  16.590  0.5028 -0.4467  0.0141
 2297TIP3   OH228305   3.729   1.482  13.485  0.1876  0.1068  0.3563
 2297TIP3    H128306   3.733   1.399  13.534 -0.5507 -0.8989 -1.2003
 2297TIP3    H228307   3.640   1.514  13.501 -0.6693 -1.0958 -1.5640
 2298TIP3   OH228308   4.299   4.927   0.243 -0.2022 -0.6794 -0.8009
 2298TIP3    H128309   4.381   4.975   0.256  0.1183 -1.1908 -0.9178
 2298TIP3    H228310   4.325   4.835   0.236 -0.8685 -0.9392  0.0001
 2299TIP3   OH228311   1.451   2.423   6.157 -0.1152 -0.6260 -0.2211
 2299TIP3    H128312   1.494   2.467   6.231  0.2844  0.4586 -1.0785
 2299TIP3    H228313   1.521   2.377   6.112 -0.3544 -1.2584  0.0370
 2300TIP3   OH228314   4.456   5.740  12.883  0.5957  0.1154  0.4203
 2300TIP3    H128315   4.388   5.763  12.820  3.2907  3.8540 -1.5533
 2300TIP3    H228316   4.462   5.817  12.940  1.5524 -1.1521  2.1195
 2301TIP3   OH228317   2.394   5.691  17.142  0.2419 -0.0947  0.1782
 2301TIP3    H128318   2.309   5.670  17.102  1.8320 -1.9402 -2.6469
 2301TIP3    H228319   2.428   5.763  17.089  1.0009 -0.3288  0.3292
 2302TIP3   OH228320   5.243   5.106  12.944 -0.0740 -0.3198  0.3136
 2302TIP3    H128321   5.252   5.036  13.008  0.5571  0.3753  1.0003
 2302TIP3    H228322   5.322   5.098  12.889 -0.8384 -1.2108 -0.7083
 2303TIP3   OH228323   1.553   5.687   5.592 -0.7842  0.8447 -0.5142
 2303TIP3    H128324   1.642   5.688   5.627 -1.6842  2.1019  2.0171
 2303TIP3    H228325   1.533   5.779   5.576 -2.6241  0.9870  2.0086
 2304TIP3   OH228326   5.670   3.958   6.136 -0.2754 -0.1876 -0.7303
 2304TIP3    H128327   5.581   3.989   6.119  0.1757  1.3806 -0.3663
 2304TIP3    H228328   5.669   3.931   6.227 -0.1897  0.5841 -0.4930
 2305TIP3   OH228329   3.263   2.476   2.091 -0.0708  0.5590 -0.9224
 2305TIP3    H128330   3.306   2.521   2.164  2.4176 -1.3949 -1.0463
 2305TIP3    H228331   3.222   2.399   2.131  0.1482  0.1956 -1.3874
 2306TIP3   OH228332   3.075   5.049  12.311 -0.3585 -0.1828 -0.0903
 2306TIP3    H128333   3.013   5.116  12.282  1.4347  1.6120 -0.0356
 2306TIP3    H228334   3.100   5.003  12.231 -1.1142 -0.3491 -0.2347
 2307TIP3   OH228335   4.093   1.653   5.561 -0.5238  0.1873  0.4052
 2307TIP3    H128336   4.079   1.594   5.488  1.0376 -2.0639  1.7851
 2307TIP3    H228337   4.183   1.684   5.551  0.0839 -0.9624  1.8140
 2308TIP3   OH228338   2.378   5.480  13.290  0.1257  0.1207  0.3802
 2308TIP3    H128339   2.430   5.400  13.287  0.0629  0.0671  0.7351
 2308TIP3    H228340   2.287   5.451  13.283  0.0180  0.0523  1.8138
 2309TIP3   OH228341   3.468   3.487   5.194  0.2857  0.0642 -0.4748
 2309TIP3    H128342   3.437   3.408   5.151  0.1287  0.8120 -1.7716
 2309TIP3    H228343   3.498   3.543   5.123 -0.2848  1.4736  0.3535
 2310TIP3   OH228344   2.649   5.518  17.049  0.7114  0.2283  0.6167
 2310TIP3    H128345   2.715   5.577  17.012 -0.7592  0.8123 -1.2452
 2310TIP3    H228346   2.600   5.573  17.110 -0.2471  0.8427 -0.6403
 2311TIP3   OH228347   0.383   1.542   1.145 -0.2158 -0.0332  0.0156
 2311TIP3    H128348   0.336   1.462   1.167 -0.8395  0.2128 -0.4039
 2311TIP3    H228349   0.365   1.602   1.218  0.8702 -0.5137  0.7084
 2312TIP3   OH228350   1.869   6.632  16.301 -0.3653  0.1341 -0.2958
 2312TIP3    H128351   1.795   6.687  16.324 -0.0850  0.5524 -0.3946
 2312TIP3    H228352   1.937   6.656  16.364 -0.1471  0.1035 -0.5200
 2313TIP3   OH228353   6.021   1.840   6.834 -0.1398  0.1940 -0.3295
 2313TIP3    H128354   6.102   1.815   6.789  0.1890  1.7605 -0.6460
 2313TIP3    H228355   5.999   1.926   6.799 -2.0715 -0.2642 -0.4083
 2314TIP3   OH228356   3.035   5.817  12.831  0.3206  0.1302  0.0979
 2314TIP3    H128357   3.078   5.757  12.770  0.2862  0.2527 -0.0479
 2314TIP3    H228358   2.946   5.826  12.797 -0.3686 -1.4628  1.3591
 2315TIP3   OH228359   4.269   0.152   1.791 -0.1195 -0.2012  0.8615
 2315TIP3    H128360   4.177   0.131   1.781 -0.4567  1.1002  1.0932
 2315TIP3    H228361   4.302   0.088   1.854 -0.7761 -0.8601  0.5526
 2316TIP3   OH228362   1.941   5.066  14.211 -0.8234 -0.9488 -0.0774
 2316TIP3    H128363   1.942   5.122  14.133  0.3871  0.0510  0.6193
 2316TIP3    H228364   2.005   4.997  14.193 -0.7493 -0.8773 -0.0888
 2317TIP3   OH228365   4.046   0.411  12.336  0.0438  0.0463  0.0635
 2317TIP3    H128366   4.070   0.437  12.247 -0.3756  1.8576  0.4428
 2317TIP3    H228367   3.971   0.352  12.324 -1.0883  1.5903 -0.7388
 2318TIP3   OH228368   4.469   0.570   2.812  0.1719  0.3062  0.2580
 2318TIP3    H128369   4.453   0.658   2.848  0.8068  1.6809 -2.5205
 2318TIP3    H228370   4.383   0.537   2.790 -0.1155 -0.0223  1.7842
 2319TIP3   OH228371   4.534   0.848   0.725  0.3316  0.0329  0.6230
 2319TIP3    H128372   4.447   0.833   0.689  0.5655 -1.9750  0.7641
 2319TIP3    H228373   4.572   0.915   0.669 -1.3913  1.1848  0.7475
 2320TIP3   OH228374   4.594   2.541   0.743 -0.4550 -0.1344  0.5277
 2320TIP3    H128375   4.661   2.575   0.802  1.1241 -1.3606 -0.4807
 2320TIP3    H228376   4.578   2.613   0.682  0.9923 -0.2440 -0.0415
 2321TIP3   OH228377   1.794   3.247  12.999  0.1878  0.1588  0.4016
 2321TIP3    H128378   1.734   3.308  12.955  0.7378 -0.3605 -1.1201
 2321TIP3    H228379   1.776   3.162  12.959  1.3272 -0.1605  0.5267
 2322TIP3   OH228380   1.586   5.053  11.219  0.0899 -0.0578  0.3796
 2322TIP3    H128381   1.552   5.020  11.302 -0.3780 -1.1130 -0.2184
 2322TIP3    H228382   1.636   5.131  11.243 -1.2684  0.5096  1.4835
 2323TIP3   OH228383   0.998   3.237  11.795  0.1072 -0.2977 -0.5775
 2323TIP3    H128384   1.032   3.154  11.762 -1.4603 -1.0188 -0.4762
 2323TIP3    H228385   0.909   3.217  11.823 -0.0030  1.2306  0.2827
 2324TIP3   OH228386   3.197   3.384   0.241 -0.7729  0.0094  0.2861
 2324TIP3    H128387   3.185   3.290   0.258 -0.6904 -0.4219 -1.7590
 2324TIP3    H228388   3.200   3.424   0.328  0.1496 -2.0020  1.2499
 2325TIP3   OH228389   2.482   2.532   3.398  0.6303 -0.3292  0.2815
 2325TIP3    H128390   2.462   2.606   3.455 -2.0166  0.3619 -1.3910
 2325TIP3    H228391   2.408   2.527   3.338  2.1567 -2.5014 -1.5876
 2326TIP3   OH228392   0.137   5.727   0.636 -0.6271 -0.1779 -0.6863
 2326TIP3    H128393   0.063   5.691   0.686 -0.7860  0.5652 -0.3711
 2326TIP3    H228394   0.113   5.713   0.545 -1.9643  1.5246 -0.6566
 2327TIP3   OH228395   2.055   3.872  12.021 -0.6322 -0.1764 -0.1254
 2327TIP3    H128396   2.017   3.801  12.072  1.4865 -0.7854  0.7074
 2327TIP3    H228397   1.984   3.900  11.962 -1.0891 -4.1440 -1.7785
 2328TIP3   OH228398   4.482   6.454   4.091 -0.3213 -0.3128  0.4900
 2328TIP3    H128399   4.404   6.441   4.037 -1.4635 -0.0782  2.0218
 2328TIP3    H228400   4.555   6.432   4.033 -1.5221 -0.7383 -0.9247
 2329TIP3   OH228401   3.854   5.713  17.178  0.1644 -0.7008 -0.5710
 2329TIP3    H128402   3.809   5.630  17.195  2.8502 -2.0448  0.6328
 2329TIP3    H228403   3.868   5.714  17.083  1.4317 -2.4207 -0.4342
 2330TIP3   OH228404   0.582   1.754   5.415 -0.1728  0.0160 -0.1323
 2330TIP3    H128405   0.632   1.679   5.383 -1.4131 -1.6933  1.6877
 2330TIP3    H228406   0.564   1.806   5.336  0.3744 -1.7985 -1.5319
 2331TIP3   OH228407   2.605   4.234   2.887  0.1510 -0.4274  0.1266
 2331TIP3    H128408   2.621   4.215   2.795  0.6047  0.8228 -0.0802
 2331TIP3    H228409   2.516   4.203   2.904  0.0771 -0.6940 -0.7243
 2332TIP3   OH228410   6.657   2.105   6.782  0.0263 -0.2092 -0.2329
 2332TIP3    H128411   6.599   2.177   6.758  0.0825 -1.0872 -3.3760
 2332TIP3    H228412   6.726   2.147   6.834 -0.6239  1.7626 -0.8767
 2333TIP3   OH228413   5.296   5.159   0.323 -0.0466  0.0113  0.1612
 2333TIP3    H128414   5.371   5.122   0.276 -1.0341 -0.7148 -0.9146
 2333TIP3    H228415   5.306   5.254   0.314  1.7546  0.0388  1.7214
 2334TIP3   OH228416   0.604   1.913   5.185 -0.4649 -0.2882  0.2833
 2334TIP3    H128417   0.543   1.986   5.177 -0.8875 -0.7001 -0.3024
 2334TIP3    H228418   0.688   1.950   5.158 -0.3950  0.3332  1.2813
 2335TIP3   OH228419   6.350   2.650   2.422  0.1507  0.0342 -0.0624
 2335TIP3    H128420   6.291   2.623   2.352 -0.7712  1.5942  0.0549
 2335TIP3    H228421   6.328   2.593   2.495  1.8996 -2.3820 -1.2944
 2336TIP3   OH228422   1.578   3.997  12.361  0.0056 -0.0033 -0.3000
 2336TIP3    H128423   1.507   3.935  12.379 -0.0485 -0.3082 -1.5202
 2336TIP3    H228424   1.658   3.948  12.381 -0.0736 -0.1546 -0.3491
 2337TIP3   OH228425   5.127   6.111   4.226  0.0382 -0.5966  0.7590
 2337TIP3    H128426   5.165   6.178   4.170  0.0186 -1.5445 -0.4227
 2337TIP3    H228427   5.042   6.091   4.187 -1.0928  0.4589  2.5405
 2338TIP3   OH228428   2.038   4.201  12.976  0.3800 -0.0453 -0.0160
 2338TIP3    H128429   2.023   4.114  13.014  1.1748 -0.9549 -1.6783
 2338TIP3    H228430   2.124   4.194  12.934  0.7206  1.7467  0.3248
 2339TIP3   OH228431   6.040   0.155   4.444 -0.1372 -0.6487  0.2079
 2339TIP3    H128432   6.016   0.212   4.516  1.7780  1.5383 -0.7595
 2339TIP3    H228433   6.128   0.125   4.466  0.4885  0.0737 -1.1762
 2340TIP3   OH228434   0.900   2.955   4.757  0.0946 -0.1981 -0.4188
 2340TIP3    H128435   0.856   2.960   4.842  2.2586  0.4306  0.7171
 2340TIP3    H228436   0.878   2.868   4.724 -0.4527 -0.6017  0.9526
 2341TIP3   OH228437   4.058   4.548   5.425  0.1976 -0.3564  0.1447
 2341TIP3    H128438   4.092   4.586   5.344 -0.0315 -1.0664 -0.2939
 2341TIP3    H228439   3.963   4.547   5.413  0.1786 -0.7055  0.3105
 2342TIP3   OH228440   2.770   2.048   3.144  0.2983  0.1948  0.4856
 2342TIP3    H128441   2.808   2.011   3.223  2.8429  2.9369  0.7106
 2342TIP3    H228442   2.680   2.069   3.168  0.3852 -0.9148  1.9277
 2343TIP3   OH228443   4.706   4.098  14.475 -0.4221 -0.1247 -0.8903
 2343TIP3    H128444   4.665   4.172  14.520 -0.7091 -0.1964 -1.0297
 2343TIP3    H228445   4.639   4.029  14.479 -0.2169 -0.3227 -0.8997
 2344TIP3   OH228446   2.611   3.115  11.495  0.1526 -0.3348 -0.3825
 2344TIP3    H128447   2.559   3.189  11.526  0.5139 -0.8453  1.5276
 2344TIP3    H228448   2.692   3.156  11.462 -0.4104  0.2508 -1.0675
 2345TIP3   OH228449   5.610   0.193   4.823 -0.0626  0.0089 -0.4802
 2345TIP3    H128450   5.653   0.212   4.906 -0.3559  1.9979 -0.7110
 2345TIP3    H228451   5.681   0.192   4.759 -0.0456  0.5426 -0.4769
 2346TIP3   OH228452   0.925   4.954   0.613 -0.8648 -0.4719  0.9030
 2346TIP3    H128453   0.843   4.906   0.626 -0.6040 -2.0087 -2.0994
 2346TIP3    H228454   0.993   4.891   0.637 -0.5539 -1.0981 -1.3962
 2347TIP3   OH228455   3.265   5.484  16.547 -0.2000 -0.5260  0.3485
 2347TIP3    H128456   3.221   5.399  16.543  0.2234 -0.7307 -3.3444
 2347TIP3    H228457   3.194   5.548  16.538 -0.2039 -0.6613 -0.6408
 2348TIP3   OH228458   4.183   4.731   4.284  0.3430 -0.5923  0.2310
 2348TIP3    H128459   4.239   4.728   4.207  0.5691  0.5848  0.3452
 2348TIP3    H228460   4.144   4.818   4.283 -1.5893 -1.4135  0.0869
 2349TIP3   OH228461   1.892   0.335   2.514 -0.8307  0.7018 -0.2905
 2349TIP3    H128462   1.879   0.312   2.422  1.8091 -0.9278 -0.3560
 2349TIP3    H228463   1.948   0.412   2.511  1.3925 -0.8417 -0.1244
 2350TIP3   OH228464   4.214   2.588   6.592  0.1414  0.2995 -0.2661
 2350TIP3    H128465   4.141   2.617   6.536 -0.6170  0.2058  0.6410
 2350TIP3    H228466   4.266   2.667   6.606  0.2352  0.3628 -0.9535
 2351TIP3   OH228467   1.123   1.126   2.556 -0.3849 -0.4337 -0.3375
 2351TIP3    H128468   1.154   1.157   2.641 -2.6019  1.7621 -0.2006
 2351TIP3    H228469   1.093   1.037   2.573  1.1548 -0.7880  0.6542
 2352TIP3   OH228470   2.016   4.637  12.835  0.2572  0.1034  0.1674
 2352TIP3    H128471   1.985   4.727  12.835 -2.6737 -0.8076  0.9483
 2352TIP3    H228472   1.977   4.597  12.757  1.1545 -0.6399  0.0705
 2353TIP3   OH228473   5.227   4.466  17.393  0.6010  0.2322  1.0817
 2353TIP3    H128474   5.217   4.561  17.383  1.0014  0.1686  0.0511
 2353TIP3    H228475   5.140   4.431  17.372  0.5787  0.3303  1.0106
 2354TIP3   OH228476   1.046   4.355  13.290  0.0469 -0.3990 -0.0859
 2354TIP3    H128477   0.996   4.405  13.355  3.0957  1.3580  1.0815
 2354TIP3    H228478   1.116   4.313  13.340  0.7943 -1.4045 -1.8676
 2355TIP3   OH228479   1.879   4.426  12.692 -0.4496  0.0701 -0.4839
 2355TIP3    H128480   1.871   4.385  12.778  2.0072  1.6888  0.6202
 2355TIP3    H228481   1.795   4.471  12.679 -1.0174 -0.5422  0.8378
 2356TIP3   OH228482   3.968   5.171   0.602  0.1232  0.0894 -0.6680
 2356TIP3    H128483   4.051   5.176   0.651 -0.3104 -2.1496  0.4187
 2356TIP3    H228484   3.987   5.113   0.529 -0.5495 -0.7835 -0.1739
 2357TIP3   OH228485   2.334   2.377  11.329 -0.3638  0.3626  0.1228
 2357TIP3    H128486   2.279   2.382  11.407  0.6757  0.6224  0.8483
 2357TIP3    H228487   2.322   2.288  11.296 -0.0295 -0.0734  1.1535
 2358TIP3   OH228488   2.385   0.279   5.125  0.2307 -0.6947  0.0293
 2358TIP3    H128489   2.367   0.326   5.206  0.5915 -0.2189 -0.1678
 2358TIP3    H228490   2.473   0.306   5.100 -0.4787  0.4125 -1.3744
 2359TIP3   OH228491   6.712   1.575  13.203 -0.2834 -0.8418  0.2174
 2359TIP3    H128492   6.778   1.631  13.162  0.5856 -2.3559 -0.5289
 2359TIP3    H228493   6.730   1.582  13.297  0.0383 -0.1725  0.1136
 2360TIP3   OH228494   6.289   0.635   6.233 -0.4146  0.4594  0.2502
 2360TIP3    H128495   6.218   0.574   6.214 -0.6822  0.9772 -0.4927
 2360TIP3    H228496   6.280   0.654   6.326  0.6231 -1.7776  0.8678
 2361TIP3   OH228497   0.245   2.599   5.475  0.4224 -0.9163 -0.4071
 2361TIP3    H128498   0.234   2.587   5.381 -0.9680 -2.5102 -0.0835
 2361TIP3    H228499   0.327   2.648   5.483  1.8823 -2.8334 -2.3595
 2362TIP3   OH228500   3.265   6.698  16.349 -0.4698 -0.4782 -0.0986
 2362TIP3    H128501   3.303   6.687  16.436 -1.3284  2.6358  0.7968
 2362TIP3    H228502   3.246   6.792  16.342 -2.2971 -0.9151 -2.8592
 2363TIP3   OH228503   2.499   3.752  15.461  0.1501 -0.1778  0.7970
 2363TIP3    H128504   2.551   3.807  15.403  0.3523 -1.4602 -0.2702
 2363TIP3    H228505   2.449   3.695  15.403 -1.2515 -0.0731  1.8416
 2364TIP3   OH228506   2.336   2.467  15.491 -0.7082 -1.0333  0.1547
 2364TIP3    H128507   2.369   2.378  15.478  2.3266  0.1716 -1.2070
 2364TIP3    H228508   2.327   2.475  15.586 -0.3726 -2.5580  0.3489
 2365TIP3   OH228509   0.911   1.034  13.546 -0.1013  0.2694 -0.0266
 2365TIP3    H128510   0.925   1.088  13.468 -0.9918  0.5824  0.0128
 2365TIP3    H228511   0.992   0.984  13.556 -0.4440 -0.7651 -1.9166
 2366TIP3   OH228512   6.577   5.754  10.715  0.4406  0.0146  0.4019
 2366TIP3    H128513   6.580   5.796  10.630  1.0131 -0.8643 -0.0382
 2366TIP3    H228514   6.507   5.689  10.708  0.9409 -0.5309  0.3579
 2367TIP3   OH228515   4.417   5.945  12.021  0.3126  0.6691 -0.1778
 2367TIP3    H128516   4.505   5.908  12.009  0.7771  1.1333  1.5472
 2367TIP3    H228517   4.358   5.873  12.000  1.1702 -0.3602  0.7980
 2368TIP3   OH228518   1.331   0.147   2.159  0.4751  0.1654  0.2899
 2368TIP3    H128519   1.280   0.118   2.235 -0.6563  0.1853 -0.4368
 2368TIP3    H228520   1.279   0.120   2.084  1.7877 -0.2220 -0.4983
 2369TIP3   OH228521   4.208   0.063   2.220 -0.0685  0.0726  0.3142
 2369TIP3    H128522   4.275   0.132   2.213 -0.7317  0.8388  1.2509
 2369TIP3    H228523   4.207   0.041   2.313 -1.4575  0.4254  0.4038
 2370TIP3   OH228524   1.038   3.724   6.705  0.9884 -0.4535 -0.3962
 2370TIP3    H128525   1.057   3.632   6.685  0.3250 -0.4557 -1.0620
 2370TIP3    H228526   0.970   3.749   6.642  0.7647  0.3347  0.1399
 2371TIP3   OH228527   0.086   6.280   2.795 -0.7418 -0.5685 -0.3856
 2371TIP3    H128528   0.034   6.201   2.807 -0.0244 -1.2161 -1.3201
 2371TIP3    H228529   0.040   6.330   2.728  0.2647 -1.5718 -1.8768
 2372TIP3   OH228530   2.250   4.778  16.637  0.1895  0.1522 -0.4602
 2372TIP3    H128531   2.285   4.859  16.673 -0.4347 -0.3789  1.4502
 2372TIP3    H228532   2.324   4.739  16.589  1.4361  0.3556  1.2086
 2373TIP3   OH228533   6.733   4.669  13.751  0.7139 -0.0297 -0.2237
 2373TIP3    H128534   6.750   4.656  13.844 -0.0764 -0.6354 -0.1548
 2373TIP3    H228535   6.717   4.581  13.717 -0.0770  0.2931 -0.7102
 2374TIP3   OH228536   4.260   3.287   2.513 -0.4627 -0.3154 -0.7457
 2374TIP3    H128537   4.246   3.369   2.561 -3.2077 -0.2913 -1.4125
 2374TIP3    H228538   4.303   3.229   2.576 -1.7389  0.5072  0.9590
 2375TIP3   OH228539   3.636   0.697   3.013  0.0699 -0.1780  0.5180
 2375TIP3    H128540   3.566   0.664   3.069  0.0756  1.9291  1.8956
 2375TIP3    H228541   3.710   0.710   3.072  1.6674 -2.1957 -0.8784
 2376TIP3   OH228542   3.417   3.206  13.993 -0.6059  0.0369  0.7647
 2376TIP3    H128543   3.407   3.263  14.069  1.5523 -0.7407  1.7052
 2376TIP3    H228544   3.503   3.228  13.956 -1.0041 -0.5676 -0.6217
 2377TIP3   OH228545   0.273   1.811   4.963 -0.0651  0.1521  0.2219
 2377TIP3    H128546   0.294   1.728   4.919  0.7468  0.6952 -0.4454
 2377TIP3    H228547   0.229   1.784   5.044  1.5240 -1.0091  0.7674
 2378TIP3   OH228548   6.274   6.202  12.982  0.4340  0.1785 -0.7582
 2378TIP3    H128549   6.302   6.198  13.073  0.8392  0.0295 -0.8877
 2378TIP3    H228550   6.204   6.268  12.981  0.3875  0.1376 -0.3329
 2379TIP3   OH228551   5.330   0.082   6.018 -0.0479 -0.3587  0.1611
 2379TIP3    H128552   5.330   0.043   6.106  0.5415  0.7682  0.6810
 2379TIP3    H228553   5.241   0.113   6.006 -0.0015 -0.0461  0.5862
 2380TIP3   OH228554   5.239   6.577  14.852  0.0688 -0.4558 -0.2870
 2380TIP3    H128555   5.197   6.570  14.937 -0.4257  0.6758 -0.4055
 2380TIP3    H228556   5.314   6.519  14.856 -0.8831 -1.6954  0.3240
 2381TIP3   OH228557   5.671   0.972   2.204 -0.0056 -0.0701  0.8936
 2381TIP3    H128558   5.645   0.880   2.201 -2.4879  0.5852 -0.2359
 2381TIP3    H228559   5.765   0.971   2.182 -0.2019 -2.2580 -0.1160
 2382TIP3   OH228560   3.030   1.123   0.279 -0.0247 -0.2699 -0.0123
 2382TIP3    H128561   3.093   1.194   0.275 -1.8213  1.4002 -0.1876
 2382TIP3    H228562   3.049   1.068   0.203  1.4872 -0.0832  0.2142
 2383TIP3   OH228563   3.068   2.947   1.942  0.2271  0.7935  0.3238
 2383TIP3    H128564   3.058   3.034   1.903 -2.4782  0.6318  0.4859
 2383TIP3    H228565   3.000   2.943   2.009  0.1489 -1.5306  0.1758
 2384TIP3   OH228566   2.229   3.929  15.049  0.3697  0.7018  0.6071
 2384TIP3    H128567   2.175   3.974  15.114 -0.4815  1.4559 -0.5744
 2384TIP3    H228568   2.289   3.875  15.101 -1.3772 -0.0199  2.0051
 2385TIP3   OH228569   2.453   4.265  10.940 -0.0312 -0.6914  0.5757
 2385TIP3    H128570   2.502   4.237  11.017 -0.6731 -1.9220  0.5644
 2385TIP3    H228571   2.496   4.221  10.867 -0.9388 -1.5670  0.5372
 2386TIP3   OH228572   1.555   0.233  15.375 -0.0857  0.0164 -0.4734
 2386TIP3    H128573   1.493   0.209  15.306  2.1122  0.6743 -2.8080
 2386TIP3    H228574   1.604   0.153  15.393  1.1784  0.4799 -1.7176
 2387TIP3   OH228575   6.542   1.060   3.010  0.5573 -0.2780  0.0383
 2387TIP3    H128576   6.522   1.153   3.010  1.2040 -0.1327  0.0383
 2387TIP3    H228577   6.638   1.056   3.015  0.5891 -0.9266 -0.8118
 2388TIP3   OH228578   0.829   4.047  15.152  0.2028  0.7287  0.3294
 2388TIP3    H128579   0.848   3.954  15.142  0.3297  0.6677  1.1437
 2388TIP3    H228580   0.890   4.091  15.092  0.2293  0.3041  0.0425
 2389TIP3   OH228581   3.802   1.570  11.463  0.1274  0.0709  0.2157
 2389TIP3    H128582   3.837   1.600  11.380  0.3359  1.9319  0.9251
 2389TIP3    H228583   3.804   1.474  11.457 -1.5106  0.1058 -2.5862
 2390TIP3   OH228584   6.343   3.580  16.868 -0.9568  0.2838 -0.3916
 2390TIP3    H128585   6.249   3.593  16.865 -1.1040 -0.5030  0.3226
 2390TIP3    H228586   6.361   3.554  16.959  0.0697  1.3001 -0.2882
 2391TIP3   OH228587   2.709   2.755  16.722 -0.1415 -0.7802  0.2905
 2391TIP3    H128588   2.711   2.667  16.762  0.3216 -0.7094  0.4326
 2391TIP3    H228589   2.752   2.743  16.638 -0.7684 -0.8463 -0.0251
 2392TIP3   OH228590   0.282   0.168   0.791  0.5993 -0.0124  0.1150
 2392TIP3    H128591   0.265   0.262   0.802  2.1532  0.4706 -1.1199
 2392TIP3    H228592   0.225   0.125   0.855 -0.1670  1.7641  0.6897
 2393TIP3   OH228593   5.077   0.865   5.205 -0.1475 -0.1257 -0.4584
 2393TIP3    H128594   5.167   0.878   5.176  0.7555 -0.7554  1.8753
 2393TIP3    H228595   5.043   0.953   5.218  0.9049  0.1389  0.7535
 2394TIP3   OH228596   0.119   0.976  15.981 -0.3014  0.2890 -0.3091
 2394TIP3    H128597   0.088   1.018  15.901 -0.4286  2.0628  0.6258
 2394TIP3    H228598   0.213   0.994  15.982 -0.3625  0.5826  0.1199
 2395TIP3   OH228599   3.607   6.685  16.092 -0.4223 -0.3748 -0.3421
 2395TIP3    H128600   3.636   6.758  16.036  0.5088 -0.7209 -0.3384
 2395TIP3    H228601   3.515   6.702  16.109 -0.5539  0.0759 -1.4644
 2396TIP3   OH228602   1.596   4.660  15.497  0.0310 -1.1085 -0.3968
 2396TIP3    H128603   1.629   4.683  15.583 -0.7781  0.3198 -0.4338
 2396TIP3    H228604   1.657   4.701  15.435 -1.5596  1.3514 -0.4640
 2397TIP3   OH228605   4.225   6.411   6.058 -0.7140 -0.0202  0.3942
 2397TIP3    H128606   4.187   6.375   5.977 -2.1120 -0.0617  1.0413
 2397TIP3    H228607   4.319   6.415   6.040 -0.6142 -2.8211 -0.1976
 2398TIP3   OH228608   0.860   0.845  17.170  0.1400  0.1900 -0.1619
 2398TIP3    H128609   0.951   0.851  17.139 -0.0182  1.0205 -0.5127
 2398TIP3    H228610   0.811   0.897  17.106 -0.8903 -1.8817 -1.1285
 2399TIP3   OH228611   4.460   4.614   2.677  0.2185  0.0021  0.0652
 2399TIP3    H128612   4.537   4.561   2.654 -0.3661 -1.2803  0.9505
 2399TIP3    H228613   4.428   4.575   2.758 -1.5265  0.3319 -0.4342
 2400TIP3   OH228614   3.066   4.075  12.285  0.2179  0.0559  0.2435
 2400TIP3    H128615   3.035   4.151  12.333 -0.6564 -0.4925  0.5723
 2400TIP3    H228616   2.989   4.019  12.276  1.2025 -1.6484  1.6544
 2401TIP3   OH228617   4.288   2.909  10.995 -0.8657  0.7628  0.2134
 2401TIP3    H128618   4.316   2.897  10.904 -0.0471  2.1864  0.2458
 2401TIP3    H228619   4.353   2.864  11.047  0.2278  2.2268  0.1835
 2402TIP3   OH228620   2.035   5.950  12.753 -0.5004 -0.2181 -0.2420
 2402TIP3    H128621   1.999   5.958  12.665  1.9480  0.0531 -1.2949
 2402TIP3    H228622   2.012   6.033  12.796 -1.6678 -0.3352 -0.5913
 2403TIP3   OH228623   1.087   2.907   2.836 -0.1149 -0.5915  0.4763
 2403TIP3    H128624   1.121   2.830   2.791  0.0204 -0.4993  0.4179
 2403TIP3    H228625   1.059   2.875   2.921 -2.1084 -1.1360 -0.3371
 2404TIP3   OH228626   5.073   1.093  15.147 -0.0249  0.7274  0.0972
 2404TIP3    H128627   5.054   1.008  15.109 -0.1682  0.2738  1.1591
 2404TIP3    H228628   5.168   1.094  15.157 -0.1373  0.0961  1.4074
 2405TIP3   OH228629   1.400   0.742  13.650 -0.1229  0.0780  0.3798
 2405TIP3    H128630   1.442   0.676  13.594  1.3038 -0.2060  1.7040
 2405TIP3    H228631   1.456   0.819  13.641 -1.3999  0.9284 -0.6191
 2406TIP3   OH228632   0.273   1.918  11.956  0.1481 -0.2842  0.1902
 2406TIP3    H128633   0.211   1.990  11.969 -0.9611 -1.1784 -0.0339
 2406TIP3    H228634   0.264   1.895  11.863  1.5632  0.2236 -0.1032
 2407TIP3   OH228635   5.013   5.263   0.562 -0.0632  0.0179 -0.1532
 2407TIP3    H128636   5.090   5.267   0.506 -0.6862 -0.3241 -1.0596
 2407TIP3    H228637   4.945   5.223   0.507 -1.3206  1.6981  0.0792
 2408TIP3   OH228638   6.298   1.128   1.262  0.3571 -0.2571 -0.6193
 2408TIP3    H128639   6.324   1.038   1.283  0.0591 -0.6743 -1.9606
 2408TIP3    H228640   6.212   1.119   1.222 -1.3377  0.9752  2.4432
 2409TIP3   OH228641   2.318   5.459  16.943  0.2385 -0.1800 -0.5990
 2409TIP3    H128642   2.291   5.541  16.902 -0.3388  1.2748  2.4163
 2409TIP3    H228643   2.282   5.391  16.886 -1.3658  1.6479 -1.9244
 2410TIP3   OH228644   5.737   4.812   0.861  0.0961 -0.6597 -0.0853
 2410TIP3    H128645   5.731   4.718   0.881 -1.6868 -0.6584 -0.4592
 2410TIP3    H228646   5.659   4.830   0.809  0.4946  1.0142 -0.1411
 2411TIP3   OH228647   1.163   0.010   4.735 -0.1842 -0.2234  0.0822
 2411TIP3    H128648   1.184   0.089   4.784  0.8728  0.1224 -0.8797
 2411TIP3    H228649   1.245  -0.014   4.692 -0.8221 -1.0928 -0.6939
 2412TIP3   OH228650   4.198   2.544  13.979 -0.0987 -0.0544  0.7672
 2412TIP3    H128651   4.157   2.584  13.903  0.4157 -1.0163 -0.0375
 2412TIP3    H228652   4.289   2.533  13.954  0.1293 -0.1823  1.6168
 2413TIP3   OH228653   1.238   0.091  17.013 -0.2042  0.1975 -0.5647
 2413TIP3    H128654   1.264   0.183  17.023 -1.0224  0.6806 -2.5719
 2413TIP3    H228655   1.164   0.081  17.073  0.0237  0.7698 -0.1699
 2414TIP3   OH228656   3.904   0.198  15.181 -0.8033 -0.5480 -0.6447
 2414TIP3    H128657   3.946   0.270  15.133 -1.7357  1.1305  0.9143
 2414TIP3    H228658   3.975   0.136  15.198 -0.0310 -0.1555 -2.3080
 2415TIP3   OH228659   5.325   5.905   5.019 -0.1893  0.7640  0.0325
 2415TIP3    H128660   5.364   5.959   4.951 -0.7530  0.4083 -0.5855
 2415TIP3    H228661   5.262   5.962   5.063 -0.4818  0.7423 -0.3472
 2416TIP3   OH228662   1.227   1.373   0.621 -0.7003 -0.4869  0.0893
 2416TIP3    H128663   1.281   1.305   0.661  0.9282  0.8819  0.3511
 2416TIP3    H228664   1.148   1.327   0.592  0.3414 -2.4716  0.2073
 2417TIP3   OH228665   4.892   4.290  16.630  0.1199 -0.3999 -0.8744
 2417TIP3    H128666   4.945   4.295  16.550 -1.4651  0.5763 -1.9104
 2417TIP3    H228667   4.887   4.380  16.661  0.2930 -0.7045  0.0592
 2418TIP3   OH228668   2.396   5.039  12.397 -0.4667  0.2066  0.2033
 2418TIP3    H128669   2.450   4.960  12.397 -0.5882  0.1169  0.8921
 2418TIP3    H228670   2.381   5.058  12.490 -2.8869 -0.6672  0.0739
 2419TIP3   OH228671   2.850   3.451   3.117 -0.5855 -0.2499  0.0688
 2419TIP3    H128672   2.758   3.476   3.124 -0.0965  1.4744  1.0280
 2419TIP3    H228673   2.864   3.435   3.024 -1.5889  0.5682 -0.2408
 2420TIP3   OH228674   0.304   0.498   5.364  0.0258  0.5331 -0.6000
 2420TIP3    H128675   0.263   0.578   5.332  1.4874  2.1959  1.3905
 2420TIP3    H228676   0.275   0.491   5.454  0.6567 -0.6650 -0.4760
 2421TIP3   OH228677   5.768   2.667  13.790  0.3516 -0.0379  0.0646
 2421TIP3    H128678   5.814   2.690  13.871  1.1572  1.0841 -0.6895
 2421TIP3    H228679   5.757   2.572  13.795 -0.3129  0.0889  1.8403
 2422TIP3   OH228680   1.086   4.462   5.859  0.2917  0.1005  0.1821
 2422TIP3    H128681   1.164   4.484   5.808 -1.1567 -0.6701 -2.5720
 2422TIP3    H228682   1.089   4.366   5.867 -0.2913  0.0804  0.1912
 2423TIP3   OH228683   1.494   3.218   5.189  0.1591  0.1457 -0.4019
 2423TIP3    H128684   1.555   3.273   5.238  0.2321 -0.7363  0.5256
 2423TIP3    H228685   1.550   3.161   5.137  0.0871  0.7080 -1.1075
 2424TIP3   OH228686   1.530   2.178   4.811 -0.3456 -0.4980  0.6452
 2424TIP3    H128687   1.608   2.213   4.767 -1.8387 -0.5935 -2.3084
 2424TIP3    H228688   1.457   2.210   4.759 -2.2044 -1.8559  2.2868
 2425TIP3   OH228689   1.757   3.538   0.345 -0.3543 -0.4966 -0.2315
 2425TIP3    H128690   1.777   3.458   0.296 -0.7994 -0.5026 -0.4085
 2425TIP3    H228691   1.755   3.510   0.436 -0.3881 -0.6643 -0.2829
 2426TIP3   OH228692   3.101   2.688  16.263  0.0689 -0.4648  0.2147
 2426TIP3    H128693   3.135   2.606  16.225 -0.0697 -0.9461  1.0963
 2426TIP3    H228694   3.088   2.745  16.188 -2.8422 -2.3077 -0.8449
 2427TIP3   OH228695   1.128   4.362  11.557  0.8441 -0.0988  0.3606
 2427TIP3    H128696   1.179   4.296  11.602  1.9654  0.2842 -0.3005
 2427TIP3    H228697   1.048   4.370  11.608  1.9655  0.1758  2.1415
 2428TIP3   OH228698   0.206   3.350  12.242 -0.4508  0.6354  0.3576
 2428TIP3    H128699   0.197   3.262  12.281 -0.4179  0.9355  1.0513
 2428TIP3    H228700   0.229   3.333  12.151  0.3641 -0.0762  0.6832
 2429TIP3   OH228701   3.040   3.496  11.768  0.2467  0.1351  0.4564
 2429TIP3    H128702   3.009   3.434  11.834 -0.1781 -0.2123 -0.0622
 2429TIP3    H228703   2.971   3.562  11.764 -0.5633 -0.7457 -0.8427
 2430TIP3   OH228704   0.314   2.720   4.046  0.2160 -0.0384  0.2321
 2430TIP3    H128705   0.261   2.690   4.120 -0.7973  0.3096 -0.3212
 2430TIP3    H228706   0.257   2.783   4.001  0.2943 -1.1888 -1.5866
 2431TIP3   OH228707   3.358   4.880   2.728 -0.0440  0.1231  0.0005
 2431TIP3    H128708   3.274   4.845   2.699 -0.6774  2.0429 -0.5925
 2431TIP3    H228709   3.351   4.974   2.717  0.7050  0.7931  3.7159
 2432TIP3   OH228710   0.101   4.146   3.503 -0.2633 -0.0274  0.5370
 2432TIP3    H128711   0.162   4.105   3.442  1.0549 -0.7232  2.2377
 2432TIP3    H228712   0.096   4.237   3.474 -1.0783 -0.7149 -1.6399
 2433TIP3   OH228713   3.852   0.111   2.682 -0.2184 -0.2484  0.0095
 2433TIP3    H128714   3.842   0.085   2.591  0.2191  1.2018 -0.4903
 2433TIP3    H228715   3.769   0.088   2.724 -0.1534 -1.5852 -0.5714
 2434TIP3   OH228716   2.516   0.713  15.144 -0.2800 -0.0618 -0.0017
 2434TIP3    H128717   2.479   0.772  15.210 -1.9300 -0.6672 -0.3327
 2434TIP3    H228718   2.504   0.626  15.181 -1.1314 -0.4016 -1.0137
 2435TIP3   OH228719   4.803   3.052   5.524  0.0753  0.4228  0.8158
 2435TIP3    H128720   4.748   3.000   5.465  0.6697  1.3746 -0.6404
 2435TIP3    H228721   4.857   2.989   5.570 -1.0580 -0.4117  1.0369
 2436TIP3   OH228722   5.033   5.343  10.611  0.3847  0.4813  0.0994
 2436TIP3    H128723   4.977   5.293  10.671  0.2085 -1.7647 -1.7993
 2436TIP3    H228724   4.973   5.401  10.565 -0.0182 -0.2468 -0.2965
 2437TIP3   OH228725   1.178   1.392   3.263  0.3006  0.5050  0.2378
 2437TIP3    H128726   1.122   1.468   3.281  0.9707  1.1916 -0.4800
 2437TIP3    H228727   1.119   1.326   3.228 -0.4239  0.4035  1.5957
 2438TIP3   OH228728   6.480   1.792   1.605  0.2583  0.3787 -0.3715
 2438TIP3    H128729   6.505   1.786   1.698 -0.0880 -2.7941 -0.3619
 2438TIP3    H228730   6.392   1.831   1.607 -1.3160 -2.8342  1.1002
 2439TIP3   OH228731   2.348   2.268   1.547  0.2377  0.1035  0.0405
 2439TIP3    H128732   2.431   2.288   1.589  0.5946  0.0667 -0.6316
 2439TIP3    H228733   2.325   2.181   1.580  0.0690  0.4380  0.8281
 2440TIP3   OH228734   6.480   5.788   3.301 -0.2159  0.0744 -0.2104
 2440TIP3    H128735   6.464   5.753   3.213 -0.3630  1.4496 -0.7535
 2440TIP3    H228736   6.543   5.858   3.287  1.3121 -0.9748  1.0587
 2441TIP3   OH228737   0.760   0.776   4.512 -0.5648 -0.2556 -0.4169
 2441TIP3    H128738   0.791   0.687   4.496  0.9119 -0.0441  0.9882
 2441TIP3    H228739   0.700   0.767   4.586 -2.3185 -0.3705 -1.7962
 2442TIP3   OH228740   5.661   2.885  14.183  0.4367 -0.1135 -0.5870
 2442TIP3    H128741   5.626   2.967  14.217  2.1568  0.8598 -1.0106
 2442TIP3    H228742   5.621   2.817  14.236 -0.9333  1.0029 -0.1330
 2443TIP3   OH228743   2.812   5.984   5.961 -0.3603 -0.1310  0.5444
 2443TIP3    H128744   2.830   6.078   5.962 -2.1934  0.2513  0.8820
 2443TIP3    H228745   2.846   5.952   6.045  2.1954 -0.2315 -0.4230
 2444TIP3   OH228746   4.644   3.289   1.101 -0.2727  0.0099  0.5830
 2444TIP3    H128747   4.692   3.366   1.133 -1.1879  0.7977  0.1105
 2444TIP3    H228748   4.712   3.223   1.086  0.3913  0.2566  2.2707
 2445TIP3   OH228749   4.659   6.575  17.051 -0.2482 -0.1423 -0.1223
 2445TIP3    H128750   4.678   6.664  17.021  1.2489 -1.0890 -2.2350
 2445TIP3    H228751   4.592   6.586  17.118  1.0274  2.6920  0.8425
 2446TIP3   OH228752   0.123   6.690  11.201  0.0147 -0.0691  0.4702
 2446TIP3    H128753   0.068   6.768  11.198  1.4028  0.9801  1.1173
 2446TIP3    H228754   0.116   6.652  11.113  1.0751  2.0784 -0.6188
 2447TIP3   OH228755   2.487   2.621   4.292  0.7657  0.1959 -0.5930
 2447TIP3    H128756   2.559   2.575   4.250  0.6551  0.7328 -1.3689
 2447TIP3    H228757   2.523   2.648   4.377  0.8728 -1.2016 -0.1546
 2448TIP3   OH228758   2.763   3.181   5.057 -0.3460 -0.0923  0.3877
 2448TIP3    H128759   2.782   3.219   5.143 -1.0849  0.1462  0.4508
 2448TIP3    H228760   2.848   3.177   5.013 -0.1255  0.7845  0.7225
 2449TIP3   OH228761   2.836   2.404  11.807  0.0393  0.1434 -0.0063
 2449TIP3    H128762   2.784   2.480  11.833  0.6962  0.6642 -0.2224
 2449TIP3    H228763   2.770   2.337  11.786 -0.6152  1.2500 -1.7195
 2450TIP3   OH228764   5.641   1.356  14.124  0.8154  0.2664 -0.1305
 2450TIP3    H128765   5.585   1.283  14.148 -0.1815  1.6285  1.8823
 2450TIP3    H228766   5.586   1.433  14.133  2.3294  1.4443 -0.5015
 2451TIP3   OH228767   4.770   3.783   4.248 -0.2382 -0.3629 -0.0112
 2451TIP3    H128768   4.795   3.874   4.233 -1.7856  0.4240  1.6943
 2451TIP3    H228769   4.751   3.779   4.342  0.6154 -2.6907  0.1352
 2452TIP3   OH228770   3.983   3.938   4.027 -0.4714 -0.0870  0.4540
 2452TIP3    H128771   4.038   3.986   4.089 -1.3235  1.7733 -0.1676
 2452TIP3    H228772   4.044   3.882   3.980  0.8998  1.7034 -0.0247
 2453TIP3   OH228773   0.303   6.475   3.678 -0.3761  0.9344 -0.5718
 2453TIP3    H128774   0.360   6.443   3.608 -0.1498  0.0334  0.0069
 2453TIP3    H228775   0.294   6.569   3.661 -0.6461  0.6629 -2.0272
 2454TIP3   OH228776   3.141   6.185  13.770  0.3233  0.0400 -0.6820
 2454TIP3    H128777   3.101   6.230  13.695 -0.0511  0.3930 -0.2723
 2454TIP3    H228778   3.116   6.238  13.846 -1.8943 -1.9694  0.1025
 2455TIP3   OH228779   2.909   0.523  10.938 -0.3301 -0.0291 -0.2061
 2455TIP3    H128780   2.833   0.549  10.886 -0.1313  0.3188 -0.3224
 2455TIP3    H228781   2.961   0.468  10.879 -0.2740  0.0883 -0.2661
 2456TIP3   OH228782   0.285   6.694   6.392  0.0581  0.0841  0.1223
 2456TIP3    H128783   0.195   6.722   6.374  0.4460  0.8176 -0.7537
 2456TIP3    H228784   0.295   6.705   6.486 -0.6063  0.4987  0.1534
 2457TIP3   OH228785   4.463   2.485  14.607  0.0566  0.2283  0.0484
 2457TIP3    H128786   4.532   2.454  14.549  0.7938 -0.0921  1.0779
 2457TIP3    H228787   4.483   2.578  14.621  1.9667 -0.4544  2.5590
 2458TIP3   OH228788   5.881   4.859   0.309  0.3012 -0.6989 -0.0607
 2458TIP3    H128789   5.955   4.897   0.261  0.5983 -0.4435  0.5848
 2458TIP3    H228790   5.807   4.867   0.250  1.0306 -2.0921 -1.2353
 2459TIP3   OH228791   2.928   5.699  11.310  0.0826  0.1524 -0.4693
 2459TIP3    H128792   2.838   5.710  11.340  0.7539  2.7244  0.9098
 2459TIP3    H228793   2.929   5.732  11.221 -0.7017 -1.9271 -1.3224
 2460TIP3   OH228794   3.085   5.016   4.762  0.0033  0.1324 -0.1886
 2460TIP3    H128795   3.125   4.962   4.694  0.5985  2.5904 -1.9010
 2460TIP3    H228796   3.003   5.047   4.725  0.5477  1.8786 -0.0136
 2461TIP3   OH228797   0.417   3.750   3.026 -0.1491 -0.2230  0.2638
 2461TIP3    H128798   0.480   3.790   2.965  1.8534  1.1717  3.0465
 2461TIP3    H228799   0.427   3.656   3.013 -0.2978  0.0054 -1.9542
 2462TIP3   OH228800   6.562   3.740   4.193 -0.4808  0.4523  0.6918
 2462TIP3    H128801   6.598   3.828   4.206  1.8054 -0.1049 -1.1907
 2462TIP3    H228802   6.629   3.694   4.143 -1.1702 -2.7003  2.4024
 2463TIP3   OH228803   2.525   6.062   2.516 -0.4308  0.7428  0.2184
 2463TIP3    H128804   2.595   6.127   2.517  0.6197 -0.3132 -0.9509
 2463TIP3    H228805   2.504   6.048   2.608  1.0538  0.9232  0.6049
 2464TIP3   OH228806   6.367   6.319   0.401 -0.3565 -0.2534  0.0675
 2464TIP3    H128807   6.438   6.376   0.430 -0.8335  0.0533  0.6687
 2464TIP3    H228808   6.312   6.307   0.480 -1.3970  0.1592 -0.5747
 2465TIP3   OH228809   2.131   2.392  13.305  0.1515 -0.5935 -0.2365
 2465TIP3    H128810   2.093   2.369  13.220 -1.8380  0.6184  0.2805
 2465TIP3    H228811   2.074   2.459  13.341  2.9599  1.6110  0.5062
 2466TIP3   OH228812   3.255   0.257   5.781  0.3497 -0.1147 -0.7351
 2466TIP3    H128813   3.210   0.255   5.866 -0.3861  3.0549 -0.9166
 2466TIP3    H228814   3.192   0.219   5.720 -0.1977  0.0052 -0.2551
 2467TIP3   OH228815   5.520   2.605   2.706  0.3953  0.2388  0.0823
 2467TIP3    H128816   5.438   2.556   2.697  0.1755  0.9656 -5.7326
 2467TIP3    H228817   5.492   2.697   2.707  0.9481  0.4817 -1.7586
 2468TIP3   OH228818   3.429   6.502  11.089 -0.1873  0.5511  0.1421
 2468TIP3    H128819   3.358   6.519  11.027 -2.5961 -0.3927  2.4571
 2468TIP3    H228820   3.477   6.428  11.051 -0.9587  0.6580 -1.0763
 2469TIP3   OH228821   1.345   0.843  17.366  0.1917 -0.4847 -0.4596
 2469TIP3    H128822   1.265   0.804  17.332  0.6986 -0.3482 -1.9108
 2469TIP3    H228823   1.415   0.805  17.313  0.9573  0.3687 -0.0994
 2470TIP3   OH228824   0.906   4.110  13.065  0.6725 -0.2832  0.1933
 2470TIP3    H128825   0.863   4.094  13.149  0.7086  1.0985  0.5072
 2470TIP3    H228826   0.860   4.186  13.028  1.9615  0.4067 -0.0654
 2471TIP3   OH228827   6.740   1.665  13.694  0.0497  0.0775 -0.1643
 2471TIP3    H128828   6.695   1.584  13.671 -0.0760 -0.1873  0.9691
 2471TIP3    H228829   6.702   1.731  13.635  0.5571 -0.7754 -1.4880
 2472TIP3   OH228830   4.147   1.360   6.312 -0.8626 -0.0809 -0.5522
 2472TIP3    H128831   4.168   1.278   6.356  0.8053 -0.3587 -1.7933
 2472TIP3    H228832   4.162   1.428   6.378 -0.2885 -0.6185 -0.1247
 2473TIP3   OH228833   0.553   4.080  17.288  0.3793 -0.2278  0.1765
 2473TIP3    H128834   0.482   4.137  17.318 -0.3705 -1.8365  1.6879
 2473TIP3    H228835   0.629   4.110  17.338 -0.1877 -0.9978  1.5505
 2474TIP3   OH228836   1.829   1.899  13.303 -0.0387  0.1761 -0.2220
 2474TIP3    H128837   1.793   1.987  13.295 -0.3524  0.3619  2.2955
 2474TIP3    H228838   1.882   1.902  13.383 -0.1366 -1.9425 -0.0132
 2475TIP3   OH228839   0.470   0.624  12.358  0.2186  0.2348  0.4959
 2475TIP3    H128840   0.380   0.606  12.329  0.2524 -0.4778  0.8310
 2475TIP3    H228841   0.473   0.595  12.449  0.9388 -0.2376  0.3270
 2476TIP3   OH228842   2.407   1.541  16.551 -0.0436  0.0629 -0.4129
 2476TIP3    H128843   2.468   1.467  16.558  0.3662  0.5162  1.3340
 2476TIP3    H228844   2.322   1.504  16.575  0.1180  0.0883  0.2179
 2477TIP3   OH228845   6.107   6.133   5.732 -0.0279  0.7394 -0.3078
 2477TIP3    H128846   6.073   6.047   5.752  0.8743  0.9849  2.7171
 2477TIP3    H228847   6.031   6.183   5.701 -0.9556 -0.5673 -0.1952
 2478TIP3   OH228848   2.316   3.266   1.654  0.8914  0.4986  0.2662
 2478TIP3    H128849   2.270   3.195   1.697  1.0215 -1.4374 -2.5401
 2478TIP3    H228850   2.296   3.343   1.707 -2.4982 -0.8777  1.2552
 2479TIP3   OH228851   6.136   0.925  17.050 -0.0529 -0.1828 -0.3328
 2479TIP3    H128852   6.178   1.003  17.014 -1.9726  1.2135  0.3384
 2479TIP3    H228853   6.209   0.876  17.089  1.3771  0.6043 -1.8723
 2480TIP3   OH228854   5.348   0.987  17.151 -0.1576 -0.2914  0.0164
 2480TIP3    H128855   5.443   0.985  17.162 -0.1157  2.1858  0.6674
 2480TIP3    H228856   5.328   1.080  17.138 -2.2393 -1.0012 -2.6704
 2481TIP3   OH228857   1.907   5.519   1.916  0.3021  0.2078 -0.1934
 2481TIP3    H128858   1.981   5.529   1.976 -0.5367 -1.7843  1.3224
 2481TIP3    H228859   1.847   5.590   1.940  0.7093  0.4229  0.2019
 2482TIP3   OH228860   0.436   3.821  14.673  0.7908  0.1481  0.4320
 2482TIP3    H128861   0.456   3.806  14.580 -0.0015  1.7636 -0.0335
 2482TIP3    H228862   0.385   3.744  14.699 -1.0512  0.7351 -1.1671
 2483TIP3   OH228863   4.064   5.813  13.191 -0.2065 -0.5863 -0.5990
 2483TIP3    H128864   4.099   5.837  13.105 -1.4343 -2.5628 -1.7346
 2483TIP3    H228865   4.026   5.894  13.224  1.9760  0.6812 -1.0008
 2484TIP3   OH228866   6.017   1.399  17.165 -0.1608 -0.3728  0.5101
 2484TIP3    H128867   6.017   1.494  17.157 -0.2178 -0.2644  1.6120
 2484TIP3    H228868   6.073   1.369  17.094 -1.4428  0.3766 -0.8703
 2485TIP3   OH228869   6.563   0.050   5.206  0.1421 -0.5116  0.0034
 2485TIP3    H128870   6.582   0.081   5.117  0.4442  0.5734  0.4231
 2485TIP3    H228871   6.647   0.017   5.238  0.2985  0.1191  0.2642
 2486TIP3   OH228872   5.436   0.277   3.221 -0.4496  0.6662  0.0231
 2486TIP3    H128873   5.488   0.270   3.141 -2.4489  0.6834 -1.3839
 2486TIP3    H228874   5.468   0.208   3.278  1.2274  0.8412 -0.6721
 2487TIP3   OH228875   0.840   5.410   3.202 -0.1576  0.6420  0.2063
 2487TIP3    H128876   0.844   5.363   3.119 -0.8549  0.1658  0.4342
 2487TIP3    H228877   0.903   5.482   3.192 -1.5600  1.7181 -1.4500
 2488TIP3   OH228878   6.735   2.348  13.378 -0.1091 -0.0086 -0.0866
 2488TIP3    H128879   6.648   2.328  13.413  0.1288  0.2726  0.6851
 2488TIP3    H228880   6.734   2.443  13.362  0.2139  0.0740  0.3762
 2489TIP3   OH228881   2.390   1.668   3.400 -0.5414 -0.4155 -0.9642
 2489TIP3    H128882   2.344   1.700   3.322  0.7768 -0.6603 -1.8819
 2489TIP3    H228883   2.433   1.588   3.371 -0.8025 -1.0393  0.3022
 2490TIP3   OH228884   4.460   3.171  14.585 -0.1699 -0.0326  0.2851
 2490TIP3    H128885   4.391   3.140  14.527  0.2173  2.3931 -1.6089
 2490TIP3    H228886   4.433   3.259  14.611  1.0039 -0.0179  1.5846
 2491TIP3   OH228887   0.708   1.501  16.458 -0.2934  0.2235 -0.0215
 2491TIP3    H128888   0.727   1.584  16.413  0.0811 -0.5894 -1.4179
 2491TIP3    H228889   0.627   1.470  16.417  0.0831 -0.5585 -0.1907
 2492TIP3   OH228890   2.882   5.178   4.965 -0.0027  0.0638  0.4894
 2492TIP3    H128891   2.940   5.143   4.898 -1.0916  2.0785 -1.6552
 2492TIP3    H228892   2.941   5.210   5.034  1.1490 -1.9221  0.4775
 2493TIP3   OH228893   2.648   3.210  17.147  0.0368 -0.0715  0.2592
 2493TIP3    H128894   2.629   3.300  17.172 -0.9201  0.1666 -1.1932
 2493TIP3    H228895   2.660   3.213  17.052  2.2610 -1.1230  0.4434
 2494TIP3   OH228896   0.213   4.099   0.580  0.1513 -0.7395  0.0682
 2494TIP3    H128897   0.194   4.187   0.613  0.7504 -0.6661  0.2192
 2494TIP3    H228898   0.303   4.081   0.608  0.2922 -1.1020 -0.5993
 2495TIP3   OH228899   3.819   0.229   1.943 -0.7370 -0.1582  0.2104
 2495TIP3    H128900   3.863   0.312   1.960 -0.8062  0.0790 -0.6905
 2495TIP3    H228901   3.794   0.234   1.850  1.1244 -2.0179 -0.4670
 2496TIP3   OH228902   2.815   0.297  12.462  0.0490 -0.5290 -0.0629
 2496TIP3    H128903   2.721   0.299  12.484  0.2970 -1.1025  1.1621
 2496TIP3    H228904   2.842   0.389  12.466 -0.3491 -0.4138  0.0948
 2497TIP3   OH228905   4.538   2.841  17.301 -0.0276  0.2692  0.3806
 2497TIP3    H128906   4.485   2.898  17.357  0.2170  0.9482 -0.0684
 2497TIP3    H228907   4.560   2.895  17.226 -2.0720 -1.2304 -1.4404
 2498TIP3   OH228908   2.456   5.208   5.869  0.0123 -0.0172  0.0458
 2498TIP3    H128909   2.363   5.204   5.844  0.4521  0.2677 -1.7748
 2498TIP3    H228910   2.489   5.287   5.825  1.3556 -0.7108 -0.2440
 2499TIP3   OH228911   4.635   5.514   2.041 -0.1102 -0.5627  0.5050
 2499TIP3    H128912   4.562   5.496   1.981 -0.4193 -0.3639  0.8185
 2499TIP3    H228913   4.621   5.604   2.070 -0.7148 -1.0784  1.8990
 2500TIP3   OH228914   2.998   4.848  16.477  0.2545 -0.4199 -0.1421
 2500TIP3    H128915   2.974   4.924  16.530  1.4443 -0.6101  0.7152
 2500TIP3    H228916   3.011   4.778  16.540 -1.0335 -1.4270 -0.9354
 2501TIP3   OH228917   4.271   5.118  16.055 -0.4882 -0.6390 -0.1727
 2501TIP3    H128918   4.182   5.143  16.028 -0.5011  0.2142  0.5997
 2501TIP3    H228919   4.304   5.065  15.983 -1.9287 -1.6946 -0.1116
 2502TIP3   OH228920   5.288   4.901  13.129  0.0861  0.3143  0.3739
 2502TIP3    H128921   5.371   4.867  13.161 -0.9533 -2.9175  0.0198
 2502TIP3    H228922   5.239   4.923  13.209  1.0507  1.8437  0.5915
 2503TIP3   OH228923   6.580   6.430  15.054  0.3658 -0.6582 -0.0386
 2503TIP3    H128924   6.643   6.493  15.089  2.3119 -1.9168 -1.0908
 2503TIP3    H228925   6.606   6.418  14.962 -3.0976  0.7644 -1.3884
 2504TIP3   OH228926   4.538   0.061  11.935 -0.2489 -0.4760  0.5264
 2504TIP3    H128927   4.616   0.118  11.936 -0.5466  0.1366 -2.6552
 2504TIP3    H228928   4.474   0.109  11.987  0.1397  1.2113 -0.4592
 2505TIP3   OH228929   6.578   1.909  14.464  0.0096  0.4437  0.0968
 2505TIP3    H128930   6.613   1.928  14.377  0.2618 -1.0211 -0.1578
 2505TIP3    H228931   6.649   1.862  14.508 -1.2057 -1.7095 -0.0749
 2506TIP3   OH228932   6.492   3.397  12.721  0.8939  0.0094  0.5333
 2506TIP3    H128933   6.412   3.365  12.764  1.9582 -1.9947  1.1571
 2506TIP3    H228934   6.485   3.365  12.631 -0.1749  2.0882 -0.1818
 2507TIP3   OH228935   5.534   1.163  13.627 -0.0496  0.1149 -0.5396
 2507TIP3    H128936   5.456   1.108  13.632  0.9947 -1.3367  0.4390
 2507TIP3    H228937   5.515   1.238  13.683 -0.3852 -0.7015  0.4572
 2508TIP3   OH228938   2.277   5.632  11.997  0.4238  0.0509 -0.0922
 2508TIP3    H128939   2.354   5.624  11.940 -0.6882 -2.1392 -1.4514
 2508TIP3    H228940   2.300   5.583  12.076  1.0681  0.9820  0.3121
 2509TIP3   OH228941   1.187   4.313  16.844 -0.0104 -0.0477  0.2529
 2509TIP3    H128942   1.110   4.353  16.804 -0.9142 -1.5286  0.4833
 2509TIP3    H228943   1.237   4.388  16.878 -0.9062  0.9881 -0.6244
 2510TIP3   OH228944   0.317   1.282   0.747 -0.3012  0.0239  0.2145
 2510TIP3    H128945   0.286   1.365   0.785  1.5414  1.4729 -1.2470
 2510TIP3    H228946   0.399   1.264   0.794  0.4065  0.2114 -0.8980
 2511TIP3   OH228947   4.439   0.479   2.435  0.4649 -0.1866 -0.5511
 2511TIP3    H128948   4.398   0.400   2.400  0.9990 -0.9050  0.4063
 2511TIP3    H228949   4.529   0.453   2.454  1.2989  1.2422 -2.2026
 2512TIP3   OH228950   0.877   1.249   4.351 -0.1233  0.0669 -0.0759
 2512TIP3    H128951   0.858   1.165   4.392  0.2821  0.0225  0.0245
 2512TIP3    H228952   0.804   1.306   4.376 -0.0549 -0.0624  0.4097
 2513TIP3   OH228953   6.256   5.934   3.918 -0.4438  0.8387 -0.0655
 2513TIP3    H128954   6.286   5.993   3.987 -0.7414  1.0414 -0.1056
 2513TIP3    H228955   6.181   5.888   3.957  0.8972 -0.8863  0.6332
 2514TIP3   OH228956   6.032   5.659  10.572 -0.2987  0.0496  0.6981
 2514TIP3    H128957   6.041   5.637  10.479 -2.1263  1.5559  0.0989
 2514TIP3    H228958   5.967   5.596  10.605  1.4293 -1.4649  1.3991
 2515TIP3   OH228959   0.132   2.025  15.577 -0.2607 -0.5785  0.3683
 2515TIP3    H128960   0.092   1.986  15.499 -2.0784  0.8212  0.5453
 2515TIP3    H228961   0.147   2.117  15.552 -0.5822 -0.1917  1.5597
 2516TIP3   OH228962   3.551   2.022   3.149 -0.5322 -0.3330 -0.1029
 2516TIP3    H128963   3.609   2.063   3.213  0.1051  0.2709 -1.0363
 2516TIP3    H228964   3.595   1.940   3.125 -0.0514  0.1227 -0.8071
 2517TIP3   OH228965   4.958   1.539   5.620  0.5949 -0.7839 -0.1690
 2517TIP3    H128966   4.942   1.566   5.710  1.5196  1.9041 -0.6909
 2517TIP3    H228967   4.881   1.488   5.595 -0.4564 -0.1460  1.6292
 2518TIP3   OH228968   5.383   4.267  13.886  0.4323  0.2225 -0.4638
 2518TIP3    H128969   5.427   4.350  13.867 -1.6395  1.3394 -0.7386
 2518TIP3    H228970   5.291   4.285  13.870 -0.1779 -1.9331  0.2598
 2519TIP3   OH228971   6.647   2.156  13.853  0.5380 -1.0117 -0.7716
 2519TIP3    H128972   6.655   2.235  13.798 -0.1875 -0.7743 -0.5541
 2519TIP3    H228973   6.724   2.158  13.909 -0.4086  0.6008  0.5565
 2520TIP3   OH228974   1.142   1.621   1.489 -0.3168 -0.0378 -0.5929
 2520TIP3    H128975   1.143   1.717   1.482 -2.1595  0.0790  0.1828
 2520TIP3    H228976   1.124   1.591   1.400  2.8304  0.1564 -1.4060
 2521TIP3   OH228977   1.955   2.147  13.563 -0.1504 -0.0386  0.2354
 2521TIP3    H128978   1.897   2.072  13.553  0.4737 -0.5548  0.3694
 2521TIP3    H228979   2.028   2.128  13.504 -0.2007  0.6828 -0.0642
 2522TIP3   OH228980   5.415   2.535   4.122 -0.0149  0.2210  0.2730
 2522TIP3    H128981   5.330   2.557   4.085 -0.0701 -0.2225  0.1303
 2522TIP3    H228982   5.460   2.489   4.052 -0.3701 -1.2348  0.9639
 2523TIP3   OH228983   6.267   1.792   3.450  0.5078  0.1320  0.1866
 2523TIP3    H128984   6.231   1.707   3.423  0.5143 -0.4814  2.0070
 2523TIP3    H228985   6.296   1.833   3.368 -0.6043 -1.0917 -0.8590
 2524TIP3   OH228986   2.303   4.447  12.465 -0.0342  0.2103 -0.7361
 2524TIP3    H128987   2.340   4.433  12.378 -1.2558 -0.2559 -1.2073
 2524TIP3    H228988   2.250   4.527  12.455  0.0942  0.3480 -0.3300
 2525TIP3   OH228989   4.130   5.040   0.016  0.0040  0.1765  0.3100
 2525TIP3    H128990   4.162   5.129   0.029  2.5829 -0.5588 -0.4283
 2525TIP3    H228991   4.166   4.990   0.089 -1.0011 -0.3819  0.4513
 2526TIP3   OH228992   3.549   0.558   3.522  0.3031 -0.1322 -0.4342
 2526TIP3    H128993   3.623   0.541   3.580 -0.1422  2.2677  1.0015
 2526TIP3    H228994   3.473   0.521   3.568  0.2545 -0.2256 -0.5891
 2527TIP3   OH228995   2.266   6.696  11.144 -0.2211  0.3094  0.7312
 2527TIP3    H128996   2.285   6.758  11.073  1.7124  0.5789  1.4106
 2527TIP3    H228997   2.175   6.714  11.168 -1.2812 -0.4069 -2.2464
 2528TIP3   OH228998   0.150   5.439  16.653  0.3233 -0.0172  0.2528
 2528TIP3    H128999   0.147   5.399  16.740  0.2374  0.1528  0.3294
 2528TIP3    H229000   0.094   5.516  16.660 -0.6854 -0.6841 -0.3081
 2529TIP3   OH229001   0.910   6.637   3.850 -0.3460  0.5104  0.0002
 2529TIP3    H129002   0.928   6.705   3.914  0.5168 -1.0608  1.5059
 2529TIP3    H229003   0.997   6.606   3.823 -0.6364  1.6384 -2.5866
 2530TIP3   OH229004   6.369   2.262  14.366  0.2446  0.0630  0.0929
 2530TIP3    H129005   6.352   2.168  14.378  0.3584  0.0269 -0.0203
 2530TIP3    H229006   6.460   2.266  14.335 -0.4262  0.0342 -2.0553
 2531TIP3   OH229007   2.325   4.920   1.508  0.0257 -0.7205  0.6434
 2531TIP3    H129008   2.231   4.904   1.496  0.0262 -0.7122  0.6295
 2531TIP3    H229009   2.328   4.994   1.569 -0.0095  0.8693 -1.1925
 2532TIP3   OH229010   3.306   1.845   5.192  0.1051 -0.0713 -0.1172
 2532TIP3    H129011   3.340   1.847   5.282 -2.2443 -1.9898  0.8939
 2532TIP3    H229012   3.310   1.753   5.167  0.5193  0.4067 -1.9688
 2533TIP3   OH229013   2.092   2.337   5.862 -0.3489 -0.4948 -0.4656
 2533TIP3    H129014   2.113   2.245   5.846 -2.4142 -0.9239 -1.0274
 2533TIP3    H229015   2.083   2.342   5.957  0.7686 -0.6213 -0.3421
 2534TIP3   OH229016   6.520   5.786   2.630 -0.2362  0.3056  0.0942
 2534TIP3    H129017   6.498   5.719   2.566  2.2093  0.0569 -0.5897
 2534TIP3    H229018   6.512   5.743   2.715 -1.4234  0.0012 -0.1682
 2535TIP3   OH229019   0.912   5.350  17.220  0.1218 -0.4243 -0.4579
 2535TIP3    H129020   1.004   5.336  17.196  0.4554  0.4054  0.2748
 2535TIP3    H229021   0.915   5.376  17.312 -0.9764 -1.7039 -0.0329
 2536TIP3   OH229022   2.410   6.639  15.575  0.5843  0.1000  0.4004
 2536TIP3    H129023   2.424   6.705  15.506  0.7565 -0.8340 -0.4882
 2536TIP3    H229024   2.315   6.642  15.591  0.0828 -1.4517 -1.7806
 2537TIP3   OH229025   0.536   6.391   4.825  0.6726 -0.3158  0.1828
 2537TIP3    H129026   0.468   6.340   4.782  1.9922 -1.9053 -0.1166
 2537TIP3    H229027   0.499   6.415   4.910 -0.6175 -0.2358 -0.3773
 2538TIP3   OH229028   4.982   5.828   5.074 -0.0689  0.2327 -0.1218
 2538TIP3    H129029   5.001   5.900   5.013  1.4326  0.3600  0.4489
 2538TIP3    H229030   4.941   5.761   5.021 -0.5251  1.0948 -0.8823
 2539TIP3   OH229031   1.045   0.847  11.555 -0.0265  0.3776  0.0816
 2539TIP3    H129032   1.070   0.858  11.463  0.9228  0.0864  0.2938
 2539TIP3    H229033   1.094   0.771  11.585  0.1054  0.7980  0.9835
 2540TIP3   OH229034   5.604   1.707  15.922 -0.2667 -0.5906  0.5371
 2540TIP3    H129035   5.647   1.761  15.856 -1.0940 -1.0273 -0.3939
 2540TIP3    H229036   5.667   1.638  15.942 -0.2567 -0.8455 -0.3236
 2541TIP3   OH229037   1.526   1.750   5.271 -0.4198 -0.8404  0.1662
 2541TIP3    H129038   1.520   1.659   5.242 -0.3583 -0.3920 -1.3824
 2541TIP3    H229039   1.448   1.792   5.235  1.1004  0.3914 -1.9381
 2542TIP3   OH229040   2.959   2.861  11.966  0.4049  0.4715  0.6005
 2542TIP3    H129041   3.011   2.781  11.972  0.0488  0.2012  0.1869
 2542TIP3    H229042   3.008   2.925  12.017  0.2317 -0.2401  1.6957
 2543TIP3   OH229043   0.798   3.160   0.974 -0.2760 -0.0605 -0.9227
 2543TIP3    H129044   0.772   3.220   1.044  0.0989  0.2041 -1.0059
 2543TIP3    H229045   0.892   3.174   0.965 -0.6333  1.5880 -3.0135
 2544TIP3   OH229046   2.035   4.829   2.862 -0.0759 -0.0262 -0.2627
 2544TIP3    H129047   2.014   4.757   2.802  0.1150  1.6015 -2.3831
 2544TIP3    H229048   1.950   4.871   2.878  0.0392  0.2192 -0.3038
 2545TIP3   OH229049   2.787   3.197  16.299  0.3728 -0.1144  0.0922
 2545TIP3    H129050   2.806   3.118  16.351 -0.6428 -0.9802 -0.8203
 2545TIP3    H229051   2.802   3.269  16.360  4.2166 -0.7559  0.1885
 2546TIP3   OH229052   4.655   6.174   6.503 -0.3299 -0.1965 -0.1016
 2546TIP3    H129053   4.698   6.250   6.542  0.9782 -0.1492 -1.5060
 2546TIP3    H229054   4.672   6.102   6.565 -0.4877  0.3906  0.6265
 2547TIP3   OH229055   4.813   5.646   0.902  0.0938  0.6227 -0.2727
 2547TIP3    H129056   4.844   5.592   0.830  0.5491  1.9290 -1.0938
 2547TIP3    H229057   4.864   5.617   0.978  0.8744  0.4161 -0.8624
 2548TIP3   OH229058   2.015   0.299  16.945  0.2443  0.4497 -0.4660
 2548TIP3    H129059   1.948   0.281  17.012  1.3700 -0.3499  0.4868
 2548TIP3    H229060   1.965   0.321  16.866 -1.1254  1.3939  0.6162
 2549TIP3   OH229061   1.793   2.898  10.914  0.7468  0.2489 -0.0573
 2549TIP3    H129062   1.888   2.893  10.920  1.1856  2.3084 -3.1650
 2549TIP3    H229063   1.775   2.987  10.886 -2.1511 -0.0703  0.4762
 2550TIP3   OH229064   6.080   2.807  16.781 -0.0044 -0.9009 -0.9707
 2550TIP3    H129065   6.136   2.731  16.769  0.9281  0.0046 -2.8661
 2550TIP3    H229066   6.139   2.882  16.773 -0.9472  0.0592  0.4954
 2551TIP3   OH229067   0.554   3.031   0.220  0.5710  0.0891  0.7881
 2551TIP3    H129068   0.510   3.047   0.303 -0.6074 -0.2855  0.2540
 2551TIP3    H229069   0.537   2.939   0.201 -0.0601  0.4203 -0.3523
 2552TIP3   OH229070   2.768   6.203  13.137 -0.4325  0.1899 -0.9688
 2552TIP3    H129071   2.776   6.214  13.042  0.6800  0.1162 -0.9035
 2552TIP3    H229072   2.708   6.129  13.148  0.3409 -0.5646 -1.6558
 2553TIP3   OH229073   2.370   5.367  11.871 -0.3529  0.1856 -0.3808
 2553TIP3    H129074   2.307   5.326  11.931 -0.0149 -1.4019 -1.0737
 2553TIP3    H229075   2.317   5.397  11.798 -0.6364  1.2719  0.2457
 2554TIP3   OH229076   3.545   4.091  15.666 -0.2159  0.1806  0.6994
 2554TIP3    H129077   3.482   4.019  15.669  0.2929 -0.2385  1.8148
 2554TIP3    H229078   3.622   4.057  15.711  1.2945  0.2477 -1.6279
 2555TIP3   OH229079   5.254   5.343  10.763  0.4694 -0.2174  0.2554
 2555TIP3    H129080   5.261   5.434  10.792  2.2952 -0.6205  1.2357
 2555TIP3    H229081   5.169   5.338  10.720  1.2315  2.5271 -1.8644
 2556TIP3   OH229082   2.619   1.495   4.819 -0.0619 -0.0743 -0.1534
 2556TIP3    H129083   2.632   1.590   4.821 -0.4197 -0.0164  1.9956
 2556TIP3    H229084   2.526   1.484   4.796 -0.8218  0.2728  2.4658
 2557TIP3   OH229085   2.750   3.092  12.768 -0.2682  0.1373 -0.2643
 2557TIP3    H129086   2.812   3.087  12.695 -1.6556 -0.2898 -1.4695
 2557TIP3    H229087   2.771   3.174  12.812 -0.7234  1.4964 -2.4346
 2558TIP3   OH229088   1.462   3.571  12.053  0.4497  0.4052  0.0882
 2558TIP3    H129089   1.499   3.592  12.139  1.1971  2.3818 -0.6678
 2558TIP3    H229090   1.519   3.503  12.018  0.2323 -0.2992  1.0718
 2559TIP3   OH229091   6.689   2.932   4.915 -0.7655  0.1712  0.1992
 2559TIP3    H129092   6.604   2.968   4.889 -0.1269  0.2695 -2.0077
 2559TIP3    H229093   6.753   2.996   4.881  0.2396 -0.9556 -0.0980
 2560TIP3   OH229094   6.611   2.422  11.260 -0.3283 -0.6823 -0.1419
 2560TIP3    H129095   6.525   2.398  11.226 -1.1161 -0.4439  1.5978
 2560TIP3    H229096   6.650   2.475  11.191 -0.9238 -2.0660 -1.6052
 2561TIP3   OH229097   4.008   2.041   4.433 -0.7603  0.7589 -0.4833
 2561TIP3    H129098   4.063   2.024   4.356  0.3951 -0.2333  0.5168
 2561TIP3    H229099   3.919   2.017   4.405  0.0684 -2.6820 -0.6198
 2562TIP3   OH229100   2.161   4.220  10.947 -0.4133  0.0993 -0.1969
 2562TIP3    H129101   2.244   4.262  10.924 -1.7249  2.1525 -1.5989
 2562TIP3    H229102   2.161   4.217  11.043  0.6672  1.4198 -0.1246
 2563TIP3   OH229103   4.088   4.530  17.085  0.2770  0.2994 -0.4320
 2563TIP3    H129104   4.144   4.471  17.035 -0.8479 -0.2464 -1.0654
 2563TIP3    H229105   4.058   4.595  17.021 -0.4332  0.1391 -0.2625
 2564TIP3   OH229106   3.945   4.980   4.832  0.0396  0.3892 -0.3678
 2564TIP3    H129107   3.878   5.034   4.874  1.0075  0.8795  0.6014
 2564TIP3    H229108   4.016   5.041   4.812  0.3921 -0.2010 -0.9796
 2565TIP3   OH229109   6.514   4.960   2.252 -0.1382 -0.7401 -0.3917
 2565TIP3    H129110   6.490   4.999   2.168 -0.6949 -2.4684 -1.1026
 2565TIP3    H229111   6.559   4.879   2.228 -0.1792 -1.1992  0.9854
 2566TIP3   OH229112   5.549   3.590   0.459 -0.5039  0.4491 -0.2354
 2566TIP3    H129113   5.597   3.585   0.377 -0.8685  0.3004 -0.4426
 2566TIP3    H229114   5.457   3.584   0.433 -0.6808  1.5912  0.0760
 2567TIP3   OH229115   1.333   3.118  12.145  0.0080 -0.1835  0.0637
 2567TIP3    H129116   1.240   3.143  12.144 -0.3917 -1.4995  0.8759
 2567TIP3    H229117   1.358   3.125  12.237  1.0928  1.3667 -0.3199
 2568TIP3   OH229118   1.206   0.811   5.598  0.0700 -0.0364 -0.7529
 2568TIP3    H129119   1.301   0.799   5.594  0.1461 -1.8335  2.6478
 2568TIP3    H229120   1.176   0.794   5.508  2.7342 -1.9289 -1.4202
 2569TIP3   OH229121   2.888   6.313  14.204  0.0159  0.4268  0.2951
 2569TIP3    H129122   2.900   6.321  14.299  0.1246  0.7157  0.2585
 2569TIP3    H229123   2.799   6.281  14.193 -1.1472  3.3791  0.3886
 2570TIP3   OH229124   5.417   5.935   1.438  0.8172  0.0311  0.5049
 2570TIP3    H129125   5.407   5.859   1.381  0.6130 -0.2928  0.9592
 2570TIP3    H229126   5.327   5.961   1.459  0.8892  0.1034  0.7290
 2571TIP3   OH229127   4.675   0.271  15.884  0.5682  0.6159  0.1835
 2571TIP3    H129128   4.584   0.292  15.862 -0.3210 -0.8382  2.1241
 2571TIP3    H229129   4.727   0.317  15.819 -1.6259 -0.3201 -2.4015
 2572TIP3   OH229130   0.296   0.656   0.101  0.4387  0.2042  0.3289
 2572TIP3    H129131   0.259   0.708   0.172  0.3459  0.0654  0.3837
 2572TIP3    H229132   0.246   0.681   0.024 -0.2218 -0.4631  0.5260
 2573TIP3   OH229133   1.172   4.122  13.209  0.1574  0.2132  0.1456
 2573TIP3    H129134   1.117   4.044  13.198  0.1778  0.3995 -1.5637
 2573TIP3    H229135   1.110   4.195  13.204  0.2088  0.3593  1.2324
 2574TIP3   OH229136   5.429   4.860   2.566 -0.0676  0.2193  0.0982
 2574TIP3    H129137   5.422   4.869   2.661 -0.0640 -0.6424  0.1876
 2574TIP3    H229138   5.441   4.766   2.551  1.2140  0.4842 -0.6777
 2575TIP3   OH229139   5.906   2.971  11.416  0.3148 -0.1797  0.0526
 2575TIP3    H129140   5.823   2.923  11.420  1.4946 -2.2850  0.5157
 2575TIP3    H229141   5.941   2.951  11.329  0.2449  0.8784 -0.2252
 2576TIP3   OH229142   4.461   4.609   1.590 -0.4097  0.1973 -0.6995
 2576TIP3    H129143   4.457   4.669   1.515  0.1201  1.2421  0.0879
 2576TIP3    H229144   4.396   4.643   1.651 -0.0079  0.0560 -0.1868
 2577TIP3   OH229145   3.385   1.166  12.112 -0.5124 -0.3324 -0.0653
 2577TIP3    H129146   3.339   1.164  12.028 -1.7616  0.9620  0.5588
 2577TIP3    H229147   3.413   1.257  12.123  1.7474 -0.9365 -0.1272
 2578TIP3   OH229148   2.314   6.228  14.465  0.0887 -0.4384 -0.5067
 2578TIP3    H129149   2.339   6.267  14.549 -0.2677 -0.4360 -0.4009
 2578TIP3    H229150   2.366   6.276  14.401 -0.4743  0.3479 -0.3919
 2579TIP3   OH229151   1.544   6.110   3.815 -0.2701 -0.3936  0.4813
 2579TIP3    H129152   1.544   6.061   3.897 -0.5431  0.1095  0.7911
 2579TIP3    H229153   1.541   6.044   3.747  0.5962 -0.8367  0.8661
 2580TIP3   OH229154   1.315   3.671  14.908 -0.1784 -0.3030 -0.1578
 2580TIP3    H129155   1.298   3.705  14.995 -0.3138 -1.0115  0.0998
 2580TIP3    H229156   1.354   3.744  14.860  2.9211 -0.7685  1.4204
 2581TIP3   OH229157   6.534   3.633   2.257  0.2466  0.9432  0.7819
 2581TIP3    H129158   6.547   3.544   2.291  0.1918  1.1105  1.2452
 2581TIP3    H229159   6.447   3.631   2.217  0.9385  0.3045 -0.7753
 2582TIP3   OH229160   3.711   5.981   5.276  0.1342 -0.0984 -0.4444
 2582TIP3    H129161   3.735   6.065   5.313  0.5448  0.6848 -2.3820
 2582TIP3    H229162   3.781   5.921   5.304 -0.6996 -0.1197  1.8220
 2583TIP3   OH229163   4.590   2.094   5.931 -0.4321  0.6398 -0.0940
 2583TIP3    H129164   4.678   2.128   5.942 -1.3712  2.3636  3.5895
 2583TIP3    H229165   4.577   2.034   6.004 -1.8364 -0.8761 -1.4868
 2584TIP3   OH229166   4.350   1.604  15.068 -0.4234  0.1288  0.0171
 2584TIP3    H129167   4.353   1.698  15.080 -2.8553  0.1548  1.0310
 2584TIP3    H229168   4.365   1.590  14.975 -2.7747  1.7754 -0.6859
 2585TIP3   OH229169   1.626   2.622  11.622  0.1329  0.1865  0.6020
 2585TIP3    H129170   1.581   2.544  11.589  0.5996  0.3990 -0.5913
 2585TIP3    H229171   1.580   2.695  11.581  2.2804  0.3872 -1.7517
 2586TIP3   OH229172   2.413   1.542   2.421  0.2152  0.2839  0.5705
 2586TIP3    H129173   2.437   1.633   2.434 -0.0997  0.5056 -0.2820
 2586TIP3    H229174   2.446   1.496   2.498  0.2444  1.1403  1.0769
 2587TIP3   OH229175   5.439   1.069   0.333 -0.2431  0.9321 -0.0568
 2587TIP3    H129176   5.449   1.149   0.384  0.9307  2.2568 -2.1964
 2587TIP3    H229177   5.344   1.053   0.332 -0.4639  2.0572  0.7348
 2588TIP3   OH229178   0.654   6.091   0.460 -0.4680 -0.4517 -0.2891
 2588TIP3    H129179   0.749   6.097   0.453 -0.2528 -1.3510  1.2118
 2588TIP3    H229180   0.631   6.010   0.415 -0.5140 -0.2558 -0.6159
 2589TIP3   OH229181   3.261   6.484   3.725 -0.4426  0.9514  0.5813
 2589TIP3    H129182   3.190   6.440   3.677 -0.7795  0.3775  1.5794
 2589TIP3    H229183   3.218   6.557   3.769  0.0235  2.0123 -0.6561
 2590TIP3   OH229184   3.790   4.836   2.509  0.7214 -0.0017 -0.4276
 2590TIP3    H129185   3.732   4.912   2.521 -0.7923 -0.9163 -1.5257
 2590TIP3    H229186   3.776   4.783   2.587  0.0639 -0.2073 -0.6774
 2591TIP3   OH229187   4.290   3.462   3.660 -0.3915 -0.1656 -0.2240
 2591TIP3    H129188   4.205   3.434   3.626 -0.2563  1.0283 -1.6488
 2591TIP3    H229189   4.354   3.417   3.607 -0.1027 -1.0215  0.8168
 2592TIP3   OH229190   6.098   6.582  13.656  0.1115  0.3437 -0.0320
 2592TIP3    H129191   6.018   6.634  13.650  1.4193  2.4543 -0.0905
 2592TIP3    H229192   6.076   6.511  13.716 -1.3395  1.8251  1.2940
 2593TIP3   OH229193   6.415   4.952  15.021  0.0112 -0.3561 -0.6064
 2593TIP3    H129194   6.495   4.945  14.969 -0.6799 -0.2805 -1.7168
 2593TIP3    H229195   6.366   5.023  14.979 -0.9582 -0.8867 -0.3832
 2594TIP3   OH229196   5.218   4.718   4.639  0.3824  0.0693 -0.0425
 2594TIP3    H129197   5.291   4.688   4.585  0.2593 -1.5412  0.6356
 2594TIP3    H229198   5.249   4.799   4.678  1.0514  0.4554 -1.3069
 2595TIP3   OH229199   5.098   1.271  16.284  0.3201  0.4741 -0.5116
 2595TIP3    H129200   5.031   1.270  16.352  1.1095 -0.1699  0.2853
 2595TIP3    H229201   5.049   1.269  16.201 -0.6370 -0.2368  0.0507
 2596TIP3   OH229202   2.533   5.264  15.482  0.6823  0.0839  0.0881
 2596TIP3    H129203   2.619   5.233  15.509  1.2083  0.7467 -0.7635
 2596TIP3    H229204   2.474   5.191  15.501  1.4416 -0.4045  0.6140
 2597TIP3   OH229205   1.642   3.361   3.108  0.2928 -0.7393  0.3280
 2597TIP3    H129206   1.707   3.305   3.150  0.3091 -0.5804  0.5143
 2597TIP3    H229207   1.686   3.397   3.032 -0.2611 -2.3854 -0.8250
 2598TIP3   OH229208   0.364   6.512  15.262 -0.0888  0.4349 -0.5412
 2598TIP3    H129209   0.332   6.527  15.173 -0.6597 -1.2618 -0.6636
 2598TIP3    H229210   0.298   6.552  15.318 -0.7975 -0.2604 -0.8569
 2599TIP3   OH229211   3.548   5.175   4.997 -0.3048  0.0965 -0.3390
 2599TIP3    H129212   3.518   5.260   5.030 -0.1537  1.1837 -2.8093
 2599TIP3    H229213   3.482   5.148   4.934  0.3771 -0.9428 -0.6507
 2600TIP3   OH229214   6.132   5.371  11.882 -0.2067 -0.4045 -0.1048
 2600TIP3    H129215   6.126   5.385  11.788  2.1419 -0.0066 -0.2527
 2600TIP3    H229216   6.224   5.386  11.903 -0.2185 -2.4957  1.9244
 2601TIP3   OH229217   2.706   3.756   1.315  0.0622  0.4385 -0.5848
 2601TIP3    H129218   2.613   3.738   1.325 -0.0136  0.3795 -1.3716
 2601TIP3    H229219   2.727   3.727   1.226  0.8716  0.2648 -0.3495
 2602TIP3   OH229220   2.375   3.285  12.126  0.4245  0.0073 -0.7105
 2602TIP3    H129221   2.299   3.344  12.131  0.2821 -0.0810 -1.6938
 2602TIP3    H229222   2.338   3.197  12.132  0.7635 -0.0248  2.3737
 2603TIP3   OH229223   4.257   0.191  10.763  0.1783 -0.3243  0.2889
 2603TIP3    H129224   4.192   0.261  10.769 -0.1988 -0.6593  0.1593
 2603TIP3    H229225   4.206   0.112  10.742  0.7141 -0.4106 -0.7957
 2604TIP3   OH229226   2.032   5.369   5.609  0.5924 -0.3055 -0.4041
 2604TIP3    H129227   1.949   5.354   5.563  0.4084 -0.0081 -0.1707
 2604TIP3    H229228   2.069   5.282   5.620  1.2589 -0.3109 -2.2652
 2605TIP3   OH229229   4.783   4.420   0.302 -0.2365  0.0302  0.0179
 2605TIP3    H129230   4.732   4.501   0.312  1.9536  1.2398  2.7639
 2605TIP3    H229231   4.858   4.445   0.249  0.4523 -0.1646  0.8819
 2606TIP3   OH229232   3.360   4.495  13.219  0.1826 -0.3781  0.4900
 2606TIP3    H129233   3.371   4.406  13.185  1.7418  0.2962 -0.8831
 2606TIP3    H229234   3.449   4.525  13.238 -0.3321  0.8521  1.0757
 2607TIP3   OH229235   5.732   2.471   3.383  0.2311  0.6095  0.4756
 2607TIP3    H129236   5.711   2.431   3.299  0.7013  0.5448  0.3901
 2607TIP3    H229237   5.680   2.421   3.447  1.5161 -0.7655  0.4952
 2608TIP3   OH229238   1.492   3.707  15.575  0.1279  0.5611 -0.2835
 2608TIP3    H129239   1.566   3.759  15.606  0.3243 -0.6785  1.4046
 2608TIP3    H229240   1.528   3.621  15.556 -0.8632 -0.0541  0.5340
 2609TIP3   OH229241   3.141   0.012  13.122  0.0749 -0.2311  0.3072
 2609TIP3    H129242   3.101   0.087  13.079 -0.9221 -1.2930 -0.6838
 2609TIP3    H229243   3.205  -0.020  13.058 -1.3963 -1.8038 -0.4540
 2610TIP3   OH229244   1.048   1.580   1.213 -0.4045  0.1862 -0.3501
 2610TIP3    H129245   1.043   1.488   1.238  0.5442  0.4067  0.7326
 2610TIP3    H229246   1.115   1.583   1.145 -0.9145 -0.0046 -0.8705
 2611TIP3   OH229247   6.146   0.521   6.469 -0.1405  0.0092  0.8947
 2611TIP3    H129248   6.163   0.609   6.502  0.6584  1.4562 -2.8199
 2611TIP3    H229249   6.053   0.521   6.448 -0.2422 -0.2159  1.3394
 2612TIP3   OH229250   1.479   1.009   1.903 -0.6374 -0.3330  0.2743
 2612TIP3    H129251   1.477   0.955   1.824 -3.9319  0.3977 -0.2974
 2612TIP3    H229252   1.447   0.951   1.972 -3.3406  0.4922 -0.1727
 2613TIP3   OH229253   0.815   0.129  11.314 -0.4228  0.6156  0.4579
 2613TIP3    H129254   0.817   0.180  11.232  1.0098 -0.8419 -0.4624
 2613TIP3    H229255   0.895   0.076  11.312 -2.1853 -2.2749  0.9759
 2614TIP3   OH229256   1.137   1.182   4.678 -0.7714  0.1611  0.2682
 2614TIP3    H129257   1.221   1.222   4.657 -0.6622  1.3914  2.7219
 2614TIP3    H229258   1.134   1.102   4.624  2.8538 -1.0145  1.5326
 2615TIP3   OH229259   2.873   5.728  15.179 -0.6198  0.5939  0.3171
 2615TIP3    H129260   2.929   5.668  15.228 -1.9026 -0.7668  0.1799
 2615TIP3    H229261   2.901   5.717  15.088  0.6591  1.9119  0.5182
 2616TIP3   OH229262   3.429   2.935  13.882 -0.4188  0.1465 -0.2014
 2616TIP3    H129263   3.404   3.022  13.912 -1.2171  0.6897 -2.2407
 2616TIP3    H229264   3.367   2.916  13.811  1.3160 -1.0110 -1.4832
 2617TIP3   OH229265   4.211   3.467  15.723  0.3908 -0.4445  0.2343
 2617TIP3    H129266   4.159   3.443  15.646  0.6161 -1.0111  0.2500
 2617TIP3    H229267   4.237   3.383  15.760  1.1574 -0.1623  0.3372
 2618TIP3   OH229268   6.219   4.811   1.627  0.2542  0.0755 -0.7415
 2618TIP3    H129269   6.267   4.831   1.547  1.6173 -1.7752 -0.4507
 2618TIP3    H229270   6.183   4.895   1.655  1.4044  1.1101 -2.2145
 2619TIP3   OH229271   3.970   5.199   2.108 -0.5164  0.2326 -0.5966
 2619TIP3    H129272   3.975   5.106   2.087 -0.5367  0.0549  0.1677
 2619TIP3    H229273   3.939   5.202   2.199  0.4835  0.9522 -0.2648
 2620TIP3   OH229274   0.294   6.445   6.537  0.0550  0.0513  1.0135
 2620TIP3    H129275   0.287   6.506   6.465 -0.2817 -2.5941 -1.3729
 2620TIP3    H229276   0.367   6.478   6.590  0.6535  1.8113 -0.7982
 2621TIP3   OH229277   1.037   1.319  11.985  0.2299 -0.5784 -0.4955
 2621TIP3    H129278   1.012   1.411  11.975 -0.4748 -0.7828 -0.6376
 2621TIP3    H229279   1.111   1.308  11.926 -0.1137 -0.2693 -0.9906
 2622TIP3   OH229280   2.071   6.567   0.221  0.2858 -0.2469 -0.3875
 2622TIP3    H129281   2.055   6.478   0.187  0.5966 -0.9081  1.1222
 2622TIP3    H229282   2.070   6.557   0.316 -0.8246  1.5933 -0.1683
 2623TIP3   OH229283   4.863   3.935   1.089 -0.6747  0.1010  0.5083
 2623TIP3    H129284   4.892   3.890   1.009 -1.6196  1.6230 -0.7579
 2623TIP3    H229285   4.774   3.964   1.069 -0.8111  0.8032  1.9990
 2624TIP3   OH229286   2.295   0.924  15.588 -0.5253 -0.2314  0.0405
 2624TIP3    H129287   2.214   0.927  15.638  0.3617 -0.6730  1.5488
 2624TIP3    H229288   2.332   1.012  15.595  0.3368 -0.6853  1.4563
 2625TIP3   OH229289   2.432   5.289   2.482 -0.2217 -0.4704  0.0286
 2625TIP3    H129290   2.398   5.284   2.392 -1.6936 -1.0514  0.5854
 2625TIP3    H229291   2.380   5.357   2.524  0.7289  0.0743  0.3523
 2626TIP3   OH229292   5.554   0.227   6.682 -0.1289 -0.0242 -0.2703
 2626TIP3    H129293   5.526   0.160   6.620 -2.2384  0.0046  0.5688
 2626TIP3    H229294   5.642   0.202   6.708  0.3140 -0.7173 -2.3145
 2627TIP3   OH229295   1.254   4.293   4.483 -0.4224 -0.3769  0.0895
 2627TIP3    H129296   1.216   4.376   4.512 -1.2897 -1.0584  0.9530
 2627TIP3    H229297   1.342   4.292   4.521  0.6777  1.3537 -2.1785
 2628TIP3   OH229298   1.824   0.591  16.423 -0.7284 -0.1459  0.2793
 2628TIP3    H129299   1.802   0.674  16.381  0.4983  0.8267  1.4611
 2628TIP3    H229300   1.791   0.524  16.363 -0.6452  1.1745 -1.3147
 2629TIP3   OH229301   4.248   6.103   2.885 -0.3679  0.0561  0.2627
 2629TIP3    H129302   4.229   6.022   2.837 -3.5066  0.5041  0.4781
 2629TIP3    H229303   4.322   6.081   2.941 -1.3271 -2.8501  0.6019
 2630TIP3   OH229304   3.801   3.571  15.282 -0.1369  0.2292  0.2343
 2630TIP3    H129305   3.762   3.651  15.317  0.1255  1.7953 -2.7505
 2630TIP3    H229306   3.847   3.532  15.357 -1.8607  1.7949  2.2360
 2631TIP3   OH229307   4.013   3.225  17.330  0.1783 -0.2459 -0.4730
 2631TIP3    H129308   4.107   3.237  17.316 -0.0351  1.4180 -0.6085
 2631TIP3    H229309   4.008   3.175  17.412  1.1632  0.3479 -0.0289
 2632TIP3   OH229310   6.699   3.810   2.098  0.2184  0.4102 -0.6261
 2632TIP3    H129311   6.780   3.789   2.144 -0.2516 -0.2100 -0.0678
 2632TIP3    H229312   6.631   3.760   2.144 -0.5446  1.2267 -0.8356
 2633TIP3   OH229313   1.642   0.171  16.075 -0.2428  0.2414 -0.4070
 2633TIP3    H129314   1.624   0.089  16.029 -2.0921  0.4941 -0.2482
 2633TIP3    H229315   1.696   0.222  16.015  1.1276 -1.1536 -0.4105
 2634TIP3   OH229316   3.014   3.543   2.414 -0.1310  0.0636  0.0330
 2634TIP3    H129317   2.985   3.476   2.475  1.0723 -0.2274  0.3176
 2634TIP3    H229318   2.967   3.622   2.440  0.8755  0.1296  1.8306
 2635TIP3   OH229319   2.600   0.777  16.204 -0.4876 -0.1519 -0.2746
 2635TIP3    H129320   2.667   0.740  16.261  1.0744 -0.0804 -1.9775
 2635TIP3    H229321   2.547   0.833  16.261  0.3739 -0.8792  1.2767
 2636TIP3   OH229322   3.337   1.639  16.301 -0.6214 -0.5354 -0.4455
 2636TIP3    H129323   3.303   1.681  16.380  0.4316 -0.7027  0.1190
 2636TIP3    H229324   3.348   1.711  16.238  0.2415 -0.1017  0.1797
 2637TIP3   OH229325   5.853   3.563  11.078 -0.2547 -0.9354  0.6105
 2637TIP3    H129326   5.917   3.533  11.014 -0.1175  1.9980 -0.7621
 2637TIP3    H229327   5.768   3.533  11.043 -0.0915 -0.1820 -0.4755
 2638TIP3   OH229328   2.224   2.811  15.504  0.8251  0.2110  0.2401
 2638TIP3    H129329   2.190   2.867  15.574  1.0736  0.0569  0.4872
 2638TIP3    H229330   2.154   2.809  15.439 -0.0417 -0.8667  1.1624
 2639TIP3   OH229331   5.442   5.755  16.306  0.0068  0.2822 -0.2088
 2639TIP3    H129332   5.392   5.721  16.381 -1.7358  2.1949 -0.4092
 2639TIP3    H229333   5.519   5.698  16.301 -0.9842 -1.3469  1.5843
 2640TIP3   OH229334   3.343   5.389  11.418 -0.3415 -0.2289 -0.1074
 2640TIP3    H129335   3.273   5.341  11.464 -0.6481 -0.5815 -0.9089
 2640TIP3    H229336   3.327   5.370  11.325  0.6970 -0.1344 -0.3151
 2641TIP3   OH229337   1.989   4.381  14.988 -0.1583  0.0141 -0.1386
 2641TIP3    H129338   2.079   4.415  14.982 -0.3642  0.4120 -1.3125
 2641TIP3    H229339   1.996   4.302  15.041  0.6302  0.9068  1.1469
 2642TIP3   OH229340   2.675   4.196   2.376  0.2931  0.7595  0.3691
 2642TIP3    H129341   2.687   4.279   2.331 -1.8527  0.8920 -0.0582
 2642TIP3    H229342   2.680   4.130   2.307 -0.3236  0.7324  0.3496
 2643TIP3   OH229343   3.672   1.923   5.602  0.0417  0.1277 -0.7260
 2643TIP3    H129344   3.636   1.905   5.689  1.2884  0.4755 -0.1200
 2643TIP3    H229345   3.764   1.945   5.618  0.8013 -1.6595 -2.3051
 2644TIP3   OH229346   0.268   6.633   0.526  0.0711 -0.1821  0.0745
 2644TIP3    H129347   0.333   6.702   0.516  1.3410 -0.8625  2.8701
 2644TIP3    H229348   0.192   6.676   0.566  0.4867 -0.1946  0.8919
 2645TIP3   OH229349   5.133   2.786  15.903  0.2370 -0.4776 -0.2756
 2645TIP3    H129350   5.078   2.835  15.841 -0.7532  0.7779  1.5067
 2645TIP3    H229351   5.127   2.695  15.874  0.7509  0.1865 -2.6811
 2646TIP3   OH229352   5.970   0.786  12.078 -0.5712 -0.1839  0.2043
 2646TIP3    H129353   5.885   0.821  12.105 -0.5097 -0.7152  1.1491
 2646TIP3    H229354   5.962   0.775  11.984 -1.2897  0.4675  0.1732
 2647TIP3   OH229355   3.813   5.944  16.727  0.3061  0.0894  0.0225
 2647TIP3    H129356   3.783   6.021  16.775  0.5896  1.3675 -1.7398
 2647TIP3    H229357   3.899   5.924  16.764 -0.1782 -0.0032  1.1427
 2648TIP3   OH229358   6.148   5.523   2.568  0.6041  0.1965  0.0985
 2648TIP3    H129359   6.224   5.466   2.570  0.2766 -0.2826 -0.5633
 2648TIP3    H229360   6.079   5.472   2.610  0.6404  0.6257  0.6899
 2649TIP3   OH229361   0.070   4.474  14.574  0.0944 -0.5440  0.1272
 2649TIP3    H129362   0.053   4.556  14.621 -1.5620 -1.2853  0.9091
 2649TIP3    H229363   0.039   4.490  14.485  1.1872  0.1417 -0.1525
 2650TIP3   OH229364   2.749   2.971   2.498 -0.1206  0.2936 -0.1281
 2650TIP3    H129365   2.767   3.038   2.564  1.4727  1.1194 -1.3273
 2650TIP3    H229366   2.827   2.917   2.496  0.1116  0.6389 -1.7109
 2651TIP3   OH229367   0.904   6.724   4.322 -0.2310 -0.1456 -0.5530
 2651TIP3    H129368   0.915   6.680   4.406  1.3958 -0.3959 -0.8588
 2651TIP3    H229369   0.933   6.659   4.258 -0.0207  0.5668 -1.1893
 2652TIP3   OH229370   3.338   0.005   5.449 -0.1104 -0.8330  0.4853
 2652TIP3    H129371   3.332  -0.009   5.544 -0.3876 -1.1883  0.4180
 2652TIP3    H229372   3.272  -0.053   5.412 -0.8174  0.1706  0.1432
 2653TIP3   OH229373   1.026   0.256  13.209 -0.1788  0.1839  0.0540
 2653TIP3    H129374   0.956   0.195  13.234 -0.6883  0.1765 -1.3236
 2653TIP3    H229375   1.095   0.200  13.173 -0.1983  0.3278 -0.2111
 2654TIP3   OH229376   1.034   6.216   3.665 -0.5709 -0.1237  0.0498
 2654TIP3    H129377   1.113   6.175   3.631  0.0870  0.3718  0.9604
 2654TIP3    H229378   1.001   6.155   3.731 -0.7766 -0.1778 -0.1001
 2655TIP3   OH229379   1.308   3.757   4.256 -0.8720  0.0905  0.0409
 2655TIP3    H129380   1.283   3.804   4.335  0.1188  0.1790  0.3205
 2655TIP3    H229381   1.281   3.667   4.272  1.4748 -0.4421  1.5636
 2656TIP3   OH229382   3.035   0.578  14.776  0.0710 -0.3091  0.3032
 2656TIP3    H129383   2.986   0.500  14.799  0.2476 -0.7656 -0.8045
 2656TIP3    H229384   3.123   0.563  14.811  0.5410 -1.3174 -1.2312
 2657TIP3   OH229385   3.269   5.010  16.469  0.3564  0.5958  0.0257
 2657TIP3    H129386   3.301   4.977  16.553  0.6888 -0.3204 -0.4585
 2657TIP3    H229387   3.194   4.954  16.448  2.4133 -1.5959 -2.0120
 2658TIP3   OH229388   2.434   6.738  14.885  0.2536 -0.2001  0.0171
 2658TIP3    H129389   2.521   6.759  14.921  0.0149 -0.1385  0.5769
 2658TIP3    H229390   2.414   6.652  14.920 -0.1429  0.0186  0.3349
 2659TIP3   OH229391   3.245   0.809   4.120 -0.3731  0.1715  0.6893
 2659TIP3    H129392   3.266   0.759   4.199  0.4154 -1.1370 -0.3080
 2659TIP3    H229393   3.252   0.900   4.147  3.0423 -0.1715  1.4359
 2660TIP3   OH229394   5.861   6.717   3.513 -0.5177 -0.5617 -0.5154
 2660TIP3    H129395   5.919   6.651   3.476 -1.7072 -0.9619 -1.7399
 2660TIP3    H229396   5.821   6.760   3.438 -1.6950 -0.1966  0.2844
 2661TIP3   OH229397   3.541   2.156   4.055  0.2571  0.0510  0.1701
 2661TIP3    H129398   3.547   2.061   4.059  1.0937  0.1220  0.6694
 2661TIP3    H229399   3.484   2.173   3.980 -0.5599 -0.8562  0.5647
 2662TIP3   OH229400   5.457   6.746   3.595 -0.1278  0.5492  0.2602
 2662TIP3    H129401   5.364   6.736   3.614 -0.1710  1.0957  0.3525
 2662TIP3    H229402   5.460   6.778   3.505 -0.0860  1.7713  0.6870
 2663TIP3   OH229403   4.280   2.000   1.006 -0.1346  0.4010  0.7629
 2663TIP3    H129404   4.307   2.040   1.089  0.9630 -0.8670  1.0538
 2663TIP3    H229405   4.324   2.053   0.940  0.8257  0.0622  1.1111
 2664TIP3   OH229406   4.033   3.913  12.598 -0.0003  0.1047 -0.1710
 2664TIP3    H129407   4.095   3.946  12.534 -0.9463  0.9833 -0.6755
 2664TIP3    H229408   3.953   3.895  12.548 -0.6117  0.3537  0.6760
 2665TIP3   OH229409   0.072   6.109   1.467 -0.0265  0.2390  0.2335
 2665TIP3    H129410   0.085   6.196   1.428  1.0516  0.8397  1.8040
 2665TIP3    H229411   0.127   6.051   1.415 -1.3610  0.3198 -1.3279
 2666TIP3   OH229412   4.292   6.602  15.312 -0.1992 -0.6790  0.4825
 2666TIP3    H129413   4.377   6.645  15.316  0.4864 -2.0724  1.9549
 2666TIP3    H229414   4.306   6.528  15.253 -1.0062  0.2584 -0.9602
 2667TIP3   OH229415   2.437   5.272   1.054  0.5685 -0.6205  0.3026
 2667TIP3    H129416   2.406   5.257   1.143  1.4641 -0.0024  0.7404
 2667TIP3    H229417   2.359   5.294   1.004  0.2075  0.2276  1.2132
 2668TIP3   OH229418   3.828   4.410  11.073 -0.0723  0.1540  0.6409
 2668TIP3    H129419   3.866   4.354  11.006 -0.2812  0.6146  0.1314
 2668TIP3    H229420   3.867   4.496  11.057  0.8657  0.0011  1.9134
 2669TIP3   OH229421   1.040   2.521   1.971 -0.0392 -0.7144 -0.3455
 2669TIP3    H129422   0.999   2.590   2.023  0.7338  0.8111 -1.6830
 2669TIP3    H229423   0.999   2.528   1.885 -0.1584 -2.1469 -0.4334
 2670TIP3   OH229424   3.539   4.123  13.201 -0.2892 -0.5226 -0.6564
 2670TIP3    H129425   3.509   4.170  13.123 -2.2651  0.5967  0.7216
 2670TIP3    H229426   3.615   4.173  13.231  0.9921 -1.4081 -2.2324
 2671TIP3   OH229427   3.006   0.185  14.256 -0.1073 -0.4936 -0.5980
 2671TIP3    H129428   3.063   0.113  14.283 -0.3979 -0.0597  1.3018
 2671TIP3    H229429   3.065   0.253  14.223  0.3146 -0.8117 -0.4998
 2672TIP3   OH229430   4.527   2.142   2.772 -0.7053  0.0830  0.2473
 2672TIP3    H129431   4.479   2.109   2.696  0.8178  0.8095 -1.0880
 2672TIP3    H229432   4.618   2.143   2.745 -0.1553  0.7364  1.9690
 2673TIP3   OH229433   5.465   4.348   2.493  0.1363 -0.2738  0.1258
 2673TIP3    H129434   5.465   4.306   2.407 -0.7745 -0.6509  0.2877
 2673TIP3    H229435   5.473   4.275   2.555  0.2783 -0.0517  0.3694
 2674TIP3   OH229436   4.971   1.622  14.859 -0.3002  0.0480  0.4453
 2674TIP3    H129437   4.955   1.619  14.954  0.7490 -0.3288  0.6214
 2674TIP3    H229438   5.051   1.674  14.850  1.0520 -2.0072 -0.0147
 2675TIP3   OH229439   1.280   5.362   4.381  0.0051  0.1037  0.2146
 2675TIP3    H129440   1.311   5.271   4.382 -0.0658 -0.0462 -2.6509
 2675TIP3    H229441   1.308   5.396   4.296 -1.9332  2.0805  0.2714
 2676TIP3   OH229442   3.030   1.125   3.393 -0.1926 -0.6921  0.4433
 2676TIP3    H129443   3.108   1.080   3.424  1.0633  1.0662  0.0204
 2676TIP3    H229444   2.960   1.094   3.451  1.5344  0.4825  3.4078
 2677TIP3   OH229445   3.320   3.660  16.230 -0.1290  0.2377  0.3426
 2677TIP3    H129446   3.278   3.616  16.156  1.6835 -0.1717 -0.5112
 2677TIP3    H229447   3.267   3.635  16.306 -2.4821  1.2904 -0.8737
 2678TIP3   OH229448   0.045   3.299  15.322 -0.0741  0.2415  0.6567
 2678TIP3    H129449   0.133   3.320  15.355  0.3967  0.6632 -0.8058
 2678TIP3    H229450  -0.014   3.338  15.386  0.7145 -2.1931  3.0867
 2679TIP3   OH229451   3.639   3.168  12.745  0.0174 -0.3434 -0.4297
 2679TIP3    H129452   3.558   3.122  12.724  0.7506 -2.5923  1.2538
 2679TIP3    H229453   3.613   3.260  12.755 -1.9353 -0.6843 -1.7702
 2680TIP3   OH229454   5.720   1.513  15.605 -0.2759  0.5021  0.0329
 2680TIP3    H129455   5.725   1.570  15.529  0.7804 -0.4944 -0.6871
 2680TIP3    H229456   5.759   1.430  15.576 -4.4986 -1.7646  0.0173
 2681TIP3   OH229457   3.131   1.622  13.242 -1.0280 -0.1589  0.1788
 2681TIP3    H129458   3.178   1.628  13.159 -0.3220 -0.1123  0.5814
 2681TIP3    H229459   3.121   1.712  13.271  0.3153 -0.2588  1.0255
 2682TIP3   OH229460   3.930   4.529  12.033 -0.5209 -0.2093  0.7396
 2682TIP3    H129461   4.014   4.530  12.080  0.9869  2.1228 -1.6979
 2682TIP3    H229462   3.949   4.480  11.953 -0.5943  2.4291 -1.0365
 2683TIP3   OH229463   0.150   5.764   4.850  0.2234 -0.0396 -0.2085
 2683TIP3    H129464   0.176   5.673   4.838 -0.1216 -0.3366  1.0983
 2683TIP3    H229465   0.101   5.786   4.771  1.7245 -0.4541 -1.2945
 2684TIP3   OH229466   3.367   3.787  13.387 -0.2664 -0.8808  0.2253
 2684TIP3    H129467   3.297   3.804  13.323  0.6996  0.6897 -0.4808
 2684TIP3    H229468   3.322   3.748  13.462 -2.2232  1.6622  0.5132
 2685TIP3   OH229469   5.969   6.294   6.300 -0.7670 -0.1259  0.6244
 2685TIP3    H129470   6.055   6.334   6.289 -0.3949 -1.0780 -0.1091
 2685TIP3    H229471   5.917   6.359   6.347  0.5881  0.1675  1.7803
 2686TIP3   OH229472   2.696   3.188   0.290  0.6690  0.0904  0.8137
 2686TIP3    H129473   2.741   3.271   0.301  0.2567  0.3612  0.4884
 2686TIP3    H229474   2.722   3.136   0.367 -1.2701  1.5175  2.5320
 2687TIP3   OH229475   3.459   5.092  12.823 -1.3997 -0.8947 -0.3330
 2687TIP3    H129476   3.437   5.139  12.742 -2.4888 -0.5319  0.1438
 2687TIP3    H229477   3.507   5.015  12.794 -2.2849 -1.0803 -1.3817
 2688TIP3   OH229478   1.508   2.310  13.288 -0.3815  0.3167 -0.0555
 2688TIP3    H129479   1.487   2.371  13.359  2.6269  1.0422  0.3590
 2688TIP3    H229480   1.530   2.228  13.332 -1.7189 -0.2613 -0.4226
 2689TIP3   OH229481   4.136   2.455   3.118 -0.3240 -0.7274 -0.8461
 2689TIP3    H129482   4.158   2.460   3.211  0.0786 -1.9739 -0.8479
 2689TIP3    H229483   4.176   2.533   3.080 -1.7145  0.5785  0.2263
 2690TIP3   OH229484   4.098   0.301   4.553  0.3102 -0.2620  0.2320
 2690TIP3    H129485   4.137   0.261   4.475  1.5652 -0.4231  0.9185
 2690TIP3    H229486   4.168   0.352   4.592 -0.4933  0.3675  0.9012
 2691TIP3   OH229487   2.443   2.310   6.549  0.0132  0.2943  0.1781
 2691TIP3    H129488   2.422   2.216   6.553  2.1367 -0.3175 -1.1161
 2691TIP3    H229489   2.358   2.352   6.534 -0.8873 -1.5121 -0.2115
 2692TIP3   OH229490   3.091   2.162  11.003  0.1634  0.0099 -0.1132
 2692TIP3    H129491   3.169   2.124  11.043  0.3989 -1.9547 -2.2400
 2692TIP3    H229492   3.018   2.112  11.038  0.0342  0.5048  0.3406
 2693TIP3   OH229493   3.603   1.582  15.676  0.3794 -0.0936  0.2924
 2693TIP3    H129494   3.577   1.671  15.702 -0.7927 -0.3619  0.0924
 2693TIP3    H229495   3.610   1.586  15.581 -2.4740 -0.8629 -0.0381
 2694TIP3   OH229496   1.099   2.196   1.703  0.5867  0.1974  1.1457
 2694TIP3    H129497   1.145   2.122   1.743  1.7531 -0.7645 -1.7066
 2694TIP3    H229498   1.154   2.271   1.720  0.7195 -0.0610  1.8746
 2695TIP3   OH229499   3.705   3.943  12.645  0.0854  0.1944  0.4804
 2695TIP3    H129500   3.753   4.020  12.612 -0.9751  1.4881  1.8086
 2695TIP3    H229501   3.718   3.945  12.740  0.7225 -1.7949  0.4819
 2696TIP3   OH229502   3.402   6.669  17.358  0.4141 -0.3602 -0.6932
 2696TIP3    H129503   3.340   6.741  17.367  0.7579  0.0801 -1.6317
 2696TIP3    H229504   3.390   6.637  17.268  1.4204 -0.3665 -0.8465
 2697TIP3   OH229505   0.726   6.244   5.701  0.7384 -0.1271 -0.3526
 2697TIP3    H129506   0.818   6.226   5.723  1.6526  2.5099 -1.4648
 2697TIP3    H229507   0.707   6.186   5.627  2.0837  0.3454 -1.1173
 2698TIP3   OH229508   0.390   1.142   5.925 -0.3107  0.2210 -0.0847
 2698TIP3    H129509   0.381   1.166   5.833 -1.7398 -1.4080 -0.4204
 2698TIP3    H229510   0.428   1.054   5.924 -0.8610 -0.0502  0.8327
 2699TIP3   OH229511   1.423   0.309   1.060  0.6776 -0.4191  0.1712
 2699TIP3    H129512   1.467   0.298   1.145  0.7310  0.9578  0.3377
 2699TIP3    H229513   1.337   0.269   1.072  1.2248 -1.5642  0.3939
 2700TIP3   OH229514   1.884   5.355   1.430  0.0262  0.4336  0.5684
 2700TIP3    H129515   1.969   5.322   1.402  0.0493  0.5829  0.4614
 2700TIP3    H229516   1.854   5.292   1.496  0.0410  0.1637  0.3206
 2701TIP3   OH229517   3.270   3.622   1.647 -0.4740 -0.1008  0.4495
 2701TIP3    H129518   3.280   3.698   1.705 -0.3480 -0.6446  1.1507
 2701TIP3    H229519   3.238   3.552   1.705  0.1965 -0.8107 -0.0302
 2702TIP3   OH229520   3.774   0.806   3.490  0.6300 -0.0919  0.0588
 2702TIP3    H129521   3.839   0.739   3.510 -0.1485 -1.1487 -0.8537
 2702TIP3    H229522   3.717   0.808   3.567  0.0526 -1.2129 -0.3329
 2703TIP3   OH229523   6.372   5.423  14.876  0.5383 -0.4454 -0.2609
 2703TIP3    H129524   6.341   5.475  14.802 -0.0596  2.3251  1.7850
 2703TIP3    H229525   6.326   5.339  14.867 -0.4533  0.2477 -2.3032
 2704TIP3   OH229526   1.646   5.624  13.844 -0.4769  0.1901  0.3167
 2704TIP3    H129527   1.731   5.664  13.826 -0.2987 -0.8411 -1.4123
 2704TIP3    H229528   1.586   5.697  13.854  0.3636  0.9240  0.0927
 2705TIP3   OH229529   1.795   5.157   2.211  0.0213  0.1821  0.0678
 2705TIP3    H129530   1.771   5.085   2.153 -2.8066  0.9441  0.1307
 2705TIP3    H229531   1.845   5.116   2.281  1.1919 -1.1728 -1.4966
 2706TIP3   OH229532   3.499   0.356  16.599  0.2503  0.1500 -0.4291
 2706TIP3    H129533   3.479   0.432  16.654 -0.3936 -0.4097  0.1256
 2706TIP3    H229534   3.505   0.283  16.660  0.4599 -0.3210 -1.0047
 2707TIP3   OH229535   3.619   3.763  16.898  0.2078 -0.0040  0.2205
 2707TIP3    H129536   3.653   3.847  16.867  0.3499 -0.7201 -1.6575
 2707TIP3    H229537   3.644   3.701  16.831 -2.7935 -0.9982 -0.0972
 2708TIP3   OH229538   0.237   5.962   3.017  0.3409  0.1785  0.4241
 2708TIP3    H129539   0.272   5.932   3.101 -2.1119  1.5876  2.0952
 2708TIP3    H229540   0.275   6.048   3.004 -2.1305  1.7107  2.2410
 2709TIP3   OH229541   0.218   4.347  13.945 -0.7327  0.0041  0.0738
 2709TIP3    H129542   0.180   4.434  13.950 -1.2776 -0.1629 -0.9467
 2709TIP3    H229543   0.237   4.334  13.852  2.3644  0.2918  0.5371
 2710TIP3   OH229544   1.709   1.390   2.597 -0.3951  0.2780 -0.7672
 2710TIP3    H129545   1.767   1.314   2.594  0.1203  0.6564 -0.6616
 2710TIP3    H229546   1.651   1.379   2.522 -1.7081 -1.2722  0.4219
 2711TIP3   OH229547   4.091   5.542  14.870 -0.9771 -0.7417  0.1013
 2711TIP3    H129548   4.038   5.618  14.847  0.8878  0.7598  0.4238
 2711TIP3    H229549   4.070   5.524  14.962  1.2861  1.9644  1.3097
 2712TIP3   OH229550   4.317   0.189  14.677  0.2532 -0.1484 -0.2504
 2712TIP3    H129551   4.381   0.205  14.608 -0.5601  0.8646 -0.8097
 2712TIP3    H229552   4.349   0.112  14.722  2.7379  1.2166  0.5096
 2713TIP3   OH229553   4.527   2.707   4.180 -0.0212 -0.5414 -0.1289
 2713TIP3    H129554   4.620   2.711   4.159  0.4893  3.1108  2.0012
 2713TIP3    H229555   4.524   2.684   4.273 -1.3727 -1.6044 -0.3958
 2714TIP3   OH229556   5.701   4.674   3.836  0.0163 -0.2150  0.2542
 2714TIP3    H129557   5.730   4.723   3.759 -0.9174  1.0864  0.6888
 2714TIP3    H229558   5.622   4.628   3.806  0.0145 -0.2095  0.2509
 2715TIP3   OH229559   5.308   3.447  15.563  0.3901 -0.4701 -0.4137
 2715TIP3    H129560   5.260   3.485  15.637  0.9872 -0.6966  0.0934
 2715TIP3    H229561   5.283   3.502  15.488  1.9184  1.5376  0.4640
 2716TIP3   OH229562   6.579   4.725  14.248 -0.0137 -0.5507  0.0672
 2716TIP3    H129563   6.487   4.699  14.246  0.3713 -2.0566 -2.3823
 2716TIP3    H229564   6.589   4.786  14.175  0.7963  0.2772  0.8286
 2717TIP3   OH229565   2.495   5.421   4.854 -0.4439 -0.3780 -0.3617
 2717TIP3    H129566   2.558   5.487   4.883 -2.8556  1.4143  1.2397
 2717TIP3    H229567   2.530   5.338   4.885  0.1745  0.7926  2.3643
 2718TIP3   OH229568   4.039   1.900  12.135  0.3124  0.4042  0.2444
 2718TIP3    H129569   4.052   1.891  12.041  0.3903 -1.6772  0.4153
 2718TIP3    H229570   4.124   1.931  12.168 -0.0155  2.1309 -0.4530
 2719TIP3   OH229571   0.848   1.806  14.857  0.0734  0.3222  0.2304
 2719TIP3    H129572   0.911   1.864  14.814  0.6366 -0.2299  0.3108
 2719TIP3    H229573   0.838   1.842  14.945 -0.0418  0.6463  0.0877
 2720TIP3   OH229574   6.171   0.037  17.265  0.4049 -0.2106  0.1856
 2720TIP3    H129575   6.253   0.008  17.306  0.3769 -1.3404 -0.5291
 2720TIP3    H229576   6.111   0.049  17.339  0.5105 -1.7089  0.5371
 2721TIP3   OH229577   2.711   4.944  16.729  0.5921  0.0095 -0.0684
 2721TIP3    H129578   2.661   4.918  16.806 -1.3556  1.8763 -0.6110
 2721TIP3    H229579   2.678   4.888  16.659  0.2649  0.2965 -0.1434
 2722TIP3   OH229580   4.364   3.595  11.206  0.1369  0.1711  0.1076
 2722TIP3    H129581   4.345   3.588  11.300 -0.0943  2.4609  0.2839
 2722TIP3    H229582   4.282   3.622  11.166 -0.0015 -1.6534 -0.9291
 2723TIP3   OH229583   5.048   5.735   3.443 -0.1179 -0.3040 -0.4524
 2723TIP3    H129584   5.001   5.771   3.367 -1.2642 -0.1543  0.3032
 2723TIP3    H229585   5.007   5.777   3.519 -0.1355 -1.7033  0.3454
 2724TIP3   OH229586   3.821   2.464   3.643 -0.2273 -0.2363 -0.2400
 2724TIP3    H129587   3.861   2.526   3.704  1.2737 -0.6275 -0.7985
 2724TIP3    H229588   3.858   2.486   3.558 -2.2349  0.2445 -1.0435
 2725TIP3   OH229589   4.961   1.918   3.357  0.9806 -0.6899  0.2254
 2725TIP3    H129590   4.950   1.823   3.366 -1.4792 -0.4559  0.3416
 2725TIP3    H229591   4.902   1.942   3.286  0.5713  0.9207  1.0659
 2726TIP3   OH229592   2.789   4.138  13.288  0.5994 -0.1316 -0.0746
 2726TIP3    H129593   2.793   4.233  13.277 -0.4782  0.0162  0.5697
 2726TIP3    H229594   2.873   4.115  13.328  1.1415  0.4418 -0.8509
 2727TIP3   OH229595   5.019   1.462  12.526 -0.2091 -0.2249 -0.2802
 2727TIP3    H129596   4.944   1.405  12.544  0.1798 -0.6703 -0.0338
 2727TIP3    H229597   5.012   1.532  12.591 -1.2257  0.5627 -1.1872
 2728TIP3   OH229598   1.441   4.460  12.444  0.1878  0.2006  0.1478
 2728TIP3    H129599   1.345   4.457  12.453  0.2651 -0.7107  0.9102
 2728TIP3    H229600   1.459   4.407  12.367  0.1003 -0.0576  0.3009
 2729TIP3   OH229601   1.787   5.856   5.505 -0.6082  0.1139  0.1002
 2729TIP3    H129602   1.742   5.915   5.444 -1.1991 -0.5674 -0.1416
 2729TIP3    H229603   1.878   5.855   5.476 -0.5236  1.1368  0.2957
 2730TIP3   OH229604   5.450   0.207  12.362 -0.5257  1.0367 -0.5170
 2730TIP3    H129605   5.438   0.115  12.384 -0.4911  0.8969 -1.0535
 2730TIP3    H229606   5.421   0.255  12.439  0.3893  0.5531  0.1488
 2731TIP3   OH229607   1.014   5.915  14.931  0.2496 -0.0701  0.2391
 2731TIP3    H129608   0.974   5.829  14.918  2.7653 -1.5642  1.4856
 2731TIP3    H229609   0.972   5.949  15.010  0.5233 -1.0053  0.7955
 2732TIP3   OH229610   5.882   5.588   5.679 -0.2444  0.9019 -0.7632
 2732TIP3    H129611   5.969   5.562   5.649  0.1915  0.9981  0.3740
 2732TIP3    H229612   5.894   5.613   5.771 -1.8425 -1.0409  0.0554
 2733TIP3   OH229613   4.551   2.001   5.484  0.0060 -0.0509  0.3848
 2733TIP3    H129614   4.610   1.949   5.539 -1.2174 -1.4037  0.4714
 2733TIP3    H229615   4.499   2.052   5.546  0.9693  1.0814  0.3107
 2734TIP3   OH229616   0.062   0.811   5.399 -0.3976  0.1804  0.4786
 2734TIP3    H129617   0.116   0.867   5.454 -1.4636  0.9313  0.8112
 2734TIP3    H229618   0.076   0.843   5.310  0.4820 -0.3138  0.4280
 2735TIP3   OH229619   1.918   0.170  11.928 -0.0159 -0.2518  0.2276
 2735TIP3    H129620   1.871   0.239  11.882  0.1700 -0.3002 -0.0373
 2735TIP3    H229621   1.853   0.131  11.986 -0.2746 -0.2423 -0.0553
 2736TIP3   OH229622   6.454   0.505  12.833  0.1111  0.2080 -0.0467
 2736TIP3    H129623   6.440   0.599  12.820 -0.5598  0.0179 -0.8046
 2736TIP3    H229624   6.536   0.486  12.787 -0.0119  0.3297 -0.3152
 2737TIP3   OH229625   2.978   5.438   3.294  0.2933 -0.2640 -0.5087
 2737TIP3    H129626   3.036   5.427   3.369  0.8225  0.3605 -0.8206
 2737TIP3    H229627   2.895   5.401   3.323 -0.1009  1.6920  1.1110
 2738TIP3   OH229628   4.132   1.158  17.061  0.4501  0.1716  0.7634
 2738TIP3    H129629   4.123   1.097  16.988  0.1364  0.7329  0.3273
 2738TIP3    H229630   4.069   1.228  17.042  1.9948  1.5046  0.3756
 2739TIP3   OH229631   2.039   3.843   4.510  0.1412 -0.4083  0.4447
 2739TIP3    H129632   2.012   3.853   4.419 -0.3057 -3.6525  0.0792
 2739TIP3    H229633   2.131   3.870   4.512  1.4858 -4.0199 -2.0494
 2740TIP3   OH229634   1.917   5.764  11.820 -0.1740  0.3549 -0.0961
 2740TIP3    H129635   1.862   5.761  11.742  0.9250  1.7887 -0.9974
 2740TIP3    H229636   1.994   5.711  11.798 -1.1855 -1.8202  1.2335
 2741TIP3   OH229637   5.515   3.417  16.572 -0.4376 -0.2094 -0.0433
 2741TIP3    H129638   5.527   3.469  16.493 -1.9232  2.0916  1.1228
 2741TIP3    H229639   5.558   3.467  16.641 -0.1425 -1.6018  0.8425
 2742TIP3   OH229640   2.500   1.963  15.638  0.0872 -0.1257  0.0504
 2742TIP3    H129641   2.571   1.901  15.655 -0.0488 -0.8905 -1.8685
 2742TIP3    H229642   2.430   1.909  15.600 -1.2189  0.7402  1.1267
 2743TIP3   OH229643   4.174   2.994   3.640 -0.6981  0.6200 -0.2262
 2743TIP3    H129644   4.102   2.980   3.578  0.5130 -1.3034 -1.2994
 2743TIP3    H229645   4.190   2.907   3.678  2.5382  0.3855 -1.7651
 2744TIP3   OH229646   5.870   0.486   3.941  0.5036  0.0689  0.4857
 2744TIP3    H129647   5.782   0.447   3.943 -0.6557  2.4812  0.3579
 2744TIP3    H229648   5.897   0.480   3.850  0.5245 -0.7170  0.5312
 2745TIP3   OH229649   3.117   4.916  14.461  0.0973  0.0132 -0.1261
 2745TIP3    H129650   3.077   4.849  14.405 -1.0100  0.5809 -0.0293
 2745TIP3    H229651   3.053   4.987  14.464  1.1010  0.9421  0.0577
 2746TIP3   OH229652   0.072   5.043   0.018 -0.0822 -0.1338  0.1339
 2746TIP3    H129653   0.158   5.027   0.056 -0.0058 -0.0830 -0.0168
 2746TIP3    H229654   0.078   5.009  -0.071 -0.4245 -0.7298  0.3315
 2747TIP3   OH229655   1.941   0.894   1.804  0.6863  0.0030 -0.0851
 2747TIP3    H129656   1.970   0.944   1.728 -0.0371 -0.5471 -0.7389
 2747TIP3    H229657   1.968   0.804   1.785  0.1791 -0.1991  0.1376
 2748TIP3   OH229658   2.638   3.050  15.802  0.1934  0.2571 -0.0320
 2748TIP3    H129659   2.620   3.080  15.713 -2.9337 -1.7910 -0.2384
 2748TIP3    H229660   2.581   3.104  15.857  0.4181 -0.0218  0.4831
 2749TIP3   OH229661   4.726   3.980   2.196 -0.4101 -0.5257 -0.4075
 2749TIP3    H129662   4.650   4.003   2.142  1.2707  0.8903 -2.3315
 2749TIP3    H229663   4.760   4.064   2.227 -1.8062 -1.2594  3.8598
 2750TIP3   OH229664   1.469   1.012   2.589 -0.8798 -0.3398 -0.0017
 2750TIP3    H129665   1.437   1.088   2.542  0.2908 -1.5358 -2.9649
 2750TIP3    H229666   1.418   1.010   2.670 -0.5858  3.8150  0.4790
 2751TIP3   OH229667   6.529   6.115  12.488  0.3335  0.1505 -0.1277
 2751TIP3    H129668   6.499   6.111  12.578  0.8290 -1.6992 -0.0031
 2751TIP3    H229669   6.452   6.092  12.435  0.2393  0.4789 -0.1367
 2752TIP3   OH229670   0.404   6.169  12.789 -0.0614 -0.3649  0.5916
 2752TIP3    H129671   0.463   6.244  12.783 -0.9362  0.3699  0.8064
 2752TIP3    H229672   0.450   6.106  12.843  1.6173 -0.9073 -1.3491
 2753TIP3   OH229673   3.757   4.952  15.890  0.1706  0.1130 -0.2147
 2753TIP3    H129674   3.668   4.948  15.926  0.4065 -0.2163  0.3373
 2753TIP3    H229675   3.759   5.034  15.841  0.5132  1.6822  2.2914
 2754TIP3   OH229676   1.458   3.817   0.039 -0.1086  0.0224  0.0730
 2754TIP3    H129677   1.497   3.904   0.037  1.3091 -0.5282  1.7461
 2754TIP3    H229678   1.532   3.756   0.038 -0.7243 -1.0520  3.7892
 2755TIP3   OH229679   4.771   0.947  16.237  0.0019 -0.0593  0.3359
 2755TIP3    H129680   4.740   1.002  16.309  0.0165 -0.3131  0.5354
 2755TIP3    H229681   4.693   0.931  16.184  0.2475  1.2774 -0.4791
 2756TIP3   OH229682   6.036   0.176  15.449 -0.1482  0.7571 -0.3532
 2756TIP3    H129683   6.128   0.160  15.467 -0.0334  1.5085 -0.2189
 2756TIP3    H229684   5.989   0.110  15.499  0.3177  0.2995 -0.5111
 2757TIP3   OH229685   6.603   3.995   2.317  0.0443 -0.1216 -0.3383
 2757TIP3    H129686   6.680   3.939   2.304  0.1842 -0.1326  0.4637
 2757TIP3    H229687   6.533   3.952   2.268  0.2730 -0.7280 -0.1410
 2758TIP3   OH229688   4.214   2.879  16.403 -0.1359  0.3943 -0.6043
 2758TIP3    H129689   4.222   2.849  16.494 -0.9463 -0.1046 -0.6817
 2758TIP3    H229690   4.294   2.848  16.361  0.1078  0.3649 -0.1283
 2759TIP3   OH229691   5.884   5.996  14.436 -0.3816  0.2778  0.2921
 2759TIP3    H129692   5.883   6.073  14.379 -0.2392  1.2930  1.6010
 2759TIP3    H229693   5.808   6.008  14.493  0.1731 -0.0542  1.1221
 2760TIP3   OH229694   4.187   6.204   0.557  0.0948 -0.5862 -0.0759
 2760TIP3    H129695   4.140   6.284   0.533  0.5730 -0.4352 -0.4996
 2760TIP3    H229696   4.139   6.171   0.633 -0.0348  0.1648  0.1765
 2761TIP3   OH229697   5.730   0.063   0.193  0.4191 -0.4169 -0.0422
 2761TIP3    H129698   5.736  -0.012   0.252 -1.8704 -0.8752 -0.2816
 2761TIP3    H229699   5.712   0.137   0.251  1.8090 -0.1945  0.1200
 2762TIP3   OH229700   2.267   6.748   4.031  0.3394  0.3344 -0.1397
 2762TIP3    H129701   2.361   6.753   4.014  0.6020 -1.2731  0.6605
 2762TIP3    H229702   2.226   6.785   3.953  1.6374  2.4546  0.1251
 2763TIP3   OH229703   1.798   6.692   1.344  0.7667 -0.2316 -0.1481
 2763TIP3    H129704   1.825   6.704   1.253  1.0139 -0.7735 -0.1544
 2763TIP3    H229705   1.777   6.599   1.351  0.6096 -0.1680  0.3149
 2764TIP3   OH229706   6.189   1.309   0.018 -0.6505 -0.8533 -0.1683
 2764TIP3    H129707   6.224   1.264  -0.059  1.7504 -2.0759  1.5099
 2764TIP3    H229708   6.230   1.396   0.016 -2.5125  0.0693 -1.4913
 2765TIP3   OH229709   0.720   0.272  12.384 -0.1411  0.0556 -0.0666
 2765TIP3    H129710   0.713   0.354  12.335 -1.2888  0.5379  0.8540
 2765TIP3    H229711   0.814   0.265  12.404 -0.0193  1.1450 -0.1657
 2766TIP3   OH229712   3.598   1.390  12.343 -0.1005  0.2452  0.3565
 2766TIP3    H129713   3.647   1.317  12.378  0.7829 -0.9092 -2.9648
 2766TIP3    H229714   3.652   1.467  12.362 -0.1190 -0.1473  2.1890
 2767TIP3   OH229715   3.101   2.587   4.547 -0.0418  0.5452 -0.5092
 2767TIP3    H129716   3.185   2.629   4.531  0.6358 -1.0663 -1.3603
 2767TIP3    H229717   3.120   2.512   4.603 -1.0004  0.5115 -0.2037
 2768TIP3   OH229718   1.646   6.262   2.260  0.4326  0.1853 -0.3621
 2768TIP3    H129719   1.656   6.177   2.217 -1.3190 -1.9168  3.0119
 2768TIP3    H229720   1.571   6.302   2.216 -0.0032 -0.9229 -0.6663
 2769TIP3   OH229721   2.707   2.626  17.281 -0.0429 -0.1846  0.4945
 2769TIP3    H129722   2.772   2.604  17.215 -2.6075 -3.4244 -1.2525
 2769TIP3    H229723   2.725   2.565  17.353 -0.4629 -0.3290  0.4797
 2770TIP3   OH229724   2.327   4.980  17.330 -0.4058 -0.4443 -0.1394
 2770TIP3    H129725   2.338   5.040  17.257 -1.3106 -1.2530 -0.9502
 2770TIP3    H229726   2.244   5.005  17.371  0.6745  0.8217  1.4249
 2771TIP3   OH229727   5.795   3.859   1.848 -0.6257 -0.6119  0.2147
 2771TIP3    H129728   5.850   3.823   1.778 -0.7946  0.6656 -0.6084
 2771TIP3    H229729   5.711   3.877   1.806 -0.9365 -0.4160  0.9041
 2772TIP3   OH229730   0.268   0.313  12.329 -0.0408 -0.1856  0.0866
 2772TIP3    H129731   0.236   0.330  12.417  1.1923  1.0595  0.3267
 2772TIP3    H229732   0.192   0.275  12.283 -0.7573 -0.6606  1.5931
 2773TIP3   OH229733   6.060   3.683  17.335  0.1298  0.1398 -0.9130
 2773TIP3    H129734   5.967   3.703  17.338 -0.0758 -0.8256 -0.0782
 2773TIP3    H229735   6.096   3.724  17.414 -0.1141 -1.7272  0.2514
 2774TIP3   OH229736   1.676   0.535   4.887  0.0783  0.2012 -0.1633
 2774TIP3    H129737   1.590   0.559   4.852  1.1082  1.8395 -1.7618
 2774TIP3    H229738   1.726   0.617   4.887  2.1479 -0.9738 -0.8921
 2775TIP3   OH229739   4.886   2.162  12.840  0.4802  0.0762 -0.3435
 2775TIP3    H129740   4.843   2.157  12.925 -1.5521 -0.2603 -1.3296
 2775TIP3    H229741   4.978   2.180  12.861  0.0279  0.1208  1.8938
 2776TIP3   OH229742   0.520   0.885   5.899 -0.0681  0.2972  0.2459
 2776TIP3    H129743   0.551   0.794   5.893 -3.4990 -1.0103  0.2581
 2776TIP3    H229744   0.534   0.920   5.811  0.1123 -0.6585 -0.1227
 2777TIP3   OH229745   0.699   5.156  13.729  0.5015 -0.1078  0.3616
 2777TIP3    H129746   0.753   5.165  13.808  0.5996  0.4744  0.2310
 2777TIP3    H229747   0.724   5.231  13.675 -1.1903  0.7681  0.7425
 2778TIP3   OH229748   0.231   2.368   2.838 -0.5128  0.5601 -0.2769
 2778TIP3    H129749   0.222   2.355   2.932 -0.3501 -0.8971 -0.4404
 2778TIP3    H229750   0.249   2.462   2.828 -1.0437  0.8271  1.0924
 2779TIP3   OH229751   3.599   0.445   4.081  0.2502  0.0723  0.2773
 2779TIP3    H129752   3.672   0.503   4.063  1.9815 -1.9061  0.5334
 2779TIP3    H229753   3.639   0.359   4.097 -1.9266 -0.6104  2.8973
 2780TIP3   OH229754   5.896   3.207  16.284 -1.2737 -0.3309  0.3031
 2780TIP3    H129755   5.979   3.192  16.239 -0.3191  0.1383  1.8268
 2780TIP3    H229756   5.888   3.302  16.288 -1.4257 -0.3683  0.9608
 2781TIP3   OH229757   4.025   4.296   1.476 -0.9344 -0.7571 -0.1143
 2781TIP3    H129758   3.953   4.297   1.539  0.9813  2.6074  2.3410
 2781TIP3    H229759   4.001   4.363   1.412 -0.1355  0.2750  0.6332
 2782TIP3   OH229760   1.917   2.951  13.352 -0.1179  0.1652  0.1515
 2782TIP3    H129761   1.889   3.039  13.377  1.5889  1.1311 -1.1038
 2782TIP3    H229762   1.971   2.921  13.426  1.6302  1.3886 -0.5419
 2783TIP3   OH229763   2.795   6.419   6.140 -0.2954  0.3551 -0.4168
 2783TIP3    H129764   2.777   6.445   6.231  0.1641 -0.9010  0.0646
 2783TIP3    H229765   2.853   6.487   6.107  0.0162  0.5241  0.4395
 2784TIP3   OH229766   4.502   2.080   1.553  0.2399  0.6264 -0.0537
 2784TIP3    H129767   4.514   2.171   1.525 -0.6824  0.4064 -1.2122
 2784TIP3    H229768   4.565   2.030   1.501  0.2117  0.5083  0.0260
 2785TIP3   OH229769   6.151   1.599  14.593  0.3014 -0.4047 -0.3585
 2785TIP3    H129770   6.087   1.528  14.585  0.2960 -0.4765  0.2677
 2785TIP3    H229771   6.151   1.641  14.507  0.8201 -1.5931 -0.9624
 2786TIP3   OH229772   1.739   4.047   6.492  0.3171 -0.6365  0.0135
 2786TIP3    H129773   1.807   4.018   6.430 -0.7850 -0.0870 -1.5043
 2786TIP3    H229774   1.749   3.988   6.567  0.3818 -2.7253 -1.5254
 2787TIP3   OH229775   3.384   2.280  13.450  0.3087  0.3393  0.0706
 2787TIP3    H129776   3.428   2.358  13.484  0.8605 -0.1433  0.4671
 2787TIP3    H229777   3.320   2.257  13.517 -0.2764  0.7901 -0.3162
 2788TIP3   OH229778   3.676   4.229   1.921  0.1997  0.2672  0.1890
 2788TIP3    H129779   3.627   4.178   1.856 -0.3609  1.5756 -0.4486
 2788TIP3    H229780   3.690   4.168   1.994  0.4884 -1.1196 -0.9740
 2789TIP3   OH229781   4.705   2.963  11.696 -0.2232 -0.2166 -0.7087
 2789TIP3    H129782   4.645   2.902  11.653 -1.3401  0.8864 -0.7484
 2789TIP3    H229783   4.649   3.032  11.731  0.9379  0.3686  0.0642
 2790TIP3   OH229784   3.723   6.216   3.455 -0.2340 -0.4892 -0.1150
 2790TIP3    H129785   3.670   6.225   3.534 -0.3098  2.9570 -0.3976
 2790TIP3    H229786   3.810   6.249   3.480  0.9428 -3.0405 -0.5228
 2791TIP3   OH229787   0.641   4.797  11.644  0.1059 -0.1182  1.2173
 2791TIP3    H129788   0.710   4.863  11.637  0.1279 -0.2259  0.3232
 2791TIP3    H229789   0.678   4.719  11.602 -1.1945  0.3562 -0.9443
 2792TIP3   OH229790   1.257   3.694   2.013  0.1168  0.5168 -0.0232
 2792TIP3    H129791   1.298   3.616   2.050 -0.7599  0.4982  0.9804
 2792TIP3    H229792   1.183   3.661   1.962  1.6766  0.4978 -2.4213
 2793TIP3   OH229793   6.704   6.097   1.967 -0.0816  0.2020  0.3009
 2793TIP3    H129794   6.704   6.188   1.936 -0.0174  0.4653  1.0607
 2793TIP3    H229795   6.746   6.048   1.896 -2.0426  0.4095 -1.0830
 2794TIP3   OH229796   2.480   5.354   4.228 -0.2267 -0.4351  0.2059
 2794TIP3    H129797   2.520   5.434   4.262  0.5915 -1.2777  1.2902
 2794TIP3    H229798   2.385   5.369   4.238 -0.1414  0.7675 -0.5153
 2795TIP3   OH229799   2.316   2.133  16.538 -0.3998 -0.3369  0.3362
 2795TIP3    H129800   2.266   2.212  16.517  1.1440  0.3444 -0.9636
 2795TIP3    H229801   2.289   2.069  16.473  0.5602  0.1138 -0.5318
 2796TIP3   OH229802   5.977   3.781  14.221  0.3019 -0.3457 -0.1927
 2796TIP3    H129803   5.924   3.771  14.142  1.8696  0.6079 -1.4254
 2796TIP3    H229804   6.067   3.788  14.189  0.9810  0.0591  1.6858
 2797TIP3   OH229805   3.774   4.572   4.082  0.8606 -0.1326 -0.5395
 2797TIP3    H129806   3.760   4.539   4.170  2.3339 -0.8671 -0.5511
 2797TIP3    H229807   3.688   4.566   4.040  0.6365 -2.0553  0.0932
 2798TIP3   OH229808   2.923   0.410  15.552  0.1282 -0.3716 -0.0890
 2798TIP3    H129809   2.879   0.346  15.607 -0.8893 -0.6951 -1.2303
 2798TIP3    H229810   2.907   0.494  15.595  1.3120 -0.8268  1.3101
 2799TIP3   OH229811   3.492   1.109  11.660 -0.5871  0.3239  0.0597
 2799TIP3    H129812   3.418   1.061  11.624  0.2001 -0.1958 -0.9364
 2799TIP3    H229813   3.500   1.187  11.605 -1.0706  0.9508  0.8658
 2800TIP3   OH229814   5.865   3.392   1.224  0.0494 -0.3019  0.1698
 2800TIP3    H129815   5.783   3.368   1.267 -0.1438 -0.0369 -0.0472
 2800TIP3    H229816   5.877   3.324   1.157  0.7794 -1.1996  1.1627
 2801TIP3   OH229817   0.317   1.780   1.576  0.5310 -0.1901 -0.3221
 2801TIP3    H129818   0.249   1.715   1.563  1.9402 -1.8932  0.3919
 2801TIP3    H229819   0.396   1.729   1.596  1.6819  1.7394  0.3751
 2802TIP3   OH229820   1.838   4.216   2.672 -0.5651 -0.5715 -0.0707
 2802TIP3    H129821   1.866   4.259   2.591 -0.0746 -2.6669 -1.0800
 2802TIP3    H229822   1.745   4.236   2.679 -0.2248  1.2632 -0.0385
 2803TIP3   OH229823   3.338   0.771   4.381  0.1438  0.5484  0.8334
 2803TIP3    H129824   3.313   0.862   4.394 -0.0221  0.4702  1.0680
 2803TIP3    H229825   3.314   0.727   4.463  1.2173  0.5069  1.1420
 2804TIP3   OH229826   4.434   3.376   3.428  0.6088  0.7763 -0.2625
 2804TIP3    H129827   4.474   3.289   3.437  1.0638  0.9760 -0.3166
 2804TIP3    H229828   4.508   3.436   3.435  0.0701  1.2568  1.6669
 2805TIP3   OH229829   3.918   6.487   2.597  0.1227  0.1563 -0.3847
 2805TIP3    H129830   3.970   6.449   2.525  0.7529 -0.2550  0.2758
 2805TIP3    H229831   3.878   6.411   2.640  1.8684  0.1213  1.3193
 2806TIP3   OH229832   6.175   1.836   4.855  0.4410  0.1883  0.1945
 2806TIP3    H129833   6.221   1.875   4.929 -0.1017  0.5700  0.3421
 2806TIP3    H229834   6.136   1.756   4.891  0.0863  0.4293  0.3605
 2807TIP3   OH229835   0.080   3.157   1.807  0.7656 -0.5251 -0.2012
 2807TIP3    H129836   0.151   3.166   1.871  1.7977 -4.2484 -0.6429
 2807TIP3    H229837   0.124   3.134   1.725 -0.8470 -1.7850 -0.7642
 2808TIP3   OH229838   5.999   0.980   5.234  0.2784  0.7052 -0.3781
 2808TIP3    H129839   5.920   0.930   5.255  0.0831  1.6934  1.4448
 2808TIP3    H229840   6.049   0.981   5.315  0.9276  2.2880 -0.7547
 2809TIP3   OH229841   5.717   1.519  12.674 -0.3976 -0.1650  0.1718
 2809TIP3    H129842   5.627   1.489  12.660 -1.2710  2.5036 -0.6109
 2809TIP3    H229843   5.707   1.608  12.709  1.9490 -0.7679  2.7896
 2810TIP3   OH229844   1.228   0.553  12.387  0.3863  0.7436  0.0929
 2810TIP3    H129845   1.137   0.546  12.416  0.2176  1.5319 -0.2162
 2810TIP3    H229846   1.257   0.462  12.378 -0.4627  0.4795 -0.0924
 2811TIP3   OH229847   3.789   2.354   3.251 -0.6992  0.0308 -0.3878
 2811TIP3    H129848   3.761   2.271   3.289 -0.3207  0.1483  0.1526
 2811TIP3    H229849   3.863   2.382   3.305 -0.1499  0.1971 -1.2075
 2812TIP3   OH229850   5.442   4.943  14.667 -0.1174  0.7948 -0.0771
 2812TIP3    H129851   5.444   4.963  14.761 -1.0592 -1.7713  0.5984
 2812TIP3    H229852   5.472   5.022  14.624 -0.4184  2.3305  2.3645
 2813TIP3   OH229853   2.924   5.331   0.682  0.0444  0.0225  0.2963
 2813TIP3    H129854   2.876   5.249   0.698 -1.8048  1.0054  0.0517
 2813TIP3    H229855   2.886   5.366   0.602 -0.2319  1.8297  1.1581
 2814TIP3   OH229856   1.217   4.894   1.014 -0.1525  0.7238 -0.6053
 2814TIP3    H129857   1.152   4.908   1.082  1.2856 -0.7000  1.1457
 2814TIP3    H229858   1.228   4.981   0.974 -2.4504  1.1726 -0.4098
 2815TIP3   OH229859   0.103   6.396   3.839  0.1720  0.1835 -0.9285
 2815TIP3    H129860   0.047   6.325   3.807  0.2006  0.2797 -1.1951
 2815TIP3    H229861   0.177   6.398   3.778  0.3522  0.2060 -0.7100
 2816TIP3   OH229862   3.724   1.325  16.301  0.2364 -0.3008  0.1289
 2816TIP3    H129863   3.798   1.344  16.359  2.0832  0.3669 -2.3056
 2816TIP3    H229864   3.665   1.399  16.312  1.1836  0.4510  0.2382
 2817TIP3   OH229865   6.536   0.031  14.289  0.1050  0.4563 -0.0789
 2817TIP3    H129866   6.537   0.061  14.199 -0.2162 -0.1141 -0.2759
 2817TIP3    H229867   6.628   0.009  14.308  0.3644  1.6072  0.0990
 2818TIP3   OH229868   5.197   2.949   3.620 -0.2956 -0.2627  0.5445
 2818TIP3    H129869   5.172   3.007   3.548 -0.2872  0.3801  1.0487
 2818TIP3    H229870   5.264   2.998   3.668 -1.1925 -0.1350  1.7188
 2819TIP3   OH229871   2.200   4.658   6.182 -0.8618 -0.4441  0.3321
 2819TIP3    H129872   2.251   4.607   6.119 -1.8137  0.2904 -1.0851
 2819TIP3    H229873   2.145   4.715   6.128 -2.4488 -0.4831  1.8259
 2820TIP3   OH229874   6.722   4.162  14.343  0.0606 -0.3245 -0.3153
 2820TIP3    H129875   6.726   4.068  14.362 -1.4076 -0.0703  1.6099
 2820TIP3    H229876   6.812   4.186  14.323  0.4980 -2.1102 -0.6764
 2821TIP3   OH229877   6.267   5.404  13.473  0.4573 -0.5034 -0.3319
 2821TIP3    H129878   6.227   5.409  13.560  1.5232  0.8609  0.1177
 2821TIP3    H229879   6.315   5.486  13.464 -0.1646 -0.3184 -2.4893
 2822TIP3   OH229880   2.057   1.639   2.212  0.6528 -0.5328  0.0941
 2822TIP3    H129881   2.140   1.656   2.167  0.1008  3.3887  0.2213
 2822TIP3    H229882   2.061   1.695   2.290 -1.4535 -1.5415  0.9808
 2823TIP3   OH229883   4.725   1.295  13.723  0.0546  0.0212 -0.1477
 2823TIP3    H129884   4.656   1.257  13.669 -0.0960  0.5440 -0.3275
 2823TIP3    H229885   4.741   1.381  13.685 -1.1344  1.0575  1.5513
 2824TIP3   OH229886   0.807   0.829   4.213  0.3308  0.0957 -0.2573
 2824TIP3    H129887   0.741   0.858   4.276  1.4995  0.7747  0.6888
 2824TIP3    H229888   0.829   0.740   4.241  1.1612  0.5550  0.5661
 2825TIP3   OH229889   0.326   3.400  10.449  0.3569 -0.2621 -0.8524
 2825TIP3    H129890   0.273   3.403  10.528  0.1158 -1.2714 -0.9714
 2825TIP3    H229891   0.407   3.446  10.473  0.3301 -0.6509  0.0066
 2826TIP3   OH229892   1.690   5.592  11.521 -0.1732 -0.0640 -0.3772
 2826TIP3    H129893   1.658   5.511  11.562  0.1155  0.0206  0.0261
 2826TIP3    H229894   1.646   5.595  11.436  0.5036 -1.1163 -0.7916
 2827TIP3   OH229895   0.687   5.045  11.077  0.5397  0.0812  0.5142
 2827TIP3    H129896   0.734   5.074  11.155  0.8313 -1.4931  0.9553
 2827TIP3    H229897   0.751   4.996  11.026  0.7647  2.2719 -1.4843
 2828TIP3   OH229898   3.173   0.581   5.172 -0.3710  0.0840  0.1223
 2828TIP3    H129899   3.184   0.585   5.267 -1.5816 -0.7205  0.3226
 2828TIP3    H229900   3.119   0.658   5.152 -1.2267 -0.4593  0.2855
 2829TIP3   OH229901   2.253   5.068  13.519  0.4320  0.1862  0.1517
 2829TIP3    H129902   2.248   5.050  13.613  1.4583  0.8440  0.3440
 2829TIP3    H229903   2.252   5.163  13.513  1.9827  0.1937 -0.3835
 2830TIP3   OH229904   1.427   1.686   0.402 -0.1699  0.4774 -0.1030
 2830TIP3    H129905   1.512   1.656   0.369 -1.3736 -1.9626 -1.2238
 2830TIP3    H229906   1.394   1.744   0.333 -0.7955 -1.1901 -1.2631
 2831TIP3   OH229907   5.203   6.594  16.562  0.4180  0.2482 -0.1926
 2831TIP3    H129908   5.241   6.572  16.477  2.7897  0.4020  0.7659
 2831TIP3    H229909   5.242   6.532  16.623  1.0064  1.9251  1.2369
 2832TIP3   OH229910   2.373   4.674  14.784 -0.6633 -0.0955 -0.0120
 2832TIP3    H129911   2.316   4.667  14.708 -0.7736  0.2673  0.0337
 2832TIP3    H229912   2.437   4.603  14.774 -1.8084 -1.2438  0.5382
 2833TIP3   OH229913   1.827   2.572   1.919 -0.3552 -0.6530  0.1972
 2833TIP3    H129914   1.764   2.540   1.984 -0.0443 -0.2753  0.6852
 2833TIP3    H229915   1.819   2.667   1.923 -1.4431 -0.6312 -1.4165
 2834TIP3   OH229916   1.620   2.756  15.521 -0.3209 -0.3856 -0.1623
 2834TIP3    H129917   1.700   2.704  15.513 -0.6964 -0.8573 -0.9162
 2834TIP3    H229918   1.549   2.693  15.507 -0.8376 -0.0036  0.6521
 2835TIP3   OH229919   5.505   3.643  12.487 -0.4280 -0.4599  0.1364
 2835TIP3    H129920   5.417   3.640  12.449  0.5986  0.9275 -2.6151
 2835TIP3    H229921   5.507   3.723  12.538 -0.8628 -0.6656  0.4763
 2836TIP3   OH229922   0.260   3.519  10.685 -0.1497  0.3106  0.2329
 2836TIP3    H129923   0.258   3.597  10.630 -0.7461  0.2666  0.1929
 2836TIP3    H229924   0.197   3.538  10.755  1.4187  0.8592  1.5693
 2837TIP3   OH229925   1.902   4.146  12.474  0.4634  0.0530 -0.5214
 2837TIP3    H129926   1.950   4.114  12.397  2.0761 -1.0203  0.8548
 2837TIP3    H229927   1.969   4.188  12.528 -0.5043  0.1840  0.6105
 2838TIP3   OH229928   5.230   2.198   4.878  0.0025  0.3290  0.0033
 2838TIP3    H129929   5.304   2.138   4.861 -0.7518 -0.0569 -2.1949
 2838TIP3    H229930   5.255   2.279   4.835 -0.1456  0.7496  0.7026
 2839TIP3   OH229931   1.803   6.298   6.727  0.3979 -0.0511  0.4032
 2839TIP3    H129932   1.737   6.250   6.777 -0.3585 -0.0156 -0.5361
 2839TIP3    H229933   1.885   6.251   6.743  0.0860 -0.3069  1.2912
 2840TIP3   OH229934   5.905   4.697  11.374 -0.3174  0.6324 -0.0409
 2840TIP3    H129935   5.855   4.617  11.357  0.3673  0.3267 -0.6875
 2840TIP3    H229936   5.884   4.754  11.301 -0.5941  0.9424  0.2794
 2841TIP3   OH229937   4.678   3.796   4.859  0.1577  0.3261 -0.3609
 2841TIP3    H129938   4.742   3.725   4.849  0.3331  0.6731 -2.0083
 2841TIP3    H229939   4.595   3.758   4.829 -0.0453  0.4138  0.0780
 2842TIP3   OH229940   1.263   5.747  14.360  0.0604  0.0647 -0.1723
 2842TIP3    H129941   1.332   5.680  14.363 -0.2659 -0.5425 -3.2044
 2842TIP3    H229942   1.307   5.826  14.329 -0.0449  0.5983  0.9803
 2843TIP3   OH229943   4.608   0.606  16.406  0.1091  0.2144  0.0886
 2843TIP3    H129944   4.532   0.647  16.446  1.6360  1.4131  1.9423
 2843TIP3    H229945   4.603   0.514  16.431 -0.3271  0.4341  0.8277
 2844TIP3   OH229946   0.296   1.553   0.569 -0.0494 -0.1039 -0.1391
 2844TIP3    H129947   0.290   1.647   0.584 -0.4666 -0.3404  1.4389
 2844TIP3    H229948   0.318   1.517   0.655 -2.7610 -1.6823  0.0149
 2845TIP3   OH229949   1.817   2.799  12.266  0.2326  0.1425  0.0901
 2845TIP3    H129950   1.866   2.718  12.279  0.0524 -0.0867 -0.5921
 2845TIP3    H229951   1.757   2.780  12.194  1.1658  1.2954 -1.0486
 2846TIP3   OH229952   0.455   5.651   0.543  0.0325 -0.2181  0.2564
 2846TIP3    H129953   0.485   5.730   0.588  0.5781 -0.0176 -0.4579
 2846TIP3    H229954   0.453   5.584   0.612  1.3984 -0.0528  0.4752
 2847TIP3   OH229955   1.925   3.713   4.956  0.7594 -0.4273  0.3967
 2847TIP3    H129956   1.849   3.680   5.005  1.9909 -3.5054  0.5144
 2847TIP3    H229957   1.905   3.693   4.865  0.9784 -0.2687  0.3135
 2848TIP3   OH229958   5.326   2.823   4.430  0.0618 -0.0437  0.8773
 2848TIP3    H129959   5.377   2.896   4.395 -0.2387 -0.0989  0.3153
 2848TIP3    H229960   5.391   2.762   4.466  0.2984  0.6970  1.7484
 2849TIP3   OH229961   4.389   1.460   0.935 -0.1669 -0.0746 -0.3509
 2849TIP3    H129962   4.368   1.538   0.883  0.5704  2.0745  2.3170
 2849TIP3    H229963   4.484   1.463   0.945  0.0389 -2.1370 -1.2787
 2850TIP3   OH229964   2.214   5.635  13.548  0.0198 -0.3163 -0.1722
 2850TIP3    H129965   2.225   5.722  13.509  1.3186  1.2687  3.3107
 2850TIP3    H229966   2.126   5.638  13.586  0.4091 -0.1564  0.7286
 2851TIP3   OH229967   6.061   2.065  14.280  0.0321  0.2203 -0.0098
 2851TIP3    H129968   6.048   2.035  14.369 -2.7088 -1.3376 -0.8321
 2851TIP3    H229969   6.027   2.155  14.279 -0.4664  0.0376  0.4005
 2852TIP3   OH229970   5.378   3.788  14.906  0.2403  0.4841 -0.3150
 2852TIP3    H129971   5.332   3.866  14.876 -2.3358 -0.3363  1.2366
 2852TIP3    H229972   5.344   3.717  14.852 -0.1434 -0.0874  0.6449
 2853TIP3   OH229973   1.449   1.801   4.477  0.3635  0.0127 -0.0753
 2853TIP3    H129974   1.393   1.875   4.455 -0.0307 -0.3312 -0.2566
 2853TIP3    H229975   1.488   1.775   4.393  0.6162  0.1106  0.0132
 2854TIP3   OH229976   1.005   2.466  11.476  0.0075 -0.2717 -0.6183
 2854TIP3    H129977   0.976   2.511  11.397 -1.1110  0.6385  0.2651
 2854TIP3    H229978   1.020   2.536  11.539  1.2326 -0.9514 -0.1118
 2855TIP3   OH229979   6.588   2.916  13.111 -0.2463 -0.0052 -0.6286
 2855TIP3    H129980   6.679   2.891  13.096 -0.1056  0.3760 -0.4084
 2855TIP3    H229981   6.554   2.847  13.169 -0.0211  0.0045 -0.4854
 2856TIP3   OH229982   6.394   0.823   2.239  0.5341 -0.4333 -0.6937
 2856TIP3    H129983   6.300   0.835   2.226  0.4183 -2.1791 -1.8171
 2856TIP3    H229984   6.415   0.743   2.191  2.4325 -0.5996  0.3027
 2857TIP3   OH229985   0.209   3.474   1.910 -0.3347 -0.6339 -0.2629
 2857TIP3    H129986   0.222   3.460   1.816 -0.6414  0.3712 -0.4693
 2857TIP3    H229987   0.278   3.535   1.935 -1.0025  0.0670 -0.0991
 2858TIP3   OH229988   0.672   5.808   1.544  0.0782 -0.3362  0.4343
 2858TIP3    H129989   0.577   5.814   1.536  0.1860 -0.1652 -0.8669
 2858TIP3    H229990   0.687   5.720   1.579 -0.4877 -1.1253 -1.2015
 2859TIP3   OH229991   5.638   0.196   3.069  0.0760 -0.4488 -0.0386
 2859TIP3    H129992   5.620   0.132   3.000  1.0422  0.1447 -0.8744
 2859TIP3    H229993   5.721   0.237   3.043  0.5828 -0.3493  1.5958
 2860TIP3   OH229994   1.212   3.229   4.136  0.0196 -0.2478  0.1520
 2860TIP3    H129995   1.211   3.134   4.136  0.2172 -0.2531 -0.4308
 2860TIP3    H229996   1.175   3.253   4.051 -4.8253  0.2544  2.0689
 2861TIP3   OH229997   0.762   3.657   1.863  0.2916  0.2986  0.1348
 2861TIP3    H129998   0.780   3.750   1.868  2.3861  0.0289 -1.4031
 2861TIP3    H229999   0.752   3.629   1.954 -1.0881  2.0929  0.5889
 2862TIP3   OH230000   4.748   3.487  12.013  0.7395 -0.4319  0.2000
 2862TIP3    H130001   4.794   3.561  11.974  1.5153 -0.3785  1.1729
 2862TIP3    H230002   4.813   3.417  12.015  0.6270 -0.5197  1.1143
 2863TIP3   OH230003   2.844   5.290  17.336  0.0724  0.0541  0.4736
 2863TIP3    H130004   2.764   5.246  17.364 -0.2013 -1.6260 -2.5346
 2863TIP3    H230005   2.906   5.219  17.319  0.8658  1.0485 -1.0041
 2864TIP3   OH230006   4.650   5.716   1.094 -0.1434  0.1804 -0.0501
 2864TIP3    H130007   4.697   5.662   1.157  0.4688  0.1137 -0.5519
 2864TIP3    H230008   4.687   5.691   1.009 -0.3801  0.8444 -0.3541
 2865TIP3   OH230009   1.888   4.001  16.580  0.0441 -0.0021 -0.4868
 2865TIP3    H130010   1.903   4.091  16.552 -0.9699  0.3907  0.1597
 2865TIP3    H230011   1.829   4.009  16.655  0.6348 -1.1622  0.1309
 2866TIP3   OH230012   4.305   6.374  11.117 -0.1025 -0.6037 -0.9865
 2866TIP3    H130013   4.357   6.336  11.047  0.2220  0.7363 -1.5132
 2866TIP3    H230014   4.233   6.419  11.073 -0.7618 -1.0207 -0.3611
 2867TIP3   OH230015   0.656   2.868  14.138  0.2918  0.2152  0.4014
 2867TIP3    H130016   0.637   2.786  14.092 -1.5529  0.5037  0.5503
 2867TIP3    H230017   0.738   2.852  14.184  1.3453 -0.6348 -1.6691
 2868TIP3   OH230018   1.517   1.885  14.190 -0.3799 -0.3730  0.3918
 2868TIP3    H130019   1.530   1.978  14.170 -0.7241 -0.2310  0.8306
 2868TIP3    H230020   1.587   1.841  14.141 -0.6614  0.0468 -0.4025
 2869TIP3   OH230021   4.450   0.080  12.513  0.1016 -0.3870  0.2044
 2869TIP3    H130022   4.452   0.176  12.514 -1.6447 -0.3070  0.3731
 2869TIP3    H230023   4.368   0.059  12.468 -0.3053 -1.7550  1.4841
 2870TIP3   OH230024   5.752   3.363   0.847 -0.2065 -0.0978 -0.3459
 2870TIP3    H130025   5.806   3.366   0.768  0.5916  0.0831  0.1847
 2870TIP3    H230026   5.787   3.289   0.897 -1.0951 -0.5809 -0.4254
 2871TIP3   OH230027   1.812   1.195   3.090 -0.2932  0.1906 -0.5266
 2871TIP3    H130028   1.903   1.198   3.060  0.2300  0.7329  1.0163
 2871TIP3    H230029   1.762   1.239   3.021  0.8904  1.6114 -0.5172
 2872TIP3   OH230030   0.641   4.210  13.701  0.2224 -0.4521 -0.1819
 2872TIP3    H130031   0.704   4.141  13.678  0.4781  0.0886 -1.1391
 2872TIP3    H230032   0.668   4.238  13.788  1.6824  0.1526 -0.7853
 2873TIP3   OH230033   0.938   6.070   5.066 -0.0294 -1.0007 -0.3479
 2873TIP3    H130034   0.930   6.160   5.032  0.0569 -0.2032  1.6446
 2873TIP3    H230035   0.939   6.016   4.987  1.3488  0.8327 -1.6946
 2874TIP3   OH230036   4.786   2.306   5.621 -0.0445 -0.2229 -0.0221
 2874TIP3    H130037   4.819   2.392   5.596 -2.0988  0.6829  0.1899
 2874TIP3    H230038   4.808   2.298   5.714  0.0223  0.1616 -0.0023
 2875TIP3   OH230039   0.144   5.095   4.417 -0.7884 -0.5726  0.1899
 2875TIP3    H130040   0.232   5.124   4.391 -1.0176 -1.4608 -1.7008
 2875TIP3    H230041   0.126   5.020   4.361 -1.4379 -2.5458  2.8476
 2876TIP3   OH230042   3.935   5.015  11.647  0.1674 -0.3561 -0.0465
 2876TIP3    H130043   4.018   5.056  11.621  0.5878  0.4748  2.3456
 2876TIP3    H230044   3.869   5.083  11.629  0.2754 -0.2546 -0.0656
 2877TIP3   OH230045   4.249   6.187  14.303  0.3125 -0.1600 -0.0771
 2877TIP3    H130046   4.159   6.211  14.284  0.0554 -0.0006  1.2642
 2877TIP3    H230047   4.275   6.244  14.375  2.3156  1.5378 -1.9469
 2878TIP3   OH230048   5.350   3.351   1.797 -0.0824 -0.2971 -0.7787
 2878TIP3    H130049   5.400   3.380   1.721 -0.8985 -3.7264 -2.8447
 2878TIP3    H230050   5.416   3.320   1.859  0.5811  2.4765  0.0622
 2879TIP3   OH230051   5.763   2.626   2.588  0.1389  0.0140 -0.2825
 2879TIP3    H130052   5.754   2.681   2.510  1.0133  1.5101  0.6273
 2879TIP3    H230053   5.672   2.608   2.615 -0.1691  0.7633 -0.7878
 2880TIP3   OH230054   5.604   1.706  12.800 -0.1986  0.1495  0.3041
 2880TIP3    H130055   5.575   1.794  12.826 -2.1745 -0.3823  0.0693
 2880TIP3    H230056   5.538   1.648  12.838  2.2931 -1.4973  2.4444
 2881TIP3   OH230057   3.659   0.265  12.968 -0.5455  0.1528  0.3858
 2881TIP3    H130058   3.626   0.341  12.922  0.5373 -0.0528 -0.7686
 2881TIP3    H230059   3.642   0.191  12.910  1.4449 -0.0223 -0.0379
 2882TIP3   OH230060   1.811   3.498  12.681 -0.0742 -0.1742  0.1424
 2882TIP3    H130061   1.785   3.411  12.650  0.1143  0.1086 -0.8476
 2882TIP3    H230062   1.749   3.518  12.752 -0.0804 -1.1324  0.4216
 2883TIP3   OH230063   3.992   5.527  16.810  0.0610  0.5143  0.1183
 2883TIP3    H130064   4.023   5.495  16.726 -1.6697  1.9331 -1.1166
 2883TIP3    H230065   3.899   5.505  16.812 -0.0999  1.2050  1.3198
 2884TIP3   OH230066   2.107   1.168  14.133  0.4851  0.6986  0.7751
 2884TIP3    H130067   2.194   1.173  14.094  1.1535  1.5904  2.2994
 2884TIP3    H230068   2.114   1.100  14.200 -0.0623  0.6095  0.7455
 2885TIP3   OH230069   0.515   2.710   0.652 -0.0478 -0.0603  0.9724
 2885TIP3    H130070   0.522   2.704   0.557 -2.2358 -0.6513  0.7896
 2885TIP3    H230071   0.551   2.627   0.684  2.5779  0.9497  0.8625
 2886TIP3   OH230072   4.279   6.116   1.017 -0.4948  0.1584 -0.3907
 2886TIP3    H130073   4.188   6.096   1.040 -0.1192 -2.0655 -0.6091
 2886TIP3    H230074   4.310   6.170   1.090 -0.7590 -2.6347  1.9921
 2887TIP3   OH230075   1.501   3.385  15.524 -0.0615 -0.1892 -0.2335
 2887TIP3    H130076   1.547   3.311  15.563 -0.3361 -0.3867 -0.2754
 2887TIP3    H230077   1.566   3.428  15.469  0.4503  0.3386  0.7616
 2888TIP3   OH230078   2.442   5.781   3.697 -0.5563 -0.2382 -0.4145
 2888TIP3    H130079   2.475   5.709   3.751  0.8078 -0.4660 -1.4990
 2888TIP3    H230080   2.353   5.797   3.730 -0.3127 -1.3645  0.8730
 2889TIP3   OH230081   2.285   5.850  12.812 -0.3106 -0.0659 -0.1244
 2889TIP3    H130082   2.195   5.879  12.796 -1.0650 -1.3685  1.5043
 2889TIP3    H230083   2.288   5.828  12.905  1.5865 -0.4698 -0.2291
 2890TIP3   OH230084   5.269   0.259   5.049 -0.6062  0.0759  0.0234
 2890TIP3    H130085   5.197   0.249   5.111 -0.0004 -2.3099  0.4628
 2890TIP3    H230086   5.227   0.276   4.965 -1.7103 -1.2441  0.2802
 2891TIP3   OH230087   5.477   1.209  14.790  0.7622  0.2477  0.4115
 2891TIP3    H130088   5.495   1.212  14.884  0.3654  1.4801  0.4648
 2891TIP3    H230089   5.386   1.237  14.782  0.8247  0.2520 -0.3401
 2892TIP3   OH230090   0.771   3.823   4.589 -0.3097 -0.8804 -0.2125
 2892TIP3    H130091   0.798   3.759   4.654  0.4814  0.2699  0.6325
 2892TIP3    H230092   0.731   3.771   4.519  0.3772 -2.2894  0.4013
 2893TIP3   OH230093   2.553   0.785   4.776 -0.0961  0.2414 -0.3009
 2893TIP3    H130094   2.491   0.717   4.804  0.4050 -1.6840 -3.3750
 2893TIP3    H230095   2.570   0.766   4.684  0.9973  3.9319 -1.0434
 2894TIP3   OH230096   1.237   1.808  11.776  0.2517 -0.0972 -0.0334
 2894TIP3    H130097   1.312   1.828  11.720 -0.6524 -0.9799 -1.6324
 2894TIP3    H230098   1.200   1.893  11.798  0.6243  0.2620 -0.7688
 2895TIP3   OH230099   2.823   1.725   0.977  0.3877  0.5456 -0.1270
 2895TIP3    H130100   2.756   1.697   1.040  1.0858  0.6939  0.7145
 2895TIP3    H230101   2.774   1.765   0.905 -0.4804 -0.4066 -0.0858
 2896TIP3   OH230102   5.174   0.947   6.045  0.0875 -0.2221 -0.1306
 2896TIP3    H130103   5.255   0.898   6.032  0.1201 -0.0374 -0.6929
 2896TIP3    H230104   5.132   0.946   5.958 -0.5811 -0.4408  0.1881
 2897TIP3   OH230105   0.877   0.356  13.708 -0.0960  0.2598  0.3016
 2897TIP3    H130106   0.878   0.333  13.615  0.6048  1.0784  0.0880
 2897TIP3    H230107   0.817   0.430  13.714  0.1242  0.4314  0.4362
 2898TIP3   OH230108   6.416   0.605   2.087  0.1191  0.2066 -0.0444
 2898TIP3    H130109   6.459   0.532   2.043  0.2407  1.4791 -2.1893
 2898TIP3    H230110   6.334   0.567   2.121  1.3607 -1.4805  1.2801
 2899TIP3   OH230111   3.730   0.585  12.595  0.5637 -0.0940 -0.6950
 2899TIP3    H130112   3.735   0.635  12.514  0.3599 -0.7532 -1.1253
 2899TIP3    H230113   3.817   0.546  12.605  0.6038  0.0265 -0.5693
 2900TIP3   OH230114   1.317   6.401  12.513 -0.2110  0.1141  0.7308
 2900TIP3    H130115   1.364   6.321  12.491 -0.6841 -0.0344  0.2300
 2900TIP3    H230116   1.345   6.465  12.447 -1.0761 -0.1212  0.1135
 2901TIP3   OH230117   5.245   3.376   2.791 -0.0442 -0.4507  0.9747
 2901TIP3    H130118   5.244   3.413   2.703 -0.2433  3.0940  2.3256
 2901TIP3    H230119   5.333   3.339   2.800  0.7409  1.0468 -0.0493
 2902TIP3   OH230120   0.252   3.535  17.108 -0.0868  0.3646 -0.2587
 2902TIP3    H130121   0.175   3.479  17.112 -0.4548  0.8103 -1.1066
 2902TIP3    H230122   0.307   3.496  17.040  0.3276  0.2043  0.1558
 2903TIP3   OH230123   3.612   4.761   0.883  0.4599  0.2716 -0.1821
 2903TIP3    H130124   3.689   4.749   0.939  0.4546 -0.2603 -0.2786
 2903TIP3    H230125   3.641   4.821   0.815  0.9185 -0.2410 -0.4474
 2904TIP3   OH230126   2.294   3.804  12.955 -0.2068  0.4194 -0.0893
 2904TIP3    H130127   2.284   3.737  13.023  1.7643 -0.5915 -0.7281
 2904TIP3    H230128   2.228   3.782  12.890 -0.3669 -0.2071  0.2729
 2905TIP3   OH230129   2.999   4.759  13.705  0.0239 -0.1270  0.1641
 2905TIP3    H130130   2.994   4.759  13.609 -0.5065  1.4500  0.1467
 2905TIP3    H230131   3.075   4.814  13.724 -2.5493  3.7072  0.5748
 2906TIP3   OH230132   0.685   5.591   5.877 -0.4856  0.4259  0.3923
 2906TIP3    H130133   0.674   5.679   5.842 -0.9846  0.2173  0.0107
 2906TIP3    H230134   0.743   5.547   5.815 -1.5505 -0.0149 -0.3312
 2907TIP3   OH230135   0.652   3.228   5.645 -0.2096 -0.6668  0.0721
 2907TIP3    H130136   0.629   3.187   5.561  0.2081  0.0314 -0.3998
 2907TIP3    H230137   0.574   3.278   5.669 -0.3970 -1.0162  0.1942
 2908TIP3   OH230138   3.329   5.800  11.084 -0.3029 -0.2777 -0.4170
 2908TIP3    H130139   3.291   5.760  11.162 -1.2068  2.0985  0.4412
 2908TIP3    H230140   3.414   5.757  11.074 -1.2849 -2.5315  0.2482
 2909TIP3   OH230141   0.695   6.300  15.719  0.4595 -0.0133 -0.4403
 2909TIP3    H130142   0.610   6.330  15.685 -0.3575 -1.8759 -0.1809
 2909TIP3    H230143   0.760   6.348  15.668 -0.7561  0.6952 -1.3721
 2910TIP3   OH230144   5.820   6.390   1.162 -0.2677 -0.2210 -0.0888
 2910TIP3    H130145   5.809   6.343   1.244  1.3983 -2.9091 -1.2723
 2910TIP3    H230146   5.731   6.406   1.131 -1.0766  2.8373  3.1055
 2911TIP3   OH230147   0.221   0.330  14.060 -0.2584 -0.1800 -0.1444
 2911TIP3    H130148   0.265   0.349  13.977 -1.3437  0.9173 -0.4926
 2911TIP3    H230149   0.136   0.373  14.053 -0.1425  0.4802  1.7722
 2912TIP3   OH230150   3.182   4.042  17.293  0.3607  0.1653 -0.1036
 2912TIP3    H130151   3.243   3.968  17.294  0.6921  0.4355  0.6516
 2912TIP3    H230152   3.232   4.114  17.332 -0.1938  0.6018 -0.1905
 2913TIP3   OH230153   2.557   0.330   5.777  0.3371 -0.6728  0.0550
 2913TIP3    H130154   2.490   0.294   5.834 -0.1074 -0.5923 -0.4084
 2913TIP3    H230155   2.531   0.421   5.764  0.6656 -0.5754  0.0572
 2914TIP3   OH230156   3.637   0.688   0.546  0.2150  0.4530 -0.3854
 2914TIP3    H130157   3.678   0.706   0.630 -0.8901  2.2848 -0.1971
 2914TIP3    H230158   3.688   0.738   0.482 -0.6949  1.4591 -0.3634
 2915TIP3   OH230159   2.041   6.301  14.373 -0.5615 -0.2717 -0.3654
 2915TIP3    H130160   2.049   6.396  14.386  2.0297 -0.5269  0.6126
 2915TIP3    H230161   2.067   6.286  14.282  0.8807 -0.1660  0.0080
 2916TIP3   OH230162   4.624   6.047   3.971  0.0229 -0.1070 -0.3986
 2916TIP3    H130163   4.565   6.007   4.035 -1.9117  0.8775 -1.4788
 2916TIP3    H230164   4.617   6.141   3.987  1.4812  0.0439 -0.4519
 2917TIP3   OH230165   0.326   4.587   3.676 -0.3127 -0.2001 -0.2247
 2917TIP3    H130166   0.231   4.579   3.680 -0.2908 -0.7448 -0.6854
 2917TIP3    H230167   0.350   4.543   3.595  0.1633  1.4967 -1.0546
 2918TIP3   OH230168   6.217   0.442   1.171  0.3354  0.5002  0.4899
 2918TIP3    H130169   6.128   0.414   1.191  0.3090 -0.5719 -1.0132
 2918TIP3    H230170   6.207   0.527   1.128 -0.0201  0.0021 -0.4163
 2919TIP3   OH230171   5.658   4.670   5.703  0.0131 -0.0415 -0.2404
 2919TIP3    H130172   5.681   4.610   5.631  1.2447 -0.5641  0.5426
 2919TIP3    H230173   5.670   4.757   5.666  2.3625 -0.2840 -0.2265
 2920TIP3   OH230174   3.032   3.409   1.256 -0.4659 -0.1278  0.5947
 2920TIP3    H130175   3.079   3.336   1.216  1.0070  2.2845 -2.5576
 2920TIP3    H230176   3.078   3.427   1.338 -0.1119 -1.9106  0.8088
 2921TIP3   OH230177   4.938   4.316  15.261  0.0877 -0.2436  0.0965
 2921TIP3    H130178   4.942   4.301  15.356 -0.3061 -2.9593 -0.2237
 2921TIP3    H230179   4.935   4.228  15.223  1.3333  0.7258 -2.5203
 2922TIP3   OH230180   0.040   5.999  12.507  0.0889 -0.0227  0.2807
 2922TIP3    H130181   0.022   5.905  12.498  1.2472 -0.2067 -0.2802
 2922TIP3    H230182  -0.045   6.041  12.492 -0.4838 -0.9775  0.7114
 2923TIP3   OH230183   2.812   5.120  16.032  0.1563 -0.0820  0.3365
 2923TIP3    H130184   2.854   5.074  16.104  0.8436  1.5936  1.0543
 2923TIP3    H230185   2.881   5.132  15.967 -0.1355 -0.4337 -0.0503
 2924TIP3   OH230186   0.790   3.590  15.271 -0.5427 -0.1171  0.2199
 2924TIP3    H130187   0.808   3.516  15.330 -1.3585 -0.8819 -0.4619
 2924TIP3    H230188   0.714   3.633  15.310  0.6745  1.1404  1.2985
 2925TIP3   OH230189   3.218   3.512   4.919  0.3302 -0.2728  0.4815
 2925TIP3    H130190   3.130   3.548   4.911  0.4318 -0.4432 -2.9157
 2925TIP3    H230191   3.276   3.587   4.905  0.6314 -0.7157 -0.7561
 2926TIP3   OH230192   6.501   1.825  11.622 -0.1194  0.2588  0.2350
 2926TIP3    H130193   6.448   1.815  11.543  1.2588  1.9259 -0.9698
 2926TIP3    H230194   6.518   1.735  11.651  1.1198 -0.5232 -2.6116
 2927TIP3   OH230195   4.863   6.091  15.660 -0.6420 -0.1569  0.2178
 2927TIP3    H130196   4.870   6.136  15.744 -0.6233 -0.2494  0.2665
 2927TIP3    H230197   4.784   6.127  15.619 -1.2984 -0.9345  0.7720
 2928TIP3   OH230198   6.581   5.280  12.033 -0.2260  0.1977 -0.1360
 2928TIP3    H130199   6.600   5.188  12.053 -0.0712  0.2324 -0.1203
 2928TIP3    H230200   6.493   5.294  12.065 -0.4798 -0.1118 -0.6760
 2929TIP3   OH230201   4.491   0.485   0.932  0.7013 -0.4745  0.0415
 2929TIP3    H130202   4.499   0.392   0.951 -1.5589 -0.9001 -0.8141
 2929TIP3    H230203   4.555   0.501   0.862  0.4237 -1.6069 -0.4873
 2930TIP3   OH230204   1.135   1.673  14.282 -0.0167 -0.4358 -0.4447
 2930TIP3    H130205   1.128   1.662  14.376  1.0746 -1.5564 -0.4727
 2930TIP3    H230206   1.225   1.648  14.261  0.4650  1.9213 -1.5211
 2931TIP3   OH230207   3.969   0.004  14.490 -0.0811 -0.5854  0.1361
 2931TIP3    H130208   4.000  -0.035  14.571  0.0797 -1.6578 -0.4186
 2931TIP3    H230209   4.048   0.027  14.442 -0.1726 -0.3039  0.1174
 2932TIP3   OH230210   2.689   5.331   0.489 -0.0517  0.4774 -0.1177
 2932TIP3    H130211   2.652   5.274   0.422  0.9764  0.0200 -0.3264
 2932TIP3    H230212   2.618   5.344   0.552 -1.4689  2.0105 -1.9245
 2933TIP3   OH230213   5.000   0.748   3.202  0.0222  0.1036 -0.1335
 2933TIP3    H130214   5.074   0.785   3.153 -0.9608 -0.5421 -2.2101
 2933TIP3    H230215   4.970   0.675   3.149 -1.7299 -0.0464  0.9813
 2934TIP3   OH230216   3.013   1.120   0.579 -0.1631  0.0770  0.5497
 2934TIP3    H130217   2.926   1.080   0.574 -0.4272  0.7337 -0.3247
 2934TIP3    H230218   3.053   1.103   0.493 -0.0982  1.2582  0.3298
 2935TIP3   OH230219   4.295   3.728  15.276  0.4274  0.6486 -0.2252
 2935TIP3    H130220   4.379   3.750  15.316 -0.2583 -0.4089  1.9620
 2935TIP3    H230221   4.242   3.695  15.349 -1.5569  0.3646 -1.7221
 2936TIP3   OH230222   2.528   3.551   4.795  0.0860  0.0202 -0.0406
 2936TIP3    H130223   2.516   3.476   4.854  1.0845 -1.4217 -1.5740
 2936TIP3    H230224   2.468   3.617   4.828  1.5542 -0.1354  3.4550
 2937TIP3   OH230225   6.042   1.357   1.219 -0.0007 -0.0756 -0.0046
 2937TIP3    H130226   6.042   1.452   1.221 -1.4190 -0.0424 -0.5593
 2937TIP3    H230227   5.958   1.331   1.256  0.1563 -1.0912 -0.3137
 2938TIP3   OH230228   1.154   2.080  11.712 -0.4429  0.2174 -0.6911
 2938TIP3    H130229   1.087   2.116  11.654  0.9863  0.4797 -2.2670
 2938TIP3    H230230   1.232   2.073  11.656  1.9046  3.1636  1.8537
 2939TIP3   OH230231   2.427   2.509  14.380 -0.0096 -0.2111  0.0328
 2939TIP3    H130232   2.422   2.514  14.475 -1.2975  1.6737 -0.0678
 2939TIP3    H230233   2.517   2.481  14.362  0.0618 -1.2578  1.7857
 2940TIP3   OH230234   2.803   0.759  11.480 -0.4061 -0.5913  0.1411
 2940TIP3    H130235   2.721   0.759  11.432 -0.7493  0.0471  0.7082
 2940TIP3    H230236   2.778   0.779  11.570  0.2392 -1.6096  0.5648
 2941TIP3   OH230237   3.771   5.603  11.626 -0.1311 -0.2513 -0.3187
 2941TIP3    H130238   3.793   5.518  11.664  0.0214 -0.4284 -0.7929
 2941TIP3    H230239   3.680   5.593  11.597  0.4745 -0.9261 -2.1484
 2942TIP3   OH230240   1.740   5.984  16.297 -0.0955  0.0031  0.2130
 2942TIP3    H130241   1.673   6.018  16.356  0.4299  1.6378 -0.0723
 2942TIP3    H230242   1.733   6.039  16.219  0.2245 -1.1433 -0.6475
 2943TIP3   OH230243   1.797   2.088  16.601 -0.1727 -0.1842  0.5277
 2943TIP3    H130244   1.853   2.150  16.648  2.0234 -0.7187 -1.2237
 2943TIP3    H230245   1.743   2.143  16.545 -0.4155  0.2809  1.2073
 2944TIP3   OH230246   2.541   1.738   0.147 -0.5270  0.0869 -0.2509
 2944TIP3    H130247   2.602   1.779   0.086  0.0826 -1.4247 -0.6776
 2944TIP3    H230248   2.543   1.796   0.224  2.9765 -0.9063  0.5698
 2945TIP3   OH230249   5.552   5.674   3.014  0.5583  0.4480  0.2522
 2945TIP3    H130250   5.590   5.654   3.099 -0.5572 -2.0142  0.2598
 2945TIP3    H230251   5.605   5.624   2.952 -1.3559 -1.4452  0.0578
 2946TIP3   OH230252   1.538   0.172  13.288  0.8044 -0.2755 -0.0987
 2946TIP3    H130253   1.481   0.241  13.251  2.3284  0.7168 -0.6904
 2946TIP3    H230254   1.493   0.145  13.368 -0.3214  0.7196 -0.3543
 2947TIP3   OH230255   6.619   5.463   4.860 -0.3174 -0.3443  0.1360
 2947TIP3    H130256   6.577   5.486   4.943 -1.7902 -2.0485 -0.0773
 2947TIP3    H230257   6.699   5.417   4.886  1.2673  2.4297  0.5453
 2948TIP3   OH230258   3.899   5.920   0.039 -0.0931 -0.1930 -0.4090
 2948TIP3    H130259   3.985   5.897   0.004 -0.2768 -0.1018 -0.9341
 2948TIP3    H230260   3.904   5.900   0.132 -0.3668 -2.8002 -0.8779
 2949TIP3   OH230261   5.643   2.418  13.334 -0.0333 -0.9470 -0.2781
 2949TIP3    H130262   5.736   2.403  13.349  0.1949 -1.9212 -2.2687
 2949TIP3    H230263   5.606   2.331  13.322 -0.9587 -0.5084 -0.7400
 2950TIP3   OH230264   1.340   3.121   1.868  0.6250  0.0888  0.0572
 2950TIP3    H130265   1.301   3.062   1.804  0.3287 -0.0074  0.3217
 2950TIP3    H230266   1.432   3.128   1.841  0.8486 -1.0768  0.4337
 2951TIP3   OH230267   1.553   5.262  13.932 -0.7408 -0.5990  0.7107
 2951TIP3    H130268   1.567   5.169  13.915  0.9586 -0.2354 -0.0694
 2951TIP3    H230269   1.463   5.278  13.904 -0.1284 -1.4126 -1.9913
 2952TIP3   OH230270   1.398   2.585  14.968 -0.2340 -0.1914  0.2711
 2952TIP3    H130271   1.345   2.645  15.020  0.1073 -0.7903  1.3266
 2952TIP3    H230272   1.356   2.500  14.978 -0.6170 -0.1849 -1.0852
 2953TIP3   OH230273   5.123   3.478  11.978  0.4755  0.0600 -0.4830
 2953TIP3    H130274   5.214   3.496  12.002  0.2378  0.8406 -0.1260
 2953TIP3    H230275   5.084   3.440  12.056  0.6504 -0.8801 -0.8399
 2954TIP3   OH230276   4.486   1.312  14.265  0.1599  0.6557 -0.7406
 2954TIP3    H130277   4.436   1.230  14.272  1.8400 -0.4186 -0.6041
 2954TIP3    H230278   4.501   1.339  14.355 -0.0324  0.8757 -0.7756
 2955TIP3   OH230279   4.375   4.994   5.507  0.4133  0.0698 -0.0033
 2955TIP3    H130280   4.470   4.991   5.517  0.5440  2.0666 -0.2351
 2955TIP3    H230281   4.358   5.079   5.464 -1.4083 -0.6006 -0.7160
 2956TIP3   OH230282   2.553   1.456   4.057  0.0472 -0.5829  0.3311
 2956TIP3    H130283   2.567   1.499   4.142 -0.3077 -1.2787  0.7514
 2956TIP3    H230284   2.486   1.391   4.075 -1.0015  0.1471 -0.7843
 2957TIP3   OH230285   3.200   4.627  16.271  0.4459  0.2416  0.1161
 2957TIP3    H130286   3.106   4.627  16.254  0.0914 -2.7607  1.4852
 2957TIP3    H230287   3.240   4.605  16.187 -0.1399  0.4862 -0.2270
 2958TIP3   OH230288   1.844   1.278   5.023  0.0049  0.1706 -0.3393
 2958TIP3    H130289   1.859   1.365   5.058 -1.4572  0.1335  0.4872
 2958TIP3    H230290   1.774   1.242   5.078  0.2547 -1.3412 -0.9539
 2959TIP3   OH230291   5.926   0.490  12.175 -0.1175 -0.4075  0.0975
 2959TIP3    H130292   5.869   0.511  12.101  1.5703 -1.4218 -1.5930
 2959TIP3    H230293   5.917   0.396  12.186 -0.8419 -0.1749  1.6631
 2960TIP3   OH230294   4.894   3.637   4.796 -0.5173  0.3402  0.5623
 2960TIP3    H130295   4.869   3.638   4.704 -0.3063  0.9945  0.5074
 2960TIP3    H230296   4.894   3.545   4.820 -1.1040  0.2058  0.0519
 2961TIP3   OH230297   2.259   6.208   1.402  0.1448  0.2915 -0.1800
 2961TIP3    H130298   2.244   6.185   1.310  2.3141 -2.1893 -0.0273
 2961TIP3    H230299   2.260   6.304   1.403 -1.9162  0.4243 -2.3421
 2962TIP3   OH230300   3.254   3.158   5.549 -0.2165 -0.3074  0.4208
 2962TIP3    H130301   3.194   3.110   5.606 -1.7764 -0.5708 -1.3476
 2962TIP3    H230302   3.228   3.250   5.559 -0.6504 -0.3778 -0.0230
 2963TIP3   OH230303   3.003   3.581  16.256  0.6059  0.5461 -0.2568
 2963TIP3    H130304   3.001   3.551  16.347  0.6915 -0.3700 -0.5420
 2963TIP3    H230305   3.011   3.676  16.262  1.2327  0.4508  0.6968
 2964TIP3   OH230306   0.337   4.269   2.581  0.2412 -0.1865 -0.1225
 2964TIP3    H130307   0.398   4.334   2.613 -2.1567  0.9467  2.5907
 2964TIP3    H230308   0.349   4.193   2.639  0.0239 -0.4795 -0.4525
 2965TIP3   OH230309   2.627   6.618   2.220  0.1748 -0.4754 -0.3588
 2965TIP3    H130310   2.690   6.549   2.201 -0.0237 -0.4627 -1.0918
 2965TIP3    H230311   2.543   6.573   2.228  0.1831 -0.4244  0.0710
 2966TIP3   OH230312   1.706   5.949   3.235  0.7758  0.0337  0.4174
 2966TIP3    H130313   1.783   5.970   3.182 -0.4045 -0.4702 -1.5946
 2966TIP3    H230314   1.669   6.034   3.259 -0.5198  0.3955 -2.4652
 2967TIP3   OH230315   3.859   0.648   1.547 -0.5015  0.2742  0.2241
 2967TIP3    H130316   3.770   0.663   1.515 -0.5355  1.2042  0.7409
 2967TIP3    H230317   3.884   0.729   1.590  0.0523 -0.4797  1.3804
 2968TIP3   OH230318   3.289   4.167   4.441 -0.9121 -0.1910 -0.4234
 2968TIP3    H130319   3.231   4.193   4.512 -1.4468  1.2297 -1.3495
 2968TIP3    H230320   3.235   4.171   4.363  0.6046  2.0898 -1.4566
 2969TIP3   OH230321   6.579   2.247   2.041  0.2133  0.4472  0.2186
 2969TIP3    H130322   6.582   2.152   2.053 -0.9174  0.4072  0.2382
 2969TIP3    H230323   6.540   2.280   2.122  1.5075  1.0321  0.6348
 2970TIP3   OH230324   2.809   0.056  16.644  0.4068 -0.0215  0.2673
 2970TIP3    H130325   2.744  -0.001  16.601  2.4670 -1.7256 -0.8371
 2970TIP3    H230326   2.875  -0.005  16.677  0.9924  1.5801  2.2164
 2971TIP3   OH230327   4.144   6.038  14.830 -0.0103  0.1968  0.0376
 2971TIP3    H130328   4.101   6.003  14.751 -0.5544 -0.9567  0.8236
 2971TIP3    H230329   4.235   6.010  14.822 -0.3471 -1.0983  0.4462
 2972TIP3   OH230330   5.764   6.733   4.466  0.5915 -0.0626 -0.6802
 2972TIP3    H130331   5.703   6.771   4.529 -1.2602 -1.2193 -1.7141
 2972TIP3    H230332   5.844   6.784   4.477 -0.2034  0.8315  1.4426
 2973TIP3   OH230333   5.650   2.139   3.289 -0.0471  0.4439  0.1979
 2973TIP3    H130334   5.730   2.107   3.248  0.1560  0.9549  0.1914
 2973TIP3    H230335   5.614   2.201   3.226 -1.7859 -1.5868 -0.9380
 2974TIP3   OH230336   5.481   0.009   3.315 -0.5302  0.3989  0.2360
 2974TIP3    H130337   5.405  -0.047   3.300 -0.2947  0.0041  0.5163
 2974TIP3    H230338   5.550  -0.030   3.262  0.1645 -0.6964  1.9040
 2975TIP3   OH230339   1.793   0.425   0.777  0.0901  0.3988 -0.2197
 2975TIP3    H130340   1.819   0.494   0.838  1.0537 -0.8154  0.7909
 2975TIP3    H230341   1.708   0.395   0.809  1.0619 -0.9626  1.2428
 2976TIP3   OH230342   1.536   2.288  14.797 -0.5258 -0.6329 -0.3263
 2976TIP3    H130343   1.532   2.198  14.764  0.3165 -1.3975  1.5585
 2976TIP3    H230344   1.466   2.294  14.861 -1.0859  0.3363 -0.9876
 2977TIP3   OH230345   0.583   0.581   1.545  0.2474  0.0763 -0.2449
 2977TIP3    H130346   0.546   0.666   1.570  0.5402  0.5123 -1.2514
 2977TIP3    H230347   0.666   0.602   1.503 -0.4773 -0.5328 -2.1319
 2978TIP3   OH230348   6.429   5.174   5.005  0.4270  0.5814 -0.2349
 2978TIP3    H130349   6.510   5.125   4.988  2.1918  2.4025  2.2281
 2978TIP3    H230350   6.391   5.130   5.081  0.8885  1.6553  0.6431
 2979TIP3   OH230351   6.708   5.542  16.098  0.1694 -0.3799  0.5795
 2979TIP3    H130352   6.683   5.578  16.184 -1.0047  1.4264 -0.4442
 2979TIP3    H230353   6.769   5.606  16.062 -0.9070 -0.0240 -0.7232
 2980TIP3   OH230354   2.224   0.624   3.470 -0.2756  0.1981  0.3989
 2980TIP3    H130355   2.182   0.646   3.387 -0.0094 -0.1946  0.1558
 2980TIP3    H230356   2.256   0.707   3.504  0.8632  0.1947 -0.5903
 2981TIP3   OH230357   5.773   2.297  12.326 -0.6232  0.1412 -0.1377
 2981TIP3    H130358   5.742   2.207  12.328  0.3558 -0.3682 -2.8351
 2981TIP3    H230359   5.712   2.345  12.383 -1.2939 -2.1396  1.1852
 2982TIP3   OH230360   6.320   5.975   6.017 -0.4569 -0.4726 -0.8833
 2982TIP3    H130361   6.395   6.028   6.043  0.3166 -2.1363  0.5541
 2982TIP3    H230362   6.357   5.907   5.960 -1.2353 -0.1194 -1.8338
 2983TIP3   OH230363   0.648   4.339   5.593 -0.3436  0.1044 -0.0777
 2983TIP3    H130364   0.603   4.310   5.514  0.5918 -0.2424 -0.5049
 2983TIP3    H230365   0.740   4.314   5.579 -0.1060  0.2983  0.9901
 2984TIP3   OH230366   4.546   6.084   0.151  0.7511 -0.0654 -0.0166
 2984TIP3    H130367   4.484   6.156   0.142  0.2844 -0.3299  1.0023
 2984TIP3    H230368   4.531   6.050   0.239  2.3453 -0.1304  0.2716
 2985TIP3   OH230369   2.751   1.182  14.764  0.2735 -0.1372  0.0590
 2985TIP3    H130370   2.789   1.167  14.677 -0.4333 -0.0515 -0.2745
 2985TIP3    H230371   2.769   1.101  14.812  0.3692 -0.3228 -0.2836
 2986TIP3   OH230372   2.158   2.691  16.802  0.3235  0.4786  0.4485
 2986TIP3    H130373   2.101   2.684  16.726 -0.5711  1.6483  0.9750
 2986TIP3    H230374   2.228   2.627  16.787 -0.9013 -0.7013 -0.4101
 2987TIP3   OH230375   2.871   2.013  13.540 -0.5132 -0.0750  0.3261
 2987TIP3    H130376   2.932   1.939  13.532  1.1384  0.9391  2.5241
 2987TIP3    H230377   2.855   2.040  13.449  0.4870 -1.8267 -0.4267
 2988TIP3   OH230378   0.232   1.458  13.653  0.2678 -0.2225 -0.1761
 2988TIP3    H130379   0.214   1.413  13.570  0.8093 -1.3626  0.2959
 2988TIP3    H230380   0.305   1.516  13.634 -0.0837  0.0612 -0.6743
 2989TIP3   OH230381   4.502   4.305   4.019  0.3774 -0.4371 -0.5684
 2989TIP3    H130382   4.465   4.221   3.995 -1.9118  0.4646 -0.4632
 2989TIP3    H230383   4.523   4.297   4.112  1.4266 -1.2792 -0.8629
 2990TIP3   OH230384   2.521   2.168  13.505  0.3395 -0.0344 -0.5156
 2990TIP3    H130385   2.517   2.241  13.443  0.1453  0.3079 -0.0985
 2990TIP3    H230386   2.595   2.115  13.473  1.4764  1.1536  0.0538
 2991TIP3   OH230387   0.195   3.397   1.636 -0.7720  0.1696 -0.5803
 2991TIP3    H130388   0.272   3.366   1.588  0.8028  2.2740  0.4376
 2991TIP3    H230389   0.165   3.473   1.587  0.3372  1.8235  1.1559
 2992TIP3   OH230390   4.946   4.534  13.542  0.1339  0.4224  0.5624
 2992TIP3    H130391   4.991   4.619  13.547 -0.9580  0.9659  1.5340
 2992TIP3    H230392   4.887   4.543  13.468 -0.7270  0.9144  1.2813
 2993TIP3   OH230393   5.044   0.637  11.083 -0.1104 -0.0973  0.2348
 2993TIP3    H130394   4.951   0.633  11.062 -0.1306  1.2103 -0.0401
 2993TIP3    H230395   5.055   0.722  11.125  0.7169 -0.8383  1.6013
 2994TIP3   OH230396   2.091   3.427  12.786  0.2462 -0.1896  0.5371
 2994TIP3    H130397   2.021   3.361  12.787 -0.0930  0.1634  0.2590
 2994TIP3    H230398   2.047   3.508  12.763  0.2551  0.6539  3.2343
 2995TIP3   OH230399   2.947   6.717  11.456 -0.5861  0.2854 -0.1328
 2995TIP3    H130400   3.036   6.704  11.425 -1.6620  0.2880 -3.7077
 2995TIP3    H230401   2.932   6.811  11.448 -1.2133  0.1551 -0.6215
 2996TIP3   OH230402   5.133   0.020   1.418  0.0323 -0.8090 -0.0549
 2996TIP3    H130403   5.061  -0.039   1.399  0.2914 -0.8759 -0.8751
 2996TIP3    H230404   5.201  -0.036   1.455  0.0815 -0.9334 -0.3351
 2997TIP3   OH230405   2.905   4.771   5.750  0.2460 -0.0490  0.3658
 2997TIP3    H130406   2.949   4.730   5.676 -0.9000 -1.3384  0.3576
 2997TIP3    H230407   2.823   4.805   5.714  0.3905  0.7119  0.7339
 2998TIP3   OH230408   6.756   5.138   3.545  0.1274  0.4567 -0.1397
 2998TIP3    H130409   6.698   5.062   3.535 -1.3806  1.2547  1.6927
 2998TIP3    H230410   6.700   5.203   3.588  2.6044  0.9608  2.6345
 2999TIP3   OH230411   6.296   2.947  13.941 -0.5722  0.4039  0.4255
 2999TIP3    H130412   6.327   2.906  13.860  0.0712 -0.8005  1.2430
 2999TIP3    H230413   6.336   3.034  13.941  0.1324  0.0888 -0.1316
 3000TIP3   OH230414   4.333   0.216   4.847  0.3448 -0.2011 -0.0684
 3000TIP3    H130415   4.428   0.210   4.848  0.3495 -0.1242 -0.0917
 3000TIP3    H230416   4.312   0.262   4.766  0.4398  2.4850  1.3233
 3001TIP3   OH230417   6.388   3.128   4.417  0.3065 -0.3307  0.2088
 3001TIP3    H130418   6.347   3.214   4.428  1.4013  0.5506 -2.0462
 3001TIP3    H230419   6.475   3.138   4.456  0.6470 -0.1906 -0.5553
 3002TIP3   OH230420   4.503   2.834  16.184  0.0062  0.2132 -0.1666
 3002TIP3    H130421   4.567   2.839  16.112 -1.3190  0.6083 -1.3583
 3002TIP3    H230422   4.515   2.915  16.232  0.5787  0.1626 -0.2094
 3003TIP3   OH230423   2.716   3.252  16.845 -0.1453 -0.1631 -0.6046
 3003TIP3    H130424   2.738   3.160  16.852 -1.5133 -0.3602  2.6474
 3003TIP3    H230425   2.628   3.253  16.807  0.6321 -0.0051 -2.5264
 3004TIP3   OH230426   2.385   4.514  14.470  0.4997 -0.2289  0.3573
 3004TIP3    H130427   2.309   4.505  14.527  0.5391 -0.6491  0.3456
 3004TIP3    H230428   2.408   4.424  14.447  1.8253 -0.1955  1.4541
 3005TIP3   OH230429   3.534   1.891  10.990 -0.1750  0.3113 -0.6368
 3005TIP3    H130430   3.560   1.860  11.077 -0.6772  2.2291  0.2463
 3005TIP3    H230431   3.494   1.814  10.948  1.1455 -0.9600  0.3523
 3006TIP3   OH230432   4.236   3.945  12.922  0.1522 -0.2926  0.3119
 3006TIP3    H130433   4.312   3.943  12.979 -1.0539  0.0797  2.0138
 3006TIP3    H230434   4.262   3.893  12.845  1.2900 -2.2329  1.8971
 3007TIP3   OH230435   2.816   3.146   6.252 -0.0190 -0.2617  0.1329
 3007TIP3    H130436   2.904   3.150   6.291 -0.6033  1.1615  1.3884
 3007TIP3    H230437   2.760   3.116   6.323 -0.5554 -1.3526 -0.7185
 3008TIP3   OH230438   0.772   1.392   0.262 -0.4466  0.8242 -0.3477
 3008TIP3    H130439   0.785   1.430   0.349 -1.3399 -1.4385  0.8494
 3008TIP3    H230440   0.699   1.441   0.225  0.2145  2.0962 -0.0282
 3009TIP3   OH230441   3.672   4.118   1.653  0.2342 -0.1065 -0.2167
 3009TIP3    H130442   3.743   4.055   1.652 -0.2347 -0.6298 -0.8044
 3009TIP3    H230443   3.650   4.133   1.561 -0.2806  0.1970 -0.0541
 3010TIP3   OH230444   4.216   2.703   2.296  0.2465 -0.3672  0.2408
 3010TIP3    H130445   4.172   2.761   2.359  0.2935 -0.2476  0.1631
 3010TIP3    H230446   4.209   2.616   2.335 -0.4594 -0.4158  0.0094
 3011TIP3   OH230447   2.516   6.639   4.457 -0.1276 -0.1747  0.4180
 3011TIP3    H130448   2.605   6.665   4.480  0.1155  0.5190 -1.1858
 3011TIP3    H230449   2.459   6.700   4.503  0.3352  0.9887 -0.5116
 3012TIP3   OH230450   4.224   5.639  11.537  0.6956  0.4218  0.0236
 3012TIP3    H130451   4.255   5.555  11.570 -1.0617 -0.5892 -0.7936
 3012TIP3    H230452   4.302   5.681  11.501  1.6042 -0.8221  0.4718
 3013TIP3   OH230453   3.732   1.125  13.111  0.3538 -0.2951  0.1801
 3013TIP3    H130454   3.769   1.043  13.078 -3.0352 -2.2254  0.6573
 3013TIP3    H230455   3.763   1.130  13.202  1.6993 -0.2358 -0.2522
 3014TIP3   OH230456   4.287   3.202  15.769  0.2859 -0.4884  0.6495
 3014TIP3    H130457   4.355   3.160  15.716  0.5341 -1.0978  1.4281
 3014TIP3    H230458   4.223   3.133  15.785  0.0379 -0.2128  0.8491
 3015TIP3   OH230459   5.482   4.544  12.226 -0.5372  0.4846  0.2382
 3015TIP3    H130460   5.479   4.629  12.181  0.1414  0.8535  0.8729
 3015TIP3    H230461   5.396   4.505  12.209 -0.7550  1.1714 -0.3009
 3016TIP3   OH230462   5.211   5.639  15.805 -0.2732  0.7416  0.4323
 3016TIP3    H130463   5.191   5.720  15.853 -1.8981  0.4756  0.2733
 3016TIP3    H230464   5.141   5.579  15.830 -0.0471 -0.0465 -0.7692
 3017TIP3   OH230465   1.008   1.113  14.326 -0.0689  0.2539  0.5151
 3017TIP3    H130466   0.974   1.025  14.306 -3.0188  1.6494 -1.2745
 3017TIP3    H230467   0.972   1.133  14.413 -1.0232  0.3822  0.1056
 3018TIP3   OH230468   0.398   2.462   0.072 -0.0122  0.5364  0.6510
 3018TIP3    H130469   0.407   2.469   0.167  0.1659 -1.6627  0.8680
 3018TIP3    H230470   0.465   2.397   0.047 -0.3899  0.7066 -0.8960
 3019TIP3   OH230471   6.111   6.608  16.184 -0.3108 -0.1395 -0.2393
 3019TIP3    H130472   6.114   6.595  16.090 -0.3089  0.7631 -0.3753
 3019TIP3    H230473   6.144   6.697  16.197 -0.1777 -0.3026  0.6217
 3020TIP3   OH230474   2.322   3.573  11.558 -0.2586 -0.0030 -0.3949
 3020TIP3    H130475   2.289   3.559  11.646  2.6920  0.1244  0.8279
 3020TIP3    H230476   2.327   3.668  11.548 -0.4508 -0.0184 -0.6718
 3021TIP3   OH230477   1.175   1.950  16.949 -0.5851  0.0597 -0.1604
 3021TIP3    H130478   1.256   2.001  16.955 -0.9406  0.6205 -0.0845
 3021TIP3    H230479   1.204   1.862  16.925  0.2572 -0.3648  2.1619
 3022TIP3   OH230480   5.800   4.559   5.508 -0.5022  0.0403 -0.3658
 3022TIP3    H130481   5.811   4.514   5.424 -0.7573  0.2880 -0.5338
 3022TIP3    H230482   5.889   4.567   5.543 -0.4520 -0.5906 -0.3331
 3023TIP3   OH230483   6.216   4.590  14.043 -0.0539  0.0550  0.3390
 3023TIP3    H130484   6.242   4.630  13.961  2.9430 -1.7180  0.2545
 3023TIP3    H230485   6.173   4.508  14.018  0.4959 -0.2881  0.4692
 3024TIP3   OH230486   5.639   6.741  11.219  0.1683  0.0873 -0.0951
 3024TIP3    H130487   5.701   6.803  11.180 -0.1167  0.1247 -0.4969
 3024TIP3    H230488   5.559   6.752  11.168  0.5576 -1.6910 -1.1887
 3025TIP3   OH230489   2.661   4.364   0.074  0.4538 -0.2372  0.1695
 3025TIP3    H130490   2.626   4.311   0.002  1.1220 -0.3230 -0.0944
 3025TIP3    H230491   2.589   4.423   0.097  0.1763 -0.3183 -0.4641
 3026TIP3   OH230492   2.225   3.331  13.013  0.1501  0.2635  0.0394
 3026TIP3    H130493   2.319   3.341  13.030  0.6628 -1.2483 -1.6065
 3026TIP3    H230494   2.212   3.372  12.928 -0.0814 -1.9045 -1.0447
 3027TIP3   OH230495   2.572   5.884  13.048  0.1610  0.0580 -0.0179
 3027TIP3    H130496   2.631   5.850  13.116  0.7862  0.4281 -0.3626
 3027TIP3    H230497   2.530   5.959  13.089 -1.3176 -1.1598  0.7906
 3028TIP3   OH230498   0.515   2.772   3.475 -0.1265  0.7981  0.6231
 3028TIP3    H130499   0.483   2.696   3.524 -0.7778 -0.5375 -1.7484
 3028TIP3    H230500   0.457   2.843   3.503 -0.4559  0.1063  1.7890
 3029TIP3   OH230501   0.579   0.215  11.433  0.1001  0.1195 -0.7511
 3029TIP3    H130502   0.615   0.298  11.403  1.8748 -0.2903  0.1088
 3029TIP3    H230503   0.633   0.148  11.392  0.0473 -0.5404  0.2152
 3030TIP3   OH230504   4.799   4.532   1.263  0.0294 -0.0715 -0.6610
 3030TIP3    H130505   4.861   4.494   1.325 -1.0273  0.1074  0.5598
 3030TIP3    H230506   4.753   4.600   1.314 -2.3661 -1.3791 -0.9364
 3031TIP3   OH230507   6.025   1.817   2.172 -0.2124 -0.2018  0.0522
 3031TIP3    H130508   6.022   1.801   2.266  0.4353  1.1776  0.3420
 3031TIP3    H230509   6.113   1.790   2.146 -0.3413 -0.4457 -0.1350
 3032TIP3   OH230510   3.524   2.292  12.759  0.2143 -0.2618  0.7742
 3032TIP3    H130511   3.466   2.274  12.685  0.4486  1.4362  0.1196
 3032TIP3    H230512   3.598   2.232  12.747  0.0839 -0.2514 -0.1974
 3033TIP3   OH230513   5.443   0.305  15.980  0.3585  0.1795  0.5447
 3033TIP3    H130514   5.474   0.243  16.046  0.9507 -0.7990 -0.6108
 3033TIP3    H230515   5.351   0.318  16.001  0.4950 -0.2401  1.4591
 3034TIP3   OH230516   4.099   3.187   5.161  0.1249  0.2208  0.8924
 3034TIP3    H130517   4.091   3.094   5.183 -0.9721  0.3910  1.2816
 3034TIP3    H230518   4.010   3.213   5.137  0.6985  0.8049 -0.7297
 3035TIP3   OH230519   4.881   0.222  16.369 -0.3952  0.0033  0.7935
 3035TIP3    H130520   4.939   0.290  16.405 -1.9386  0.3566  2.8005
 3035TIP3    H230521   4.884   0.236  16.275  0.8980  1.5447  1.0050
 3036TIP3   OH230522   5.912   6.471   4.495 -0.6633  0.0815 -0.1437
 3036TIP3    H130523   5.837   6.414   4.478 -0.7751  0.3773 -0.6599
 3036TIP3    H230524   5.875   6.559   4.501 -0.6789 -0.0202  2.0021
 3037TIP3   OH230525   3.615   4.231  14.007 -0.4284  0.3797  0.5704
 3037TIP3    H130526   3.643   4.281  13.930 -0.0417 -0.0342  0.4347
 3037TIP3    H230527   3.693   4.229  14.063 -0.2646 -0.5384  0.3245
 3038TIP3   OH230528   1.183   3.925  14.613 -0.0929  0.2113  0.2555
 3038TIP3    H130529   1.170   4.019  14.627 -0.0905  0.2120  0.2537
 3038TIP3    H230530   1.102   3.885  14.644 -0.5054  0.2916 -0.6956
 3039TIP3   OH230531   1.748   5.750  16.148 -0.4204 -0.1430  0.4216
 3039TIP3    H130532   1.701   5.824  16.186 -0.8543 -0.4206  0.4226
 3039TIP3    H230533   1.684   5.679  16.144 -0.6458  0.1100 -1.5993
 3040TIP3   OH230534   0.248   2.836   4.830  0.0697 -0.0850  0.6811
 3040TIP3    H130535   0.198   2.873   4.758  1.7242  0.6109 -0.1588
 3040TIP3    H230536   0.265   2.911   4.888 -0.2440 -0.4134  1.2137
 3041TIP3   OH230537   0.567   1.264   1.032 -0.2626  0.5675  0.0524
 3041TIP3    H130538   0.488   1.246   1.083 -0.3138 -1.7155 -0.7037
 3041TIP3    H230539   0.559   1.208   0.954  2.0319  0.3362 -0.0961
 3042TIP3   OH230540   3.036   3.819  15.336  0.9097  0.0600  0.5625
 3042TIP3    H130541   3.124   3.839  15.368  0.7103  0.3802  0.9191
 3042TIP3    H230542   3.018   3.886  15.270  1.8068 -1.3067 -1.1885
 3043TIP3   OH230543   5.360   2.453  11.549 -0.0159 -0.2983 -0.3047
 3043TIP3    H130544   5.350   2.366  11.589 -0.0707  0.1221  0.6265
 3043TIP3    H230545   5.455   2.467  11.547  0.0999 -1.1241 -2.1434
 3044TIP3   OH230546   0.028   0.416  13.281  0.1650  0.2815  0.6379
 3044TIP3    H130547   0.122   0.400  13.269 -0.2957 -2.6257  0.2048
 3044TIP3    H230548  -0.006   0.333  13.313 -2.7203  0.3329 -1.9117
 3045TIP3   OH230549   4.295   3.959   6.074 -0.3839 -0.5073  0.1473
 3045TIP3    H130550   4.247   3.996   6.000 -1.0558 -0.1858  0.7307
 3045TIP3    H230551   4.387   3.965   6.049 -0.4645  1.6064  0.2236
 3046TIP3   OH230552   2.822   0.351   4.811  0.1168 -0.5452 -0.5535
 3046TIP3    H130553   2.834   0.391   4.897  0.8029  0.3566 -1.0515
 3046TIP3    H230554   2.908   0.356   4.769 -0.7204  1.3038 -2.2218
 3047TIP3   OH230555   5.337   2.592   3.429  0.4496  0.0390 -0.0504
 3047TIP3    H130556   5.276   2.664   3.440 -0.0721 -0.5830  1.3840
 3047TIP3    H230557   5.282   2.516   3.410  0.9815 -0.0329 -1.4225
 3048TIP3   OH230558   5.899   3.997   2.406  0.1290  0.1495 -0.4326
 3048TIP3    H130559   5.823   3.939   2.407  0.3616 -0.2083  1.9239
 3048TIP3    H230560   5.966   3.950   2.455  1.3855  1.0928 -1.1895
 3049TIP3   OH230561   6.299   0.986   0.969 -0.5263  0.0111  0.3332
 3049TIP3    H130562   6.237   1.037   1.022 -0.1410  1.3333 -0.4320
 3049TIP3    H230563   6.377   1.041   0.965 -1.5759  1.6247 -4.2024
 3050TIP3   OH230564   4.470   2.343   4.331 -0.2363  0.0490  0.1107
 3050TIP3    H130565   4.402   2.276   4.324 -0.6441  0.3999  0.6759
 3050TIP3    H230566   4.508   2.346   4.243 -1.4136  0.3303 -0.4189
 3051TIP3   OH230567   6.172   2.393   6.313  0.1192 -0.3916 -0.1212
 3051TIP3    H130568   6.146   2.342   6.236 -1.1861  1.0170 -0.6891
 3051TIP3    H230569   6.089   2.428   6.347  0.7403 -0.4650  1.5713
 3052TIP3   OH230570   5.003   6.134  16.278 -0.4882  0.2301  0.0471
 3052TIP3    H130571   5.052   6.140  16.196 -0.1569  1.0934  0.2939
 3052TIP3    H230572   4.914   6.113  16.252 -0.6762  1.7585 -0.6334
 3053TIP3   OH230573   5.056   3.202   4.206  0.2143  0.1774  0.1708
 3053TIP3    H130574   5.121   3.256   4.251 -1.0955  0.0942  2.3218
 3053TIP3    H230575   5.083   3.112   4.223 -0.7623  0.1253  1.6982
 3054TIP3   OH230576   3.309   5.003   5.160  0.5335 -0.1284 -0.0400
 3054TIP3    H130577   3.333   5.094   5.148  0.2700  0.5030  3.1785
 3054TIP3    H230578   3.222   4.995   5.122  0.3423  1.1243  0.1098
 3055TIP3   OH230579   5.987   1.915  13.666  0.3694  0.1297 -0.9464
 3055TIP3    H130580   6.061   1.940  13.722 -0.4172 -0.7859  0.5856
 3055TIP3    H230581   5.925   1.987  13.677  0.7987  0.6454 -1.8163
 3056TIP3   OH230582   0.468   2.925  12.416  0.6105  0.4822  0.1546
 3056TIP3    H130583   0.412   2.916  12.339  0.8236  0.0552  0.0441
 3056TIP3    H230584   0.461   2.841  12.461  0.1275  0.8905  0.8564
 3057TIP3   OH230585   3.566   1.478  16.031 -0.1128  0.5136 -0.4008
 3057TIP3    H130586   3.485   1.497  15.984 -0.6635  0.0822  0.3614
 3057TIP3    H230587   3.575   1.550  16.093 -0.2546  0.2186 -0.0376
 3058TIP3   OH230588   0.858   5.387   4.318  0.4976  0.6719 -0.2905
 3058TIP3    H130589   0.787   5.426   4.369 -0.7794 -0.7017 -0.9574
 3058TIP3    H230590   0.871   5.301   4.357 -0.2461 -0.2543 -1.9835
 3059TIP3   OH230591   4.043   3.423   5.327 -0.2240  0.5034 -0.7553
 3059TIP3    H130592   3.965   3.444   5.277 -1.2765  0.1613  0.6791
 3059TIP3    H230593   4.038   3.329   5.343  1.6364  0.0385 -2.4808
 3060TIP3   OH230594   0.690   4.464   5.155 -0.4935  0.5989  0.3395
 3060TIP3    H130595   0.731   4.396   5.101 -1.1041 -1.3826  2.2171
 3060TIP3    H230596   0.760   4.493   5.214 -0.8620 -0.2573  1.2174
 3061TIP3   OH230597   3.588   0.571  11.658  0.0548 -0.4834 -0.5657
 3061TIP3    H130598   3.583   0.505  11.727  0.4469  0.2993  0.2240
 3061TIP3    H230599   3.500   0.607  11.652 -0.2707 -1.3522 -1.2967
 3062TIP3   OH230600   3.322   6.414   5.972  0.5834  0.0192 -0.2752
 3062TIP3    H130601   3.306   6.322   5.996  0.0528  0.1095 -0.2549
 3062TIP3    H230602   3.252   6.434   5.909  0.8168  0.3499 -0.4311
 3063TIP3   OH230603   0.355   5.601   3.708  0.0854  0.7988 -0.4948
 3063TIP3    H130604   0.332   5.570   3.621  0.0717 -1.4556  0.2330
 3063TIP3    H230605   0.323   5.532   3.767  1.7822  1.3006  1.1215
 3064TIP3   OH230606   3.352   4.187   6.011  0.4857  0.1403  0.2918
 3064TIP3    H130607   3.423   4.248   5.992  1.2391 -0.3378  1.5043
 3064TIP3    H230608   3.334   4.145   5.927 -0.3723  2.3154 -0.6971
 3065TIP3   OH230609   6.643   0.366  12.015  0.2209  0.1943  0.3566
 3065TIP3    H130610   6.577   0.422  11.976 -0.8210  0.3495  2.2076
 3065TIP3    H230611   6.663   0.407  12.099 -1.9429 -3.0062  2.6848
 3066TIP3   OH230612   2.944   4.625   6.090  0.1684 -0.3885 -0.4950
 3066TIP3    H130613   2.997   4.575   6.151 -0.1621 -1.4737 -1.0682
 3066TIP3    H230614   3.005   4.652   6.021  0.3812  0.1609 -0.0986
 3067TIP3   OH230615   4.488   4.085   2.048  0.5145  0.1332 -0.4213
 3067TIP3    H130616   4.527   4.170   2.025 -0.4189  0.9882  1.0046
 3067TIP3    H230617   4.396   4.105   2.067 -0.2674 -1.5593 -2.0960
 3068TIP3   OH230618   1.573   5.782   3.083 -0.5504 -0.7107  0.7668
 3068TIP3    H130619   1.641   5.821   3.137  1.7047 -0.7860 -1.8213
 3068TIP3    H230620   1.507   5.851   3.072  0.1465  0.0926  1.6010
 3069TIP3   OH230621   1.427   5.791  11.606  0.1167 -0.5728 -0.5545
 3069TIP3    H130622   1.497   5.752  11.552 -0.0036 -1.4695 -0.0926
 3069TIP3    H230623   1.469   5.864  11.650 -0.0337  0.8156 -2.5988
 3070TIP3   OH230624   0.896   3.884   6.517  0.1396  0.0629 -0.1103
 3070TIP3    H130625   0.891   3.979   6.503 -0.7145  0.0191 -0.1562
 3070TIP3    H230626   0.830   3.848   6.459 -0.4049 -0.4638  0.8266
 3071TIP3   OH230627   3.985   0.981  12.309  0.2084 -0.3880  0.1743
 3071TIP3    H130628   3.944   0.940  12.386 -1.2035  0.6835  0.0384
 3071TIP3    H230629   3.932   0.951  12.235  2.2719 -2.3820 -0.6083
 3072TIP3   OH230630   1.272   2.328  14.943  0.3704 -0.2370  0.2304
 3072TIP3    H130631   1.192   2.369  14.909 -0.2377 -0.6865  1.0977
 3072TIP3    H230632   1.263   2.236  14.921  0.5800 -0.3175  0.4854
 3073TIP3   OH230633   5.496   0.128  12.778  0.0179  0.1403 -0.4756
 3073TIP3    H130634   5.528   0.089  12.697 -0.5679 -1.9074  0.2170
 3073TIP3    H230635   5.534   0.073  12.847 -1.3427  0.4322  0.5289
 3074TIP3   OH230636   3.006   4.443  11.677 -0.6942 -0.4671  0.6458
 3074TIP3    H130637   3.041   4.410  11.595 -1.3078 -1.7403  0.8577
 3074TIP3    H230638   2.911   4.428  11.670 -0.7255 -0.8639  1.6773
 3075TIP3   OH230639   0.530   3.908   1.855  0.2582  0.2157 -0.0577
 3075TIP3    H130640   0.470   3.972   1.893  2.4089  2.2575  0.1252
 3075TIP3    H230641   0.584   3.958   1.795  2.2604 -1.3505  0.3218
 3076TIP3   OH230642   6.623   5.662   4.654  0.2554 -0.2446  0.7553
 3076TIP3    H130643   6.604   5.572   4.680 -0.4418  0.0949  1.4608
 3076TIP3    H230644   6.538   5.698   4.628  0.6471 -0.0135 -0.2800
 3077TIP3   OH230645   5.396   6.444  16.396  0.6359 -0.3851  0.2386
 3077TIP3    H130646   5.444   6.458  16.477 -0.4972 -1.5230  1.1577
 3077TIP3    H230647   5.381   6.350  16.392  1.0753 -0.4230 -1.5596
 3078TIP3   OH230648   1.221   5.282  14.582 -0.0402 -0.5265 -0.1615
 3078TIP3    H130649   1.303   5.234  14.577 -1.1748 -2.5194 -0.4560
 3078TIP3    H230650   1.206   5.313  14.492 -0.0081 -0.8598 -0.2838
 3079TIP3   OH230651   1.271   3.819   2.716  0.6361  0.2397 -0.4057
 3079TIP3    H130652   1.365   3.840   2.723  0.8861 -0.3866 -1.6204
 3079TIP3    H230653   1.256   3.809   2.622  0.0834 -2.9143 -0.0817
 3080TIP3   OH230654   1.285   0.910   5.245  0.3069 -0.2590 -0.2586
 3080TIP3    H130655   1.195   0.881   5.228  0.8462 -3.8683  1.9769
 3080TIP3    H230656   1.338   0.860   5.183  0.9686 -0.5269  0.5099
 3081TIP3   OH230657   5.089   0.058   1.799 -1.0801  0.0048 -0.5577
 3081TIP3    H130658   5.130  -0.027   1.807 -1.2967 -0.1345 -0.8775
 3081TIP3    H230659   5.014   0.043   1.741 -2.8080 -0.1782  1.5984
 3082TIP3   OH230660   6.435   1.127  16.651  0.1832  0.2413 -0.0559
 3082TIP3    H130661   6.475   1.096  16.570  0.1046 -0.1907  0.0689
 3082TIP3    H230662   6.468   1.068  16.718 -0.6916 -0.1436  0.0440
 3083TIP3   OH230663   3.119   6.704   2.786  0.3689  0.6723  0.4908
 3083TIP3    H130664   3.210   6.732   2.776  0.5737 -0.4805 -1.3525
 3083TIP3    H230665   3.070   6.764   2.730  0.2174  0.2880  0.2084
 3084TIP3   OH230666   2.191   4.960   2.475  0.2539 -0.4636  0.2035
 3084TIP3    H130667   2.243   4.937   2.552  0.2050 -1.3771 -0.0278
 3084TIP3    H230668   2.226   4.907   2.404  0.2998  0.3736 -0.4211
 3085TIP3   OH230669   1.680   0.259  13.608 -0.2581 -0.4012  0.2343
 3085TIP3    H130670   1.732   0.186  13.574 -0.5702 -0.2811 -0.5347
 3085TIP3    H230671   1.636   0.224  13.684 -0.9455 -1.2362 -0.5260
 3086TIP3   OH230672   6.649   3.929  14.822  0.4646 -0.1144 -0.1147
 3086TIP3    H130673   6.621   3.888  14.903 -0.1689 -1.0553 -0.7887
 3086TIP3    H230674   6.571   3.928  14.766  0.2930  2.4242 -0.0148
 3087TIP3   OH230675   1.275   2.670  13.174  0.1863  0.2739  0.4895
 3087TIP3    H130676   1.199   2.728  13.178 -0.6258 -0.3549 -2.7699
 3087TIP3    H230677   1.350   2.729  13.182 -0.6002  2.0576 -2.9781
 3088TIP3   OH230678   1.356   6.351   0.809 -0.9001  0.6801  0.3481
 3088TIP3    H130679   1.393   6.423   0.759 -1.2626  1.1636  0.7677
 3088TIP3    H230680   1.264   6.375   0.824 -2.1676 -1.5715 -2.7492
 3089TIP3   OH230681   0.403   1.570  13.929  0.2872 -0.1130  0.1180
 3089TIP3    H130682   0.404   1.485  13.886 -2.3663  0.0616 -0.4519
 3089TIP3    H230683   0.344   1.560  14.003  0.1529  1.1497  0.2090
 3090TIP3   OH230684   2.123   6.686  13.763 -0.5092  0.3388 -0.0456
 3090TIP3    H130685   2.107   6.628  13.689  0.0744  1.4376 -1.0661
 3090TIP3    H230686   2.039   6.692  13.809  0.1655 -4.4489  2.5333
 3091TIP3   OH230687   0.641   0.018   3.231  0.4013 -0.2362  0.6016
 3091TIP3    H130688   0.665   0.110   3.226  0.7256 -0.3914 -1.4593
 3091TIP3    H230689   0.724  -0.029   3.236  0.2737 -0.4737  0.5470
 3092TIP3   OH230690   5.267   3.759   3.104  0.2213 -0.2565  0.2901
 3092TIP3    H130691   5.348   3.806   3.087  0.1511 -0.5113 -0.8017
 3092TIP3    H230692   5.218   3.815   3.164  0.5090  0.6554 -0.3153
 3093TIP3   OH230693   4.725   0.464  13.942 -0.3017 -0.5311  0.0928
 3093TIP3    H130694   4.790   0.408  13.985 -2.6685 -2.6323  1.1687
 3093TIP3    H230695   4.715   0.426  13.854  0.8826  0.6611 -0.5856
 3094TIP3   OH230696   3.248   6.116  16.554  0.9374  0.1299 -0.1945
 3094TIP3    H130697   3.259   6.157  16.639 -0.4930 -1.4872  0.8318
 3094TIP3    H230698   3.203   6.034  16.572  0.8275 -0.3924 -2.4915
 3095TIP3   OH230699   4.031   0.275   2.493  0.3745  0.6462  0.3038
 3095TIP3    H130700   4.089   0.205   2.525  0.8318  1.0590  0.3909
 3095TIP3    H230701   3.950   0.230   2.469  0.7408  0.0557  0.1535
 3096TIP3   OH230702   1.405   0.762  11.184 -0.2037 -0.2466  1.0600
 3096TIP3    H130703   1.419   0.706  11.107  0.1193 -1.2469  1.8200
 3096TIP3    H230704   1.450   0.844  11.162  0.0528 -0.5849  0.2649
 3097TIP3   OH230705   3.774   4.780   5.419  0.3029 -0.0866 -0.2745
 3097TIP3    H130706   3.699   4.816   5.467 -0.6733 -0.2393 -1.6216
 3097TIP3    H230707   3.837   4.852   5.416 -0.5820  0.6952 -0.7480
 3098TIP3   OH230708   4.615   2.401  16.322 -0.7207 -0.0599 -0.2058
 3098TIP3    H130709   4.660   2.439  16.397 -2.5035 -0.7311  1.2722
 3098TIP3    H230710   4.609   2.472  16.258 -0.9799  1.1386  1.1195
 3099TIP3   OH230711   1.065   4.843   3.443  0.0388  0.3146  0.3748
 3099TIP3    H130712   1.029   4.788   3.513  0.0283 -0.9028 -0.5474
 3099TIP3    H230713   1.047   4.794   3.362 -1.4478  2.4189 -0.6900
 3100TIP3   OH230714   1.054   3.599  16.517  0.0175 -0.3295 -0.5123
 3100TIP3    H130715   1.133   3.631  16.558 -0.2031 -0.7976  0.3081
 3100TIP3    H230716   1.026   3.669  16.459  1.6740 -0.6287 -1.7257
 3101TIP3   OH230717   1.295   6.099   3.580 -0.0960  0.1747 -0.3166
 3101TIP3    H130718   1.365   6.035   3.570 -0.2170 -0.0433  0.1674
 3101TIP3    H230719   1.332   6.181   3.548 -0.1945 -0.2926 -1.6593
 3102TIP3   OH230720   3.407   6.742   0.354 -0.2880 -0.7825  0.1966
 3102TIP3    H130721   3.470   6.753   0.283  0.7088 -2.1612  0.8191
 3102TIP3    H230722   3.336   6.691   0.315 -0.5160 -0.1507 -0.2256
 3103TIP3   OH230723   4.850   6.479   3.551  1.0693 -0.2978 -0.3668
 3103TIP3    H130724   4.765   6.463   3.508  0.5980 -1.6711  1.0017
 3103TIP3    H230725   4.858   6.574   3.551 -0.0820 -0.1689 -1.2695
 3104TIP3   OH230726   3.923   4.068   0.351 -0.3089  0.3494  0.1371
 3104TIP3    H130727   3.955   4.088   0.264  0.6029  0.5598  0.5143
 3104TIP3    H230728   3.947   3.976   0.365 -1.9614 -0.2156 -0.4776
 3105TIP3   OH230729   5.984   4.160   2.175 -0.1088 -0.3054  0.1603
 3105TIP3    H130730   5.962   4.237   2.228  0.2368 -0.0025 -0.1362
 3105TIP3    H230731   5.962   4.085   2.231 -0.5586  0.0054  0.4031
 3106TIP3   OH230732   6.641   4.665  17.000  0.6678 -0.1349  0.6682
 3106TIP3    H130733   6.664   4.668  16.908  0.3464  1.7722  0.6232
 3106TIP3    H230734   6.624   4.756  17.024 -0.5383 -0.7475  2.2838
 3107TIP3   OH230735   5.890   1.492  14.966 -0.0938 -0.0585 -0.6059
 3107TIP3    H130736   5.890   1.581  14.931 -0.1825  1.2761  2.5002
 3107TIP3    H230737   5.982   1.472  14.982  0.0123 -0.9513 -2.0841
 3108TIP3   OH230738   4.168   6.555  11.851 -0.1774  0.5925 -0.2606
 3108TIP3    H130739   4.249   6.593  11.819  2.0047 -2.9341  0.5223
 3108TIP3    H230740   4.130   6.510  11.775 -0.1841  0.3591 -0.1216
 3109TIP3   OH230741   0.424   0.518  16.051 -0.1593 -0.5421  0.2725
 3109TIP3    H130742   0.432   0.436  16.001 -0.0775 -0.2348 -0.2235
 3109TIP3    H230743   0.419   0.586  15.984  0.3630 -0.0887  0.6861
 3110TIP3   OH230744   1.773   6.675   3.789  0.0677  0.3030 -0.0038
 3110TIP3    H130745   1.834   6.614   3.829 -0.8912 -0.7975 -0.1668
 3110TIP3    H230746   1.695   6.672   3.844 -1.0408 -0.7802 -1.5589
 3111TIP3   OH230747   4.008   0.809  11.213  0.4551 -0.4209  0.2710
 3111TIP3    H130748   4.101   0.802  11.190  0.5380 -1.1868  0.8187
 3111TIP3    H230749   3.967   0.848  11.135  0.9845 -1.5578 -0.6167
 3112TIP3   OH230750   0.122   2.184   0.269  0.4541 -0.0539  0.6297
 3112TIP3    H130751   0.090   2.266   0.229  2.1594 -0.1743 -1.1595
 3112TIP3    H230752   0.194   2.157   0.212 -0.6770 -3.3662  0.5637
 3113TIP3   OH230753   0.623   0.558  15.684  0.1757 -0.1045 -0.4172
 3113TIP3    H130754   0.672   0.551  15.766 -0.3817  1.3590  0.0752
 3113TIP3    H230755   0.538   0.518  15.703 -0.3585  1.2211  0.0977
 3114TIP3   OH230756   2.693   4.795  12.556  0.0586  0.1126 -0.4139
 3114TIP3    H130757   2.721   4.881  12.525  1.4796  0.1444  0.8352
 3114TIP3    H230758   2.604   4.785  12.522 -0.1657  2.0980 -0.5307
 3115TIP3   OH230759   2.899   3.333  13.425 -0.6736  0.1643 -0.1899
 3115TIP3    H130760   2.918   3.306  13.515 -1.2238  0.4067  0.0046
 3115TIP3    H230761   2.872   3.252  13.382  0.1569 -0.0583 -0.2945
 3116TIP3   OH230762   4.661   3.878   3.379 -0.6499 -0.3487 -0.3806
 3116TIP3    H130763   4.632   3.903   3.292 -0.9971 -0.8102 -0.4002
 3116TIP3    H230764   4.656   3.958   3.431 -3.3246 -0.6544 -0.0084
 3117TIP3   OH230765   0.411   1.988  13.424  0.1226  0.0325  0.1985
 3117TIP3    H130766   0.346   2.025  13.484 -0.4674 -0.3404 -0.2054
 3117TIP3    H230767   0.462   1.929  13.478  0.1986  0.4088  0.5442
 3118TIP3   OH230768   2.699   6.549  11.526  0.3023 -0.2527  0.0137
 3118TIP3    H130769   2.790   6.577  11.541  0.8715 -1.6279 -0.6476
 3118TIP3    H230770   2.649   6.630  11.526  1.2092  0.3987  2.4169
 3119TIP3   OH230771   6.348   4.923   0.523 -0.1216 -0.4717 -0.3384
 3119TIP3    H130772   6.383   4.874   0.449 -0.1645  1.0811 -1.4515
 3119TIP3    H230773   6.353   4.863   0.597  0.3714 -1.9106 -1.5001
 3120TIP3   OH230774   0.100   5.696  13.249  0.4816  0.0882  0.1639
 3120TIP3    H130775   0.176   5.659  13.295  0.2964 -0.4227  0.0666
 3120TIP3    H230776   0.039   5.721  13.318 -0.2303 -1.6108  0.1938
 3121TIP3   OH230777   0.623   5.328   6.008 -0.1116 -0.6904 -0.3314
 3121TIP3    H130778   0.660   5.412   5.980 -1.3647  0.5794  1.6153
 3121TIP3    H230779   0.543   5.318   5.955  0.0100 -0.6422 -0.5260
 3122TIP3   OH230780   1.820   4.742  15.368 -0.0296 -0.4282 -0.1019
 3122TIP3    H130781   1.829   4.822  15.316 -1.5661 -0.1165  0.0550
 3122TIP3    H230782   1.842   4.671  15.307  1.2483  0.0802 -0.2705
 3123TIP3   OH230783   2.161   6.624  15.688 -0.4661 -0.5265 -0.8078
 3123TIP3    H130784   2.082   6.572  15.704  0.2015 -0.9250  1.6976
 3123TIP3    H230785   2.129   6.713  15.676 -1.3358 -0.4824  1.2703
 3124TIP3   OH230786   2.347   3.763  15.862 -0.3460 -0.0681 -0.5624
 3124TIP3    H130787   2.336   3.752  15.957 -0.4184 -0.4268 -0.6118
 3124TIP3    H230788   2.413   3.832  15.854 -2.9916  2.6849 -0.2743
 3125TIP3   OH230789   1.197   4.933  16.009  0.1552 -0.1044 -0.0635
 3125TIP3    H130790   1.266   4.995  16.034  0.0846 -0.0963  0.1128
 3125TIP3    H230791   1.139   4.984  15.951 -1.1469  0.6934  1.8255
 3126TIP3   OH230792   1.228   3.373  15.781 -0.0843  0.1960 -0.4559
 3126TIP3    H130793   1.249   3.280  15.774 -0.8465 -0.0414  0.2800
 3126TIP3    H230794   1.310   3.414  15.809 -0.3725 -0.6172  1.7299
 3127TIP3   OH230795   2.210   4.730   0.687  0.4106 -0.2762  0.4309
 3127TIP3    H130796   2.303   4.711   0.676  0.6973  0.8110  0.7869
 3127TIP3    H230797   2.177   4.661   0.744  1.0047 -0.6550  0.3179
 3128TIP3   OH230798   5.556   3.085   0.801  0.7761  0.1324 -0.1397
 3128TIP3    H130799   5.642   3.046   0.786  1.3787  1.3733 -0.0717
 3128TIP3    H230800   5.548   3.152   0.734  0.0641  0.3504  0.1506
 3129TIP3   OH230801   4.188   1.230   1.503 -0.6413  0.1510  0.6801
 3129TIP3    H130802   4.193   1.176   1.424  0.2231  0.0442  0.7930
 3129TIP3    H230803   4.164   1.169   1.573 -1.5450  0.2722  0.4789
 3130TIP3   OH230804   4.713   3.822   0.439  0.6611  0.1386 -0.3978
 3130TIP3    H130805   4.789   3.845   0.386  0.3005  0.3757 -0.8246
 3130TIP3    H230806   4.638   3.847   0.385  0.1892 -2.7462 -1.2653
 3131TIP3   OH230807   0.428   2.356  11.045  0.0852  0.0316  0.1787
 3131TIP3    H130808   0.333   2.345  11.049  0.1536 -0.4752  0.4930
 3131TIP3    H230809   0.455   2.310  10.965  0.0522  0.2860  0.0204
 3132TIP3   OH230810   1.012   6.063  11.741 -0.0861 -0.6069  0.0380
 3132TIP3    H130811   1.042   5.987  11.790  1.9528  0.3682  0.4284
 3132TIP3    H230812   1.089   6.121  11.737 -0.8943  0.4603 -2.1585
 3133TIP3   OH230813   0.337   3.138   1.331 -0.3269 -0.1745  0.0776
 3133TIP3    H130814   0.406   3.080   1.364  0.1521 -1.2585 -2.5355
 3133TIP3    H230815   0.266   3.080   1.306 -1.0660  0.6704  0.1572
 3134TIP3   OH230816   0.553   0.037   3.606  0.0987  0.2678  0.1490
 3134TIP3    H130817   0.523   0.107   3.548 -1.4905 -0.8628 -0.4765
 3134TIP3    H230818   0.482   0.025   3.669  0.1440 -1.0077 -0.0016
 3135TIP3   OH230819   4.034   4.150  13.109  0.5371  0.3615 -0.4313
 3135TIP3    H130820   4.120   4.176  13.142  0.9711 -0.4564 -0.8738
 3135TIP3    H230821   4.049   4.064  13.070 -0.5171  0.1563 -0.3975
 3136TIP3   OH230822   4.775   4.751   4.264 -0.2743 -0.2536 -0.1380
 3136TIP3    H130823   4.687   4.719   4.284 -1.2897  2.3032 -0.1021
 3136TIP3    H230824   4.780   4.836   4.308  2.3233 -0.4272  0.0328
 3137TIP3   OH230825   5.849   0.976  16.164 -0.7074  0.3007  0.7652
 3137TIP3    H130826   5.757   1.004  16.160 -1.1992 -1.3265 -0.5869
 3137TIP3    H230827   5.851   0.895  16.114  1.7658  1.0339 -0.4750
 3138TIP3   OH230828   0.143   0.308   1.433 -0.4643  0.1901  0.5921
 3138TIP3    H130829   0.177   0.229   1.390 -0.8888  0.1012  0.4122
 3138TIP3    H230830   0.093   0.352   1.365 -0.1083  0.6921  0.6536
 3139TIP3   OH230831   2.200   5.331   5.336  0.7223  0.0959 -0.4450
 3139TIP3    H130832   2.113   5.357   5.306 -0.1604  0.9909  2.5379
 3139TIP3    H230833   2.259   5.398   5.302 -0.2272  1.1539 -0.0621
 3140TIP3   OH230834   0.158   3.311  16.746  0.5605 -0.3493  0.1313
 3140TIP3    H130835   0.108   3.393  16.750 -0.7425 -1.1100  0.0220
 3140TIP3    H230836   0.153   3.285  16.654  1.1058 -0.4682  0.1348
 3141TIP3   OH230837   0.440   5.378  11.837  0.7118 -0.3957 -0.1988
 3141TIP3    H130838   0.389   5.456  11.817  0.2576 -0.9841 -1.3841
 3141TIP3    H230839   0.392   5.335  11.908 -0.0988 -0.5971 -0.8589
 3142TIP3   OH230840   0.426   3.890   4.378  0.5075  0.6801  0.0618
 3142TIP3    H130841   0.468   3.944   4.311  2.3347 -1.7570 -0.9197
 3142TIP3    H230842   0.344   3.861   4.337  1.8546 -1.2343 -1.5015
 3143TIP3   OH230843   3.871   0.918   5.748 -0.1408 -0.4608 -0.5267
 3143TIP3    H130844   3.958   0.947   5.775  0.0201  0.1401 -1.6321
 3143TIP3    H230845   3.870   0.824   5.767  0.4686 -0.3349  0.1919
 3144TIP3   OH230846   1.250   2.012   4.414 -0.0255  0.9750  0.2447
 3144TIP3    H130847   1.215   2.098   4.389  0.8904  0.5432 -2.8225
 3144TIP3    H230848   1.219   1.953   4.346 -0.3292 -1.1258  2.1026
 3145TIP3   OH230849   5.395   1.210   0.709  0.3723  0.1960  0.2366
 3145TIP3    H130850   5.477   1.161   0.705  1.3199  1.6811  0.7868
 3145TIP3    H230851   5.397   1.266   0.631 -1.0561 -1.0865 -0.8048
 3146TIP3   OH230852   4.048   3.951   1.990 -0.5647  0.4616  0.2934
 3146TIP3    H130853   4.017   3.861   1.976  0.2773  0.0969  0.7402
 3146TIP3    H230854   3.970   4.004   1.977 -1.2333 -0.3880  0.6625
 3147TIP3   OH230855   3.494   5.612  14.582  0.1217  0.6667  0.0717
 3147TIP3    H130856   3.516   5.519  14.581  0.6365  0.7474  1.8694
 3147TIP3    H230857   3.575   5.657  14.605 -0.5190  1.4086  0.9777
 3148TIP3   OH230858   2.612   4.384  12.738 -0.0713  0.1801 -0.5337
 3148TIP3    H130859   2.607   4.391  12.834  2.7330  0.9093 -0.3674
 3148TIP3    H230860   2.574   4.465  12.706  0.4815  0.6852  0.0560
 3149TIP3   OH230861   0.655   4.498   3.879 -0.3176 -0.6021  0.1375
 3149TIP3    H130862   0.732   4.466   3.831 -1.2866 -1.5929 -0.8216
 3149TIP3    H230863   0.646   4.589   3.851  1.0089 -0.1894  0.9555
 3150TIP3   OH230864   6.581   2.895   3.332 -0.4279 -0.1927 -0.0590
 3150TIP3    H130865   6.615   2.935   3.252 -0.7626  2.2891  0.9318
 3150TIP3    H230866   6.505   2.845   3.303  0.8988 -1.4456 -1.5822
 3151TIP3   OH230867   5.064   6.094  11.498  0.3170 -0.1848  0.4307
 3151TIP3    H130868   4.991   6.083  11.437 -2.0994 -0.4951  3.1643
 3151TIP3    H230869   5.075   6.189  11.504  0.2885 -0.1402 -0.1580
 3152TIP3   OH230870   2.064   6.151  16.769  0.0539 -0.0251  0.3446
 3152TIP3    H130871   2.017   6.212  16.827 -0.1486  0.8794 -0.7194
 3152TIP3    H230872   2.101   6.085  16.827 -1.0820  0.2238  1.3832
 3153TIP3   OH230873   6.424   2.493  14.127  0.0133  0.1809  0.0717
 3153TIP3    H130874   6.435   2.574  14.078  0.3548  0.5334  0.7117
 3153TIP3    H230875   6.420   2.521  14.219 -2.1528 -0.3151  0.1674
 3154TIP3   OH230876   5.150   5.524   0.905  0.2811 -1.0927 -0.0190
 3154TIP3    H130877   5.072   5.514   0.850  0.7644  0.2412 -0.9881
 3154TIP3    H230878   5.152   5.617   0.927 -0.1242 -1.6432  2.6563
 3155TIP3   OH230879   3.694   2.904   1.898  0.6442  0.3560 -0.3040
 3155TIP3    H130880   3.672   2.997   1.905  0.1233  0.4379 -2.3369
 3155TIP3    H230881   3.662   2.866   1.979 -1.3892  1.5505 -0.4789
 3156TIP3   OH230882   1.159   1.467  11.544 -0.3327 -0.7332 -0.5609
 3156TIP3    H130883   1.112   1.502  11.619  2.4007 -0.3903  1.1442
 3156TIP3    H230884   1.152   1.372  11.554  0.1017 -0.6945  0.2446
 3157TIP3   OH230885   5.935   1.942  16.615  0.0380  0.3224  0.3212
 3157TIP3    H130886   5.870   1.928  16.684  1.1743 -1.1548  1.1394
 3157TIP3    H230887   5.886   1.987  16.546 -2.1030 -1.5197  0.5282
 3158TIP3   OH230888   4.728   5.157  13.788 -0.0739  0.5764 -0.5483
 3158TIP3    H130889   4.706   5.183  13.698 -0.8008 -0.8237 -0.8148
 3158TIP3    H230890   4.645   5.166  13.836  0.3472  1.4593  0.0306
 3159TIP3   OH230891   4.714   5.347   1.846  0.0808  0.3106 -0.2075
 3159TIP3    H130892   4.700   5.411   1.917  0.8204  1.1971 -0.8368
 3159TIP3    H230893   4.707   5.399   1.766  1.1846 -0.3127 -0.7165
 3160TIP3   OH230894   4.027   1.509   1.934 -0.1797 -0.0628 -0.0748
 3160TIP3    H130895   3.965   1.580   1.918 -1.2772 -0.8322  0.6056
 3160TIP3    H230896   3.990   1.434   1.887 -1.5528 -1.3938  2.8542
 3161TIP3   OH230897   0.423   4.330   3.899  0.3695 -0.3715  0.2939
 3161TIP3    H130898   0.490   4.397   3.886  1.5723 -1.3834  1.0408
 3161TIP3    H230899   0.418   4.319   3.994 -0.4921 -0.6789  0.2195
 3162TIP3   OH230900   2.514   4.981   2.048  0.5692  0.1712  0.3558
 3162TIP3    H130901   2.548   4.931   1.974 -1.4477 -0.2304 -0.3637
 3162TIP3    H230902   2.466   5.053   2.008  1.4364  1.3511  1.3531
 3163TIP3   OH230903   1.752   5.169  14.448 -0.0564  0.8326  0.0200
 3163TIP3    H130904   1.826   5.176  14.387  0.4076  0.8039  0.5749
 3163TIP3    H230905   1.772   5.232  14.518 -0.8743  1.2959 -0.1475
 3164TIP3   OH230906   2.487   4.819   5.805  0.0707 -0.6518 -0.6803
 3164TIP3    H130907   2.540   4.761   5.859  1.2482  0.1358 -0.9711
 3164TIP3    H230908   2.418   4.849   5.863  1.4986  0.4345  0.5069
 3165TIP3   OH230909   3.818   4.117   3.899 -0.4474  0.1535  0.5672
 3165TIP3    H130910   3.882   4.057   3.939  1.5654  0.4550 -1.9573
 3165TIP3    H230911   3.767   4.149   3.973  0.9973 -1.6510  2.4907
 3166TIP3   OH230912   2.079   3.370  16.782  0.0932 -0.5262 -0.3695
 3166TIP3    H130913   2.053   3.305  16.847 -2.1564  0.1290 -0.5409
 3166TIP3    H230914   2.085   3.320  16.700 -0.8533 -0.6779 -0.3551
 3167TIP3   OH230915   5.801   6.731  14.329  0.2374  0.0202 -0.1042
 3167TIP3    H130916   5.789   6.801  14.265  1.1731  1.2317  1.0047
 3167TIP3    H230917   5.719   6.683  14.327  0.0301  0.3784 -1.7836
 3168TIP3   OH230918   6.588   1.689  16.620 -0.4552  0.0102  0.1077
 3168TIP3    H130919   6.650   1.695  16.692 -0.0206 -1.5243 -0.1117
 3168TIP3    H230920   6.507   1.728  16.655 -0.0388 -0.0486  1.1705
 3169TIP3   OH230921   6.456   1.461  13.933 -0.0368  0.0186 -0.0103
 3169TIP3    H130922   6.397   1.400  13.889 -0.0130 -0.6826  0.8933
 3169TIP3    H230923   6.449   1.542  13.883 -1.4445 -0.1788 -0.1737
 3170TIP3   OH230924   6.358   4.712   2.334  0.2340 -0.1858  0.1637
 3170TIP3    H130925   6.437   4.737   2.382 -0.2813  1.4196  0.2365
 3170TIP3    H230926   6.342   4.622   2.361  1.8589 -0.4564  0.3832
 3171TIP3   OH230927   0.840   2.618  13.015 -0.1669  0.1002 -0.2024
 3171TIP3    H130928   0.931   2.590  13.023 -0.4757 -1.2583 -1.1293
 3171TIP3    H230929   0.789   2.537  13.016 -1.5358  0.8869  1.8756
 3172TIP3   OH230930   6.440   6.088   3.355 -0.2521  0.1844  0.4424
 3172TIP3    H130931   6.474   6.175   3.376 -2.5843  1.0338  0.9463
 3172TIP3    H230932   6.446   6.083   3.260 -2.0294  1.7937  0.2021
 3173TIP3   OH230933   2.871   4.002   1.299  0.4713 -0.1335 -0.7344
 3173TIP3    H130934   2.944   3.995   1.360 -1.1323  0.2100  1.3302
 3173TIP3    H230935   2.806   3.940   1.332 -0.5544  0.2637 -1.9363
 3174TIP3   OH230936   1.526   0.642  11.958 -1.0360 -0.5073 -0.5368
 3174TIP3    H130937   1.506   0.593  11.878  0.3807  0.0076 -1.2297
 3174TIP3    H230938   1.449   0.698  11.971 -1.1465 -0.3326 -1.7620
 3175TIP3   OH230939   4.281   1.752  13.071 -0.4790 -0.1996 -0.0544
 3175TIP3    H130940   4.329   1.681  13.114 -0.4178 -0.1662 -0.0677
 3175TIP3    H230941   4.252   1.714  12.988 -0.7508 -0.3198  0.0957
 3176TIP3   OH230942   5.786   1.917   0.234  0.2815 -0.6737  0.2519
 3176TIP3    H130943   5.786   1.930   0.329  0.5042  2.1707 -0.0392
 3176TIP3    H230944   5.695   1.930   0.209  0.5429  0.7081 -0.0861
 3177TIP3   OH230945   2.113   3.832   4.105  0.1490  0.6149  0.1082
 3177TIP3    H130946   2.172   3.767   4.143  0.4586  1.5549  1.2922
 3177TIP3    H230947   2.027   3.812   4.143  0.3640  1.2585  0.9505
 3178TIP3   OH230948   3.644   5.393  14.641 -0.1041  0.2478 -0.9687
 3178TIP3    H130949   3.731   5.428  14.623 -0.2041  0.3422 -1.2728
 3178TIP3    H230950   3.661   5.309  14.684  0.1735  1.8536  2.4210
 3179TIP3   OH230951   0.465   6.122   1.342 -0.0643  0.1326  0.2330
 3179TIP3    H130952   0.438   6.120   1.434  0.1116  0.9340  0.3040
 3179TIP3    H230953   0.560   6.123   1.345 -0.0454 -0.5610  0.0204
 3180TIP3   OH230954   4.431   6.481   5.286  0.3922  0.0584 -0.1878
 3180TIP3    H130955   4.480   6.534   5.224 -0.5440 -0.0729 -1.0624
 3180TIP3    H230956   4.388   6.414   5.233  1.1783 -1.3256  0.8394
 3181TIP3   OH230957   6.316   0.124  15.521  0.6276 -0.1472  0.0460
 3181TIP3    H130958   6.323   0.160  15.432 -3.5019  1.4218  0.1474
 3181TIP3    H230959   6.355   0.191  15.577  2.1244 -0.5868 -0.4100
 3182TIP3   OH230960   0.953   1.746  12.173 -0.1884 -0.0644 -0.3541
 3182TIP3    H130961   0.899   1.680  12.129  0.5604 -0.4468 -0.7093
 3182TIP3    H230962   0.910   1.759  12.258  0.7340 -2.5081  0.5912
 3183TIP3   OH230963   6.204   3.208   2.224  0.3213 -0.0667  0.4742
 3183TIP3    H130964   6.208   3.127   2.276 -1.1161 -0.0468  0.6659
 3183TIP3    H230965   6.111   3.219   2.204  0.8214 -0.3590 -2.5742
 3184TIP3   OH230966   0.072   3.046  15.647 -0.0260 -0.0266 -0.0794
 3184TIP3    H130967   0.003   3.107  15.624  0.0327  0.4048  0.8494
 3184TIP3    H230968   0.034   2.959  15.633 -1.2173  0.1750  1.6484
 3185TIP3   OH230969   3.678   2.083  10.851  0.2455 -0.8571 -0.1177
 3185TIP3    H130970   3.623   2.006  10.868 -1.4216  0.3912  0.3493
 3185TIP3    H230971   3.650   2.113  10.765  1.0211 -0.8551 -0.3753
 3186TIP3   OH230972   1.557   1.765  17.078 -0.4642  0.0147  0.1222
 3186TIP3    H130973   1.590   1.771  16.989 -0.1450  0.6174  0.2793
 3186TIP3    H230974   1.526   1.853  17.099 -0.2530 -0.0430  0.7114
 3187TIP3   OH230975   3.614   3.363   3.054  0.2090 -0.5129  0.0915
 3187TIP3    H130976   3.688   3.415   3.021 -0.2052 -1.0012 -1.7298
 3187TIP3    H230977   3.638   3.272   3.036 -0.3733 -0.7397  0.4366
 3188TIP3   OH230978   6.397   5.638   0.194  0.2284 -0.0676  0.6300
 3188TIP3    H130979   6.464   5.586   0.150 -1.7342 -2.3979  0.1780
 3188TIP3    H230980   6.356   5.689   0.124 -1.5903 -2.3123 -0.0812
 3189TIP3   OH230981   1.253   3.854  16.394  0.4915 -0.3652  0.2166
 3189TIP3    H130982   1.173   3.890  16.356  0.1167  0.3249  1.5740
 3189TIP3    H230983   1.281   3.920  16.457  2.2156 -0.5450 -0.3247
 3190TIP3   OH230984   1.143   0.467  14.863  0.2368 -0.4634 -0.8851
 3190TIP3    H130985   1.131   0.408  14.788 -1.2644  1.6960 -2.4932
 3190TIP3    H230986   1.213   0.525  14.836 -0.2405  0.2630 -0.5839
 3191TIP3   OH230987   5.290   6.413   2.037  0.3392  0.8941 -0.2036
 3191TIP3    H130988   5.363   6.393   1.978 -0.3133  2.1487 -1.5089
 3191TIP3    H230989   5.275   6.507   2.025  0.0726  1.1692  1.8856
 3192TIP3   OH230990   4.970   2.491  13.832 -0.0995  0.1076  0.1126
 3192TIP3    H130991   5.027   2.522  13.761  0.1761 -4.4082 -2.0480
 3192TIP3    H230992   4.886   2.476  13.789  0.4168 -3.9428  0.1307
 3193TIP3   OH230993   4.724   5.252  12.785 -0.4047 -0.0972  0.6942
 3193TIP3    H130994   4.753   5.310  12.715 -2.4379  0.8149  0.5332
 3193TIP3    H230995   4.803   5.233  12.835  1.0409 -0.4451 -1.5700
 3194TIP3   OH230996   1.532   2.386  16.269  0.4180 -0.1435  0.0398
 3194TIP3    H130997   1.583   2.415  16.193  0.5781  0.3711  0.3415
 3194TIP3    H230998   1.447   2.360  16.231  0.0541  1.2978 -0.1737
 3195TIP3   OH230999   6.027   1.047  13.170 -0.1515 -0.2164  0.5075
 3195TIP3    H131000   6.091   1.016  13.235  2.9085  0.1105 -2.1057
 3195TIP3    H231001   6.041   1.141  13.166 -1.9909  0.1123  0.9629
 3196TIP3   OH231002   5.574   2.683   3.588  0.0217 -0.0178  0.6895
 3196TIP3    H131003   5.563   2.759   3.646 -1.9314 -0.7552  1.3936
 3196TIP3    H231004   5.503   2.692   3.524  0.5050 -0.6286  0.0590
 3197TIP3   OH231005   3.238   5.728   2.748  0.1721 -0.1886  0.6857
 3197TIP3    H131006   3.273   5.652   2.701 -1.8009 -0.8523  0.1804
 3197TIP3    H231007   3.297   5.800   2.725  0.0354 -0.7713 -1.8334
 3198TIP3   OH231008   2.100   2.592   0.365 -0.2167 -0.0513 -0.3272
 3198TIP3    H131009   2.053   2.513   0.392  0.7772 -0.6061 -0.1686
 3198TIP3    H231010   2.190   2.576   0.392  0.6959 -0.2989 -3.2109
 3199TIP3   OH231011   3.994   6.179   0.779  0.0906 -0.2782  0.1388
 3199TIP3    H131012   3.927   6.171   0.847 -0.6493 -0.5618 -0.6054
 3199TIP3    H231013   4.003   6.273   0.765 -0.8592 -0.2575 -0.4235
 3200TIP3   OH231014   5.514   2.397   5.208  0.5997 -0.0975  0.5440
 3200TIP3    H131015   5.606   2.404   5.234  0.9345 -1.5914 -0.1138
 3200TIP3    H231016   5.512   2.428   5.117 -0.0579  2.4297  1.3474
 3201TIP3   OH231017   0.917   6.203   5.441 -0.3643 -0.6051  0.0104
 3201TIP3    H131018   0.855   6.133   5.460  0.9996 -1.9282 -0.2467
 3201TIP3    H231019   0.876   6.252   5.370 -0.9249 -1.7255 -0.4661
 3202TIP3   OH231020   3.885   2.228  16.596 -0.0607 -0.4929 -0.4610
 3202TIP3    H131021   3.894   2.170  16.672  1.0842  0.8808  0.4802
 3202TIP3    H231022   3.959   2.205  16.540  0.1625 -0.2072 -0.2808
 3203TIP3   OH231023   3.755   2.973   2.597  0.2814 -0.0522  0.6294
 3203TIP3    H131024   3.703   2.893   2.590  0.6695 -0.2529 -0.1737
 3203TIP3    H231025   3.823   2.963   2.530 -0.5210  1.5955 -0.5054
 3204TIP3   OH231026   2.683   0.113   6.467 -0.1439 -0.3397  0.3394
 3204TIP3    H131027   2.632   0.043   6.428  0.7395 -1.7251  1.5640
 3204TIP3    H231028   2.747   0.136   6.400 -2.5169  1.7614 -1.4112
 3205TIP3   OH231029   6.707   3.110   3.671  0.4256 -0.1948 -0.6151
 3205TIP3    H131030   6.731   3.048   3.740 -1.5323 -1.2191 -0.8002
 3205TIP3    H231031   6.614   3.128   3.687  0.1825  0.2824 -2.4230
 3206TIP3   OH231032   5.872   4.892   4.221  0.2971  0.0734 -0.2392
 3206TIP3    H131033   5.839   4.974   4.184 -0.5828  0.5398  1.4686
 3206TIP3    H231034   5.940   4.863   4.160 -1.0377  0.8047 -2.1449
 3207TIP3   OH231035   0.935   1.056  12.117 -0.8787 -0.0588 -0.0789
 3207TIP3    H131036   0.967   1.136  12.074 -1.1524  0.2054  0.2014
 3207TIP3    H231037   0.972   0.985  12.066 -0.5399  0.2490 -0.2705
 3208TIP3   OH231038   4.400   4.857   1.814 -0.2657  0.1406  0.5303
 3208TIP3    H131039   4.329   4.809   1.772  0.6002 -1.2613  0.6004
 3208TIP3    H231040   4.376   4.949   1.804 -1.3752 -0.2531 -0.7057
 3209TIP3   OH231041   5.414   5.294  12.175  0.3582  0.1070  0.3297
 3209TIP3    H131042   5.487   5.354  12.158  0.5110 -0.3767 -0.8125
 3209TIP3    H231043   5.398   5.301  12.269 -1.3762  3.9482 -0.0588
 3210TIP3   OH231044   2.312   6.689  14.360 -0.0684 -1.0127 -0.1121
 3210TIP3    H131045   2.381   6.695  14.426 -0.6970  2.1010  0.4564
 3210TIP3    H231046   2.231   6.681  14.411 -0.4084 -0.6244 -0.5806
 3211TIP3   OH231047   0.698   6.215  15.264 -0.4102 -0.1293 -0.2791
 3211TIP3    H131048   0.618   6.260  15.234 -0.8302 -1.4649 -1.2785
 3211TIP3    H231049   0.670   6.166  15.341 -0.0338  0.9866  0.6017
 3212TIP3   OH231050   4.834   4.366   4.430 -0.1600  0.0563 -0.0456
 3212TIP3    H131051   4.897   4.338   4.364  0.1807  0.9503 -0.1027
 3212TIP3    H231052   4.854   4.458   4.446 -0.5912  0.0031  0.9032
 3213TIP3   OH231053   3.877   4.828  15.234  0.0449 -0.0824 -0.6673
 3213TIP3    H131054   3.829   4.908  15.253  1.1921  0.6425 -0.7706
 3213TIP3    H231055   3.839   4.797  15.152 -1.2466 -0.3314  0.0026
 3214TIP3   OH231056   4.019   5.054  14.706  0.5541  0.8237  0.4285
 3214TIP3    H131057   4.016   5.148  14.720  0.2452  0.9607 -0.4940
 3214TIP3    H231058   3.953   5.037  14.638  2.4853  0.3172 -1.4262
 3215TIP3   OH231059   4.585   4.067  13.500 -0.3843  0.2145  0.1163
 3215TIP3    H131060   4.526   4.000  13.465  0.0307 -0.4876  0.7190
 3215TIP3    H231061   4.648   4.082  13.430  0.3193 -1.0306  0.4537
 3216TIP3   OH231062   4.600   3.573   5.257 -0.3021  0.3009  0.1832
 3216TIP3    H131063   4.691   3.565   5.285  0.5168 -1.1348 -2.4830
 3216TIP3    H231064   4.571   3.657   5.293  1.0121 -0.5505  3.6811
 3217TIP3   OH231065   5.790   3.117   1.407 -0.5827  0.5329 -0.0544
 3217TIP3    H131066   5.714   3.163   1.373  0.0644  0.9963 -0.9152
 3217TIP3    H231067   5.764   3.025   1.408 -1.2964  0.7262  0.0750
 3218TIP3   OH231068   4.708   1.084   2.294  0.5020 -0.1363 -0.0906
 3218TIP3    H131069   4.659   1.152   2.341 -1.1828 -2.0616  1.1607
 3218TIP3    H231070   4.783   1.066   2.350  1.4454  1.2744 -0.8753
 3219TIP3   OH231071   0.487   1.776  15.929 -0.2562  0.4415  0.1668
 3219TIP3    H131072   0.424   1.790  15.858 -1.1722  0.1620  0.9091
 3219TIP3    H231073   0.445   1.712  15.986  1.5386 -1.2859 -0.3396
 3220TIP3   OH231074   0.737   0.601  12.555 -0.0380 -0.1843 -0.4873
 3220TIP3    H131075   0.655   0.558  12.529 -0.8897  1.3789 -0.4684
 3220TIP3    H231076   0.729   0.613  12.650 -0.7813  1.9170 -0.7753
 3221TIP3   OH231077   4.985   2.761   0.421  0.1702 -0.7650  0.0885
 3221TIP3    H131078   5.049   2.806   0.366  0.6188  1.3173  2.1818
 3221TIP3    H231079   4.901   2.794   0.392  0.2775 -0.8266 -0.3080
 3222TIP3   OH231080   0.340   5.207   5.431  0.2818  0.2277 -0.1623
 3222TIP3    H131081   0.393   5.266   5.484  1.2561  0.1326 -0.9982
 3222TIP3    H231082   0.404   5.159   5.379 -0.6369  0.3767 -1.4661
 3223TIP3   OH231083   0.324   1.195  14.419 -0.3856 -0.2431  0.2711
 3223TIP3    H131084   0.238   1.229  14.444 -0.1631  0.7342 -0.2076
 3223TIP3    H231085   0.320   1.188  14.323  0.5957  1.4455  0.0555
 3224TIP3   OH231086   6.125   2.092  13.885  0.0505 -0.1667  0.4624
 3224TIP3    H131087   6.199   2.061  13.937  1.4087 -1.3410 -1.9663
 3224TIP3    H231088   6.165   2.146  13.817 -1.3763 -0.4475 -0.6352
 3225TIP3   OH231089   6.676   6.493   6.503  0.2391 -0.4463 -0.1179
 3225TIP3    H131090   6.753   6.529   6.546 -1.7907  1.5245  2.1943
 3225TIP3    H231091   6.665   6.406   6.542 -0.3824  0.4897  1.9079
 3226TIP3   OH231092   4.488   0.720  15.343 -0.2269  0.9391  0.1233
 3226TIP3    H131093   4.517   0.642  15.296 -0.0066  1.5837 -0.8364
 3226TIP3    H231094   4.396   0.702  15.363  0.0063  0.1444  0.5439
 3227TIP3   OH231095   4.097   5.919   0.823 -0.3503  0.0198  0.4789
 3227TIP3    H131096   4.149   5.958   0.894  0.2741  0.4985 -0.2238
 3227TIP3    H231097   4.067   5.993   0.771 -0.1421 -0.3649 -0.2042
 3228TIP3   OH231098   5.071   1.352   4.970  0.6799  0.1553  0.0547
 3228TIP3    H131099   5.038   1.352   4.880 -0.4715  1.8525  0.4216
 3228TIP3    H231100   5.005   1.304   5.020 -0.2010  1.6901  0.4309
 3229TIP3   OH231101   4.361   5.786   4.505  0.0873  0.1293  0.0780
 3229TIP3    H131102   4.320   5.752   4.426  0.8404  3.3441 -1.9127
 3229TIP3    H231103   4.450   5.808   4.478  1.3110 -1.1591  2.6535
 3230TIP3   OH231104   4.522   6.718  15.290  0.0085 -0.2970 -0.0333
 3230TIP3    H131105   4.583   6.696  15.220 -0.5369  0.7329 -0.8527
 3230TIP3    H231106   4.558   6.798  15.329 -0.2036 -0.3364  0.2465
 3231TIP3   OH231107   5.815   4.081  15.700  0.3670  0.2673  0.1788
 3231TIP3    H131108   5.795   4.173  15.681 -1.1913 -0.3111 -1.3050
 3231TIP3    H231109   5.729   4.040  15.710  1.0375 -1.0862  0.5977
 3232TIP3   OH231110   5.057   0.169   5.260  0.4065 -0.5428 -0.1697
 3232TIP3    H131111   5.008   0.219   5.324  0.6632 -1.1591  0.5174
 3232TIP3    H231112   5.091   0.093   5.308  3.3820  0.6370 -0.1647
 3233TIP3   OH231113   5.863   3.666   2.559  0.4533 -0.0429 -0.3897
 3233TIP3    H131114   5.828   3.603   2.621  1.2268 -0.2896 -0.1863
 3233TIP3    H231115   5.844   3.628   2.473 -1.1892  0.6119 -0.3379
 3234TIP3   OH231116   1.683   6.628   3.164  0.3154  0.0089 -0.1149
 3234TIP3    H131117   1.698   6.671   3.079  0.0409 -1.0765 -0.7361
 3234TIP3    H231118   1.648   6.542   3.141 -0.2105 -0.1294  1.1249
 3235TIP3   OH231119   5.436   3.410  14.574  0.2558  0.2023 -0.2896
 3235TIP3    H131120   5.384   3.385  14.498  0.1774 -0.8644  0.1006
 3235TIP3    H231121   5.515   3.449  14.536  0.1812 -0.2363 -0.9226
 3236TIP3   OH231122   1.298   6.408   2.735 -0.8249  0.0204 -0.0868
 3236TIP3    H131123   1.253   6.366   2.661 -0.9878 -2.3686  1.2743
 3236TIP3    H231124   1.245   6.385   2.811  0.7527  0.1788  1.1075
 3237TIP3   OH231125   1.845   4.208   5.125  0.1238 -0.5848  0.1737
 3237TIP3    H131126   1.867   4.293   5.161 -0.8816 -0.2379  0.0045
 3237TIP3    H231127   1.880   4.209   5.036  1.2056 -0.8349  0.5844
 3238TIP3   OH231128   5.323   3.597   4.097  0.3172 -0.8766  0.6776
 3238TIP3    H131129   5.407   3.554   4.107  0.2241 -1.1712  0.2190
 3238TIP3    H231130   5.286   3.560   4.016 -0.5589 -1.2713  1.2393
 3239TIP3   OH231131   4.479   0.048  17.124 -0.1913  0.7210 -0.0088
 3239TIP3    H131132   4.530  -0.001  17.189 -0.8303  1.2567  0.9334
 3239TIP3    H231133   4.524   0.133  17.118 -1.5625  1.6543  1.7272
 3240TIP3   OH231134   5.006   3.448  11.310  0.8237  0.3029  0.5192
 3240TIP3    H131135   4.959   3.531  11.308 -1.0286 -0.6661  1.2154
 3240TIP3    H231136   5.091   3.469  11.349 -0.4299  1.5424  2.8051
 3241TIP3   OH231137   2.536   5.037  11.164  0.1184 -0.0752  0.2776
 3241TIP3    H131138   2.539   4.958  11.110 -1.3230 -0.5780  0.8920
 3241TIP3    H231139   2.518   5.107  11.102  0.3147 -0.3800 -0.1342
 3242TIP3   OH231140   1.332   3.794  11.988  0.5685  0.3934  0.1119
 3242TIP3    H131141   1.364   3.713  12.028 -0.7571  0.2178  0.8833
 3242TIP3    H231142   1.384   3.863  12.029 -1.4409  0.3295  3.0957
 3243TIP3   OH231143   4.387   4.679  16.867 -0.4916  0.1282 -0.6442
 3243TIP3    H131144   4.411   4.754  16.812  0.4667 -0.1550 -0.6235
 3243TIP3    H231145   4.449   4.682  16.940 -0.2430 -0.8753 -0.8098
 3244TIP3   OH231146   0.228   6.139   2.047  0.3989 -0.0047  0.2653
 3244TIP3    H131147   0.170   6.069   2.018  1.3080 -1.0999  0.9902
 3244TIP3    H231148   0.170   6.212   2.068 -0.6590 -0.8627  0.4032
 3245TIP3   OH231149   4.486   6.390  14.783  0.0518  0.5723 -0.5511
 3245TIP3    H131150   4.564   6.425  14.740  0.4722  1.6999  1.0290
 3245TIP3    H231151   4.505   6.298  14.797 -1.2643 -0.7163 -5.2526
 3246TIP3   OH231152   6.196   3.426   2.527 -0.4773  0.0301  0.4131
 3246TIP3    H131153   6.231   3.341   2.500  1.8389  1.1091 -0.1993
 3246TIP3    H231154   6.217   3.485   2.454 -2.2226  1.1157  0.7307
 3247TIP3   OH231155   0.881   1.087   3.901  0.7582  0.5912  0.9573
 3247TIP3    H131156   0.817   1.079   3.972  0.3526  0.5122  0.5823
 3247TIP3    H231157   0.852   1.025   3.834 -0.6691  2.8525 -0.6523
 3248TIP3   OH231158   3.770   0.386  13.407  0.1203  0.2083 -0.7453
 3248TIP3    H131159   3.756   0.366  13.499 -1.0124 -1.1041 -1.1758
 3248TIP3    H231160   3.740   0.477  13.397 -1.9089 -0.3628 -0.2511
 3249TIP3   OH231161   2.951   0.793   1.537  0.7574 -0.0050 -0.0017
 3249TIP3    H131162   2.981   0.807   1.626  0.3211 -0.8141  0.2865
 3249TIP3    H231163   2.970   0.875   1.492  0.8990  0.4436  0.8529
 3250TIP3   OH231164   3.863   3.349   0.177  0.1118  0.7828  0.0017
 3250TIP3    H131165   3.921   3.321   0.106  0.5966 -0.7265  0.9445
 3250TIP3    H231166   3.908   3.321   0.257 -2.0681 -0.8676  0.7649
 3251TIP3   OH231167   4.668   5.424  17.091 -0.1068  0.5243  0.3332
 3251TIP3    H131168   4.743   5.376  17.125  0.0587  0.6581  0.1539
 3251TIP3    H231169   4.608   5.431  17.166  0.0994  0.5011  0.4998
 3252TIP3   OH231170   4.228   0.873  14.400 -0.5847 -0.1943  0.4042
 3252TIP3    H131171   4.245   0.791  14.446 -1.6546 -0.6473  0.0374
 3252TIP3    H231172   4.181   0.927  14.464  2.6869  1.3641  1.6942
 3253TIP3   OH231173   0.643   1.153   4.051  0.3350  0.2797 -0.0279
 3253TIP3    H131174   0.663   1.235   4.006  2.4336  0.2041  0.6705
 3253TIP3    H231175   0.625   1.179   4.141 -0.0886  0.0686 -0.0483
 3254TIP3   OH231176   3.851   1.269   2.044 -0.7158  0.6692 -0.2494
 3254TIP3    H131177   3.806   1.184   2.042  1.4344 -0.6278  1.3252
 3254TIP3    H231178   3.939   1.250   2.012 -0.4776  2.5500 -0.8199
 3255TIP3   OH231179   1.657   4.166  13.895 -0.1546  0.3676  0.4839
 3255TIP3    H131180   1.689   4.126  13.814 -0.4633  2.0213 -0.5232
 3255TIP3    H231181   1.650   4.259  13.873 -1.7942  0.6266  1.9310
 3256TIP3   OH231182   0.864   6.537   5.976  0.2903 -0.1749  0.0867
 3256TIP3    H131183   0.915   6.480   5.919  0.3253  0.3983 -0.4674
 3256TIP3    H231184   0.850   6.617   5.924 -0.0740  0.1734  0.7053
 3257TIP3   OH231185   5.386   5.288  14.270  0.0861 -0.3129 -0.1321
 3257TIP3    H131186   5.291   5.288  14.257  0.0024  1.7457  0.1612
 3257TIP3    H231187   5.421   5.341  14.199  1.1468 -1.8012 -0.7745
 3258TIP3   OH231188   2.931   0.461  11.371 -0.0344  0.6814 -0.3277
 3258TIP3    H131189   2.997   0.464  11.303 -0.0923 -0.0678 -0.4236
 3258TIP3    H231190   2.852   0.498  11.330 -0.3815 -0.7782 -1.0374
 3259TIP3   OH231191   4.759   4.993  15.718 -0.3571 -0.1854 -0.0847
 3259TIP3    H131192   4.847   4.955  15.728 -0.7573 -1.5932 -1.5992
 3259TIP3    H231193   4.739   5.028  15.805  2.0617  1.0025  0.0752
 3260TIP3   OH231194   6.573   2.292  14.658 -0.5803 -0.0070  0.3605
 3260TIP3    H131195   6.581   2.203  14.693  0.5002 -0.0167  0.1271
 3260TIP3    H231196   6.612   2.287  14.571  1.9614  1.2531  1.3346
 3261TIP3   OH231197   3.485   5.926  12.056  0.1074  1.6039  0.0022
 3261TIP3    H131198   3.502   5.970  12.139  0.0183 -0.3254  1.0983
 3261TIP3    H231199   3.390   5.933  12.044 -0.1806  0.1312  1.1481
 3262TIP3   OH231200   2.607   1.312   1.256  0.2346  0.1234 -0.1638
 3262TIP3    H131201   2.535   1.358   1.213 -0.2283 -1.6010 -1.3618
 3262TIP3    H231202   2.574   1.289   1.342 -1.0267 -1.3197 -0.9653
 3263TIP3   OH231203   2.027   0.559   2.374  0.0467  0.1943 -0.0763
 3263TIP3    H131204   1.981   0.603   2.302 -0.1761  0.9238  0.5063
 3263TIP3    H231205   2.108   0.528   2.334 -0.7760 -0.8239 -1.0373
 3264TIP3   OH231206   1.693   2.519   4.977 -0.5935 -0.3949  0.1346
 3264TIP3    H131207   1.751   2.477   4.913  0.7925  1.2597  0.2392
 3264TIP3    H231208   1.719   2.611   4.977  0.1882 -0.4726  3.8312
 3265TIP3   OH231209   0.324   5.494   0.139 -0.2257 -0.0385  0.1092
 3265TIP3    H131210   0.290   5.409   0.166 -0.9958  0.4562  0.7441
 3265TIP3    H231211   0.410   5.500   0.180 -0.5086 -0.1817  0.7366
 3266TIP3   OH231212   5.287   0.525   3.031 -0.1598 -0.4430  0.5095
 3266TIP3    H131213   5.271   0.436   3.059 -1.6571 -0.5822 -0.6421
 3266TIP3    H231214   5.255   0.528   2.941 -0.3202  1.2978  0.5834
 3267TIP3   OH231215   1.145   3.047   4.947  0.1775 -0.2091  0.2645
 3267TIP3    H131216   1.228   3.095   4.957  0.3669 -0.5068  0.1472
 3267TIP3    H231217   1.092   3.102   4.891  0.3134 -0.0333  0.3075
 3268TIP3   OH231218   2.592   3.179   1.160 -0.0343 -0.1002 -0.5277
 3268TIP3    H131219   2.563   3.238   1.231  0.2883  0.7893 -1.1129
 3268TIP3    H231220   2.512   3.162   1.110 -0.3880 -1.2310  0.3855
 3269TIP3   OH231221   4.156   0.410  17.003 -0.2642 -0.1072  0.1087
 3269TIP3    H131222   4.126   0.361  16.927  1.0297 -1.3382  0.3535
 3269TIP3    H231223   4.249   0.386  17.012 -0.5657 -0.6230  2.5272
 3270TIP3   OH231224   1.585   1.914  12.210 -0.8936  0.0691 -0.6449
 3270TIP3    H131225   1.547   1.830  12.240 -0.5404 -0.4514 -1.6265
 3270TIP3    H231226   1.609   1.898  12.119 -0.5492  1.1621 -0.7520
 3271TIP3   OH231227   0.617   0.796   3.478 -0.7262 -0.0556 -0.3897
 3271TIP3    H131228   0.652   0.721   3.430  1.4147  0.7340 -0.1995
 3271TIP3    H231229   0.637   0.776   3.570  0.0690  0.8214 -0.3609
 3272TIP3   OH231230   2.333   0.823   3.629  0.4460 -0.3284  0.1217
 3272TIP3    H131231   2.394   0.883   3.586  0.8462  1.0519  2.4548
 3272TIP3    H231232   2.288   0.877   3.694 -0.9261 -2.0495  0.6845
 3273TIP3   OH231233   4.726   1.448  16.031  0.1863 -0.3177 -0.1999
 3273TIP3    H131234   4.760   1.408  16.111  1.1614  0.5242 -0.1761
 3273TIP3    H231235   4.762   1.536  16.031 -0.7806  0.0888 -0.9705
 3274TIP3   OH231236   0.871   4.975  11.608 -0.2732 -0.2802  0.2797
 3274TIP3    H131237   0.951   4.985  11.659 -0.2297  1.9551 -0.1081
 3274TIP3    H231238   0.901   4.948  11.521  0.1526  0.8954  0.0320
 3275TIP3   OH231239   2.003   2.767   2.609  0.0168 -0.2380  0.4974
 3275TIP3    H131240   2.079   2.808   2.568 -0.0169  1.4996  2.0322
 3275TIP3    H231241   2.031   2.677   2.628  0.6789 -0.4960 -1.4539
 3276TIP3   OH231242   5.069   5.031   5.212  0.2313  0.3369 -0.0211
 3276TIP3    H131243   4.986   4.983   5.206  1.0034 -1.0300 -0.1092
 3276TIP3    H231244   5.079   5.051   5.305  0.2740 -0.3968  0.1437
 3277TIP3   OH231245   0.590   2.838   1.686 -0.0296 -0.0009 -0.4663
 3277TIP3    H131246   0.633   2.893   1.621 -0.2420  0.8612  0.1184
 3277TIP3    H231247   0.497   2.852   1.672 -0.2185  3.8368  2.9282
 3278TIP3   OH231248   6.105   2.221   4.675  0.1634 -0.2704 -0.2705
 3278TIP3    H131249   6.141   2.206   4.587 -0.4621 -2.2425 -0.2246
 3278TIP3    H231250   6.182   2.222   4.732  0.4558 -0.3528 -0.6544
 3279TIP3   OH231251   0.736   3.016   4.535  0.0621  0.0640 -0.4013
 3279TIP3    H131252   0.800   2.992   4.602  0.0900 -0.3074 -0.5586
 3279TIP3    H231253   0.655   2.973   4.563  0.4107 -1.2857 -1.3310
 3280TIP3   OH231254   1.233   3.520  14.622  0.0280 -0.4101  0.2546
 3280TIP3    H131255   1.234   3.424  14.630  0.3312 -0.4323 -0.0273
 3280TIP3    H231256   1.295   3.550  14.688  0.5988 -0.4578 -0.2514
 3281TIP3   OH231257   3.096   0.985   5.672  0.2163  0.1801  0.1967
 3281TIP3    H131258   3.176   0.932   5.682  1.7305  2.3643  0.2509
 3281TIP3    H231259   3.041   0.957   5.744  1.2189 -0.8700  0.6054
 3282TIP3   OH231260   3.107   2.122  14.817  0.0545 -0.0422 -0.4388
 3282TIP3    H131261   3.163   2.047  14.836  0.7469  0.7159  0.7016
 3282TIP3    H231262   3.169   2.190  14.787 -0.6655 -0.2111 -2.4553
 3283TIP3   OH231263   5.698   0.287  15.268 -0.0092  0.4103  0.1927
 3283TIP3    H131264   5.746   0.370  15.274 -0.0303  0.3910  0.5962
 3283TIP3    H231265   5.607   0.313  15.254  0.4062  0.4895 -3.5187
 3284TIP3   OH231266   1.096   3.751  15.814 -0.6845 -1.1729 -0.2153
 3284TIP3    H131267   1.153   3.722  15.744 -0.1526  0.4139 -0.4801
 3284TIP3    H231268   1.088   3.675  15.872  0.8840 -1.7344 -0.6852
 3285TIP3   OH231269   0.907   4.473   3.715 -0.4409  0.4417  0.1644
 3285TIP3    H131270   0.921   4.563   3.686 -3.7950  0.8307 -0.5756
 3285TIP3    H231271   0.917   4.420   3.636  3.3398 -0.2473  0.8897
 3286TIP3   OH231272   5.094   6.489   5.564 -0.2121  0.1989 -0.2250
 3286TIP3    H131273   5.143   6.407   5.565  0.9819  0.8794  0.4469
 3286TIP3    H231274   5.088   6.514   5.656  1.2631  1.8587 -0.5149
 3287TIP3   OH231275   2.421   6.208  13.493 -0.2359 -0.3685 -0.4106
 3287TIP3    H131276   2.456   6.295  13.474  1.9213 -1.3593 -1.3250
 3287TIP3    H231277   2.396   6.212  13.586  0.1588  1.1125 -0.3484
 3288TIP3   OH231278   3.827   6.053  17.171 -0.0171 -0.7695  0.3230
 3288TIP3    H131279   3.895   6.120  17.182 -1.7141  1.0539  0.2364
 3288TIP3    H231280   3.820   6.012  17.258 -0.2241  0.4737  0.9167
 3289TIP3   OH231281   0.787   2.511  11.268 -0.0092  0.4723 -0.0488
 3289TIP3    H131282   0.735   2.546  11.196 -1.0489 -0.2264  0.3438
 3289TIP3    H231283   0.761   2.419  11.274  0.6474  0.3221  0.7106
 3290TIP3   OH231284   1.368   6.374   3.553 -0.1583 -0.1565 -0.0782
 3290TIP3    H131285   1.389   6.420   3.472 -1.8218 -2.0367 -1.7129
 3290TIP3    H231286   1.388   6.436   3.622  1.1987  1.5957 -1.9168
 3291TIP3   OH231287   0.685   4.428   3.478  0.2285  0.0488 -0.7725
 3291TIP3    H131288   0.704   4.344   3.519  0.8658  0.4218 -0.2773
 3291TIP3    H231289   0.590   4.434   3.478  0.1974 -0.3653 -0.1660
 3292TIP3   OH231290   5.391   2.501  15.981  0.1857  0.2518  0.1931
 3292TIP3    H131291   5.303   2.504  15.943  0.0600  2.2098  0.5464
 3292TIP3    H231292   5.430   2.423  15.943 -2.1365 -1.4417  1.0314
 3293TIP3   OH231293   4.170   4.289   3.751  0.0305 -0.5190 -0.0578
 3293TIP3    H131294   4.209   4.365   3.794 -1.2634 -0.3859  0.9421
 3293TIP3    H231295   4.075   4.305   3.754 -0.4866 -3.2172  2.3038
 3294TIP3   OH231296   5.077   1.301  14.298 -0.3070  0.7385  0.3763
 3294TIP3    H131297   4.999   1.355  14.286 -1.6207 -1.1317 -0.0346
 3294TIP3    H231298   5.056   1.245  14.373  1.2689  1.2300  1.2071
 3295TIP3   OH231299   3.307   2.940   5.862 -0.0087 -0.1833 -0.5352
 3295TIP3    H131300   3.246   2.867   5.872 -0.9298  0.5256 -0.7677
 3295TIP3    H231301   3.250   3.017   5.853  0.9102  0.4322 -1.3080
 3296TIP3   OH231302   2.745   5.790  13.301 -0.1027 -0.6164  0.3171
 3296TIP3    H131303   2.742   5.703  13.341  0.1418 -0.4455  0.7132
 3296TIP3    H231304   2.716   5.849  13.370 -1.7885 -0.5330 -0.4231
 3297TIP3   OH231305   3.204   0.029  15.783 -0.4302 -0.5039 -0.7240
 3297TIP3    H131306   3.214   0.124  15.797 -0.4733 -0.4947 -0.7558
 3297TIP3    H231307   3.114   0.011  15.809 -0.1113 -0.7150  0.2786
 3298TIP3   OH231308   0.304   1.589  12.288  1.2248  0.8977 -0.2276
 3298TIP3    H131309   0.330   1.637  12.367 -0.4139  0.9426  0.3140
 3298TIP3    H231310   0.316   1.497  12.312  0.7058  0.9093  0.1053
 3299TIP3   OH231311   0.845   0.480  14.783 -0.3346  0.2096  0.3559
 3299TIP3    H131312   0.774   0.525  14.830 -0.3756  2.5632 -1.7624
 3299TIP3    H231313   0.924   0.501  14.833 -0.3328  2.9318 -0.6014
 3300TIP3   OH231314   6.597   5.496  17.165  0.4611  0.1114  0.0296
 3300TIP3    H131315   6.516   5.449  17.146  0.7522 -0.4655  0.1927
 3300TIP3    H231316   6.665   5.442  17.125  0.9803 -0.5384  1.6960
 3301TIP3   OH231317   0.451   1.138   2.705  0.0642  0.1144  0.3084
 3301TIP3    H131318   0.490   1.078   2.768 -1.2177 -0.5316  0.5328
 3301TIP3    H231319   0.360   1.109   2.697 -0.8048  2.4034  0.9097
 3302TIP3   OH231320   6.728   4.960   2.924  0.0778 -0.2969  0.0628
 3302TIP3    H131321   6.785   4.977   3.000  0.5881 -0.4266 -0.2855
 3302TIP3    H231322   6.729   4.865   2.914 -0.1097 -0.2902 -0.0101
 3303TIP3   OH231323   4.174   1.520  12.180  0.0768  0.1880 -0.0878
 3303TIP3    H131324   4.089   1.556  12.207 -0.2189  0.3304 -1.1705
 3303TIP3    H231325   4.154   1.466  12.104  0.9499  0.1403 -0.2913
 3304TIP3   OH231326   4.306   4.886  10.930 -0.5298  0.1064 -0.5911
 3304TIP3    H131327   4.218   4.915  10.906  0.0654  1.0960 -1.7191
 3304TIP3    H231328   4.292   4.816  10.993 -2.1356 -0.1862 -1.2195
 3305TIP3   OH231329   1.119   2.046  12.425 -0.1513 -0.4182 -0.1325
 3305TIP3    H131330   1.093   1.980  12.361 -2.0655  0.7523 -0.6680
 3305TIP3    H231331   1.206   2.074  12.398  1.1605 -3.3666  0.7062
 3306TIP3   OH231332   1.320   1.529   1.657 -0.0074 -0.8043  0.0317
 3306TIP3    H131333   1.368   1.602   1.696  0.5788 -0.2748 -1.5730
 3306TIP3    H231334   1.255   1.570   1.600  1.8346 -1.4007 -2.7045
 3307TIP3   OH231335   4.555   0.946  12.932  0.0673 -0.2340 -0.0885
 3307TIP3    H131336   4.516   1.007  12.870  1.1570  1.2565  0.6413
 3307TIP3    H231337   4.584   0.872  12.879 -1.9224 -0.5133 -0.8961
 3308TIP3   OH231338   2.622   4.896  16.000 -0.1337 -0.2401  0.5182
 3308TIP3    H131339   2.549   4.955  16.017 -1.1223 -0.5182 -2.2536
 3308TIP3    H231340   2.699   4.953  15.993 -0.8774  0.6273 -0.9824
 3309TIP3   OH231341   0.236   0.548  13.054 -0.0433  0.4992 -0.1216
 3309TIP3    H131342   0.222   0.620  13.115 -0.8073 -0.5018  0.9273
 3309TIP3    H231343   0.299   0.491  13.098  1.4694  1.0823 -1.4554
 3310TIP3   OH231344   1.766   6.029   0.264 -0.0728 -0.0520 -0.2952
 3310TIP3    H131345   1.769   6.056   0.356  0.3381 -0.4966 -0.1747
 3310TIP3    H231346   1.710   6.094   0.221 -1.1756 -0.4685  0.4761
 3311TIP3   OH231347   5.305   0.467  14.570 -0.0275  0.2793 -0.2823
 3311TIP3    H131348   5.356   0.387  14.581 -0.2822  0.0417 -0.8230
 3311TIP3    H231349   5.327   0.519  14.647  0.8746  0.0987 -0.4042
 3312TIP3   OH231350   0.730   2.660   4.914  0.4422  0.1545 -0.0633
 3312TIP3    H131351   0.710   2.571   4.885 -3.5452  1.1202 -0.8701
 3312TIP3    H231352   0.788   2.695   4.846  2.2921 -1.8415  0.4112
 3313TIP3   OH231353   5.252   2.311  12.158 -0.4911 -0.0726  0.4684
 3313TIP3    H131354   5.300   2.228  12.161 -0.1937  0.1195  2.1581
 3313TIP3    H231355   5.191   2.300  12.085  1.7142 -0.5076 -1.4217
 3314TIP3   OH231356   1.663   3.447   3.512 -0.0378 -0.1244 -0.0391
 3314TIP3    H131357   1.758   3.443   3.502  0.3258 -1.6126  3.0570
 3314TIP3    H231358   1.645   3.539   3.532  0.6650  0.2315 -0.9623
 3315TIP3   OH231359   6.062   2.665   5.890  0.3314 -0.1739 -0.0523
 3315TIP3    H131360   6.024   2.742   5.849  1.7266 -0.3754 -1.8581
 3315TIP3    H231361   6.024   2.664   5.978 -1.0632  1.5558 -0.5581
 3316TIP3   OH231362   2.000   3.400  13.144 -0.3358  0.1165 -0.5423
 3316TIP3    H131363   1.930   3.356  13.095  1.5073 -2.8383 -0.7667
 3316TIP3    H231364   2.079   3.383  13.094  1.1900 -0.4710  1.8937
 3317TIP3   OH231365   1.877   6.519   4.440 -0.1337  0.1859 -0.4384
 3317TIP3    H131366   1.948   6.480   4.389  1.0996 -0.6556  1.8051
 3317TIP3    H231367   1.917   6.596   4.481 -0.1029 -0.9658  1.8008
 3318TIP3   OH231368   2.011   4.604   3.481  0.2784  0.1740  0.5221
 3318TIP3    H131369   2.081   4.543   3.503  0.9277  1.0805  1.0374
 3318TIP3    H231370   2.055   4.677   3.437 -0.2900  0.9191  1.1650
 3319TIP3   OH231371   5.205   1.993   2.070  0.3938 -0.7155 -0.0255
 3319TIP3    H131372   5.241   1.965   2.154  1.2366  0.2523 -0.0374
 3319TIP3    H231373   5.224   2.087   2.066  0.6461 -0.8061 -1.4277
 3320TIP3   OH231374   5.998   4.366   1.117  0.1940  0.5213 -0.9281
 3320TIP3    H131375   6.003   4.352   1.022 -0.6335 -2.4994 -0.6405
 3320TIP3    H231376   5.942   4.443   1.126  2.0993  2.2673 -2.8722
 3321TIP3   OH231377   2.231   5.374   6.271  0.1156 -0.1091 -0.1228
 3321TIP3    H131378   2.254   5.414   6.187 -0.4577  0.3174 -0.0834
 3321TIP3    H231379   2.291   5.300   6.280  0.3609  0.0075 -0.7806
 3322TIP3   OH231380   3.083   6.243   1.935 -0.1999 -0.1428 -0.2406
 3322TIP3    H131381   3.034   6.217   1.857 -1.3845 -0.8527  0.6900
 3322TIP3    H231382   3.060   6.335   1.948 -0.1247 -0.0676 -0.6480
 3323TIP3   OH231383   5.518   5.016   5.934 -0.1727  0.1597  0.0777
 3323TIP3    H131384   5.463   4.979   5.866 -0.1743  0.9292 -0.3457
 3323TIP3    H231385   5.578   5.075   5.888 -0.9599  1.6250  0.8466
 3324TIP3   OH231386   5.758   6.386   3.808  0.2202 -0.0894 -0.5564
 3324TIP3    H131387   5.698   6.422   3.742 -0.2281 -0.0041 -0.1117
 3324TIP3    H231388   5.750   6.291   3.798 -1.1523 -0.1220  0.4922
 3325TIP3   OH231389   1.119   5.760   1.255 -0.4850  0.2874  0.6045
 3325TIP3    H131390   1.169   5.809   1.190 -0.5154 -1.4608 -0.8049
 3325TIP3    H231391   1.181   5.741   1.325  0.0830  0.4482  0.1467
 3326TIP3   OH231392   4.615   3.101   0.267  0.2465  0.3340 -0.2455
 3326TIP3    H131393   4.685   3.166   0.260  0.9615 -0.0867  2.1093
 3326TIP3    H231394   4.560   3.134   0.338 -1.4075  0.1129 -1.3626
 3327TIP3   OH231395   0.758   1.960  14.356  0.0771 -0.0158 -0.1042
 3327TIP3    H131396   0.710   1.923  14.282  0.0637  0.4431 -0.3335
 3327TIP3    H231397   0.743   1.899  14.428  1.2902 -1.2532 -0.8594
 3328TIP3   OH231398   2.453   5.202   3.743 -0.0931 -0.0055  0.2785
 3328TIP3    H131399   2.534   5.161   3.775 -0.5565 -2.2400 -1.1219
 3328TIP3    H231400   2.456   5.190   3.648 -1.5397  0.8716  0.0886
 3329TIP3   OH231401   1.724   1.846   3.310 -0.1181 -0.0642 -0.6748
 3329TIP3    H131402   1.769   1.893   3.381  0.6346 -1.7457  0.0057
 3329TIP3    H231403   1.721   1.909   3.238 -0.0325  1.3566  0.5173
 3330TIP3   OH231404   6.000   5.832  13.095  0.2736 -0.0889 -0.0589
 3330TIP3    H131405   5.913   5.819  13.058  0.0622  0.4823  0.2216
 3330TIP3    H231406   6.048   5.879  13.027  0.9515 -2.0050 -0.9608
 3331TIP3   OH231407   6.519   2.543  11.661 -0.1334 -0.0451 -0.7725
 3331TIP3    H131408   6.597   2.487  11.660  1.5818  2.0585  1.5472
 3331TIP3    H231409   6.467   2.510  11.734  0.3073  0.6415 -0.1394
 3332TIP3   OH231410   4.866   3.086   2.018  0.0433 -0.9095  0.1146
 3332TIP3    H131411   4.800   3.020   2.037 -0.5517 -0.4966 -0.4564
 3332TIP3    H231412   4.821   3.169   2.031  1.1395 -0.5674  2.0591
 3333TIP3   OH231413   3.291   1.682  17.143  0.1393 -0.1753 -0.3413
 3333TIP3    H131414   3.286   1.734  17.063 -1.1641  0.5133  0.1611
 3333TIP3    H231415   3.330   1.741  17.207  0.2888 -0.3998 -0.2276
 3334TIP3   OH231416   1.691   1.150   5.222  0.2983 -0.5974  0.4218
 3334TIP3    H131417   1.662   1.075   5.274 -0.2338 -0.5900  0.1362
 3334TIP3    H231418   1.681   1.225   5.281 -1.6235 -0.3832 -0.1047
 3335TIP3   OH231419   0.377   3.238   5.743 -0.0627  0.1255 -0.1874
 3335TIP3    H131420   0.301   3.209   5.692 -0.4562  2.3607 -0.9549
 3335TIP3    H231421   0.355   3.214   5.833 -1.8923  1.0357 -0.3339
 3336TIP3   OH231422   1.152   4.477  15.643 -0.5505  1.0661  0.8127
 3336TIP3    H131423   1.099   4.440  15.572  0.7958  0.3964  0.1245
 3336TIP3    H231424   1.179   4.402  15.695 -0.4669  1.4307  1.3046
 3337TIP3   OH231425   2.815   2.121   3.527 -0.0937 -0.1864  0.2164
 3337TIP3    H131426   2.779   2.182   3.463 -1.1011 -1.4975 -0.5178
 3337TIP3    H231427   2.841   2.045   3.475  0.9305 -0.4828  1.1385
 3338TIP3   OH231428   1.137   3.973   3.966  0.3100 -0.5511 -0.3501
 3338TIP3    H131429   1.080   3.898   3.952  0.7288 -1.6107  2.7751
 3338TIP3    H231430   1.224   3.935   3.980  1.4402  0.8743 -2.6660
 3339TIP3   OH231431   3.924   6.546  11.266  0.1523  0.1736  0.3546
 3339TIP3    H131432   3.903   6.481  11.334  3.4821  0.0820  1.4817
 3339TIP3    H231433   3.913   6.498  11.184 -3.2317  0.0651  0.7214
 3340TIP3   OH231434   2.045   4.983   3.150  0.0541 -0.2187  0.2002
 3340TIP3    H131435   2.047   4.947   3.238 -2.1159 -0.5647  0.1591
 3340TIP3    H231436   2.068   4.910   3.093 -0.2049 -0.4490  0.3870
 3341TIP3   OH231437   2.830   0.426  14.852  0.4070  0.1303  0.3902
 3341TIP3    H131438   2.745   0.468  14.859  1.4266  2.0905  1.8174
 3341TIP3    H231439   2.842   0.380  14.935  1.7532  1.9732  1.2695
 3342TIP3   OH231440   6.130   2.231   5.671 -0.0359 -0.2079  0.0090
 3342TIP3    H131441   6.067   2.278   5.727 -0.4743 -0.5454 -0.1903
 3342TIP3    H231442   6.195   2.196   5.732 -0.0923  0.0697  0.2297
 3343TIP3   OH231443   3.372   2.116   6.317  0.1204  0.6737  0.5203
 3343TIP3    H131444   3.300   2.141   6.260  0.1798  1.0749  0.6179
 3343TIP3    H231445   3.339   2.129   6.406 -0.4134 -1.1741  0.6176
 3344TIP3   OH231446   1.011   4.457   3.059 -0.3107  0.6594  1.0479
 3344TIP3    H131447   1.102   4.446   3.084 -0.5049 -0.5743  1.3167
 3344TIP3    H231448   0.971   4.371   3.077 -0.9998  0.4465 -1.1852
 3345TIP3   OH231449   4.366   2.270   6.366  0.1920 -0.0522 -0.4126
 3345TIP3    H131450   4.305   2.212   6.411 -1.0457  1.1060 -0.5288
 3345TIP3    H231451   4.385   2.339   6.430 -1.2252  1.3603 -1.4143
 3346TIP3   OH231452   0.901   6.716  12.900 -0.2933 -0.5185 -0.1040
 3346TIP3    H131453   0.825   6.732  12.844 -0.7712  1.3212  0.9659
 3346TIP3    H231454   0.976   6.742  12.846 -0.6390  0.0124 -0.3457
 3347TIP3   OH231455   5.703   5.212   0.019  0.1291 -0.1574 -0.5015
 3347TIP3    H131456   5.700   5.301  -0.018  0.7514  0.0780  0.0045
 3347TIP3    H231457   5.716   5.155  -0.057  1.3290  0.3154 -0.6626
 3348TIP3   OH231458   0.022   6.275  12.878 -0.1851  0.4263  0.0641
 3348TIP3    H131459   0.086   6.255  12.811 -0.4211 -0.9912  0.2430
 3348TIP3    H231460  -0.003   6.366  12.861 -0.5156 -0.0111 -1.9921
 3349TIP3   OH231461   0.744   6.460   0.776 -0.0085 -0.2349  0.1045
 3349TIP3    H131462   0.820   6.436   0.828  1.6598  1.7943 -1.2516
 3349TIP3    H231463   0.692   6.516   0.834  0.2454 -0.4562  0.5528
 3350TIP3   OH231464   2.283   4.974  11.340 -0.4190 -0.3385 -0.0885
 3350TIP3    H131465   2.265   4.884  11.314 -1.1460 -0.5915  1.2352
 3350TIP3    H231466   2.295   5.021  11.257 -0.2208 -1.6027 -0.7909
 3351TIP3   OH231467   4.535   2.931   0.588  0.1519 -0.1061 -0.4197
 3351TIP3    H131468   4.482   2.961   0.514  1.4492  0.3709 -1.1968
 3351TIP3    H231469   4.585   2.857   0.554  0.6317  0.0059  0.0224
 3352TIP3   OH231470   0.101   6.540   2.904  0.3625 -0.3879 -0.7323
 3352TIP3    H131471   0.101   6.462   2.848  2.1998 -0.5639 -0.5429
 3352TIP3    H231472   0.161   6.518   2.975  0.2260  0.8799 -0.2098
 3353TIP3   OH231473   2.978   1.875  15.842 -0.5352  0.2621 -0.0576
 3353TIP3    H131474   2.971   1.950  15.902  1.0440  0.6306 -0.2784
 3353TIP3    H231475   3.071   1.873  15.818 -1.0776  0.0121 -2.3376
 3354TIP3   OH231476   1.073   1.623  14.854 -0.0983 -0.0522 -0.2459
 3354TIP3    H131477   1.129   1.588  14.923  0.5257  0.8249 -0.3035
 3354TIP3    H231478   1.001   1.665  14.901  0.3956  0.6610 -0.1174
 3355TIP3   OH231479   4.954   5.815  13.723 -0.0008  0.5310 -0.5103
 3355TIP3    H131480   5.047   5.840  13.723  0.8709 -2.2926  1.1702
 3355TIP3    H231481   4.909   5.890  13.760  1.7285  1.6143 -0.4759
 3356TIP3   OH231482   4.237   1.150  15.995 -0.5403 -0.4478 -0.0233
 3356TIP3    H131483   4.199   1.191  16.073 -2.7368 -0.9915 -0.7143
 3356TIP3    H231484   4.271   1.223  15.944 -0.8520  0.1186  0.5607
 3357TIP3   OH231485   0.215   2.691   5.965  0.7143 -0.3414 -0.4218
 3357TIP3    H131486   0.223   2.610   5.915  0.0570 -1.2120  0.8318
 3357TIP3    H231487   0.195   2.663   6.054  1.5271  1.1706  0.2872
 3358TIP3   OH231488   4.619   0.237   4.759  0.4459 -0.7423  0.3443
 3358TIP3    H131489   4.714   0.238   4.773  0.7314  0.6330 -1.3215
 3358TIP3    H231490   4.609   0.217   4.666 -0.7906  0.9222  0.0681
 3359TIP3   OH231491   2.410   3.280  14.677 -0.4609 -0.2884  0.1226
 3359TIP3    H131492   2.441   3.327  14.599  1.0426 -0.2124  0.7396
 3359TIP3    H231493   2.450   3.194  14.670  0.5889  0.0752  1.3456
 3360TIP3   OH231494   0.609   4.281   3.099  0.0016  0.2096 -0.8331
 3360TIP3    H131495   0.658   4.232   3.165  0.6976  0.7779 -0.9139
 3360TIP3    H231496   0.619   4.373   3.124 -0.0538  0.4074 -1.5102
 3361TIP3   OH231497   6.185   2.072   1.326  0.4105 -0.2685 -0.0735
 3361TIP3    H131498   6.157   1.981   1.330 -1.3758  0.2153 -1.0356
 3361TIP3    H231499   6.264   2.074   1.381 -0.9655 -1.8524  2.1600
 3362TIP3   OH231500   6.585   6.095  16.609 -0.0357 -0.2816 -0.3281
 3362TIP3    H131501   6.563   6.182  16.577  2.2054 -0.3205 -2.2392
 3362TIP3    H231502   6.516   6.038  16.574 -0.5941  0.4933 -0.5033
 3363TIP3   OH231503   4.349   1.351   1.239 -0.0490 -0.4097 -0.0951
 3363TIP3    H131504   4.290   1.277   1.251  1.3185 -1.8392 -1.6192
 3363TIP3    H231505   4.295   1.428   1.258 -2.1944 -1.6621 -0.7196
 3364TIP3   OH231506   2.936   4.880   0.181  0.2797  0.2352 -0.5137
 3364TIP3    H131507   2.912   4.844   0.095  0.0764  1.2699 -0.9119
 3364TIP3    H231508   3.000   4.819   0.216 -0.6114 -0.9051 -0.8335
 3365TIP3   OH231509   5.436   5.178  17.217 -0.1377  0.2334 -0.6957
 3365TIP3    H131510   5.476   5.224  17.144  1.5008 -0.7385 -0.4467
 3365TIP3    H231511   5.401   5.248  17.273  1.2135  1.1217 -0.9228
 3366TIP3   OH231512   0.144   0.016  12.011 -0.5135  0.5780 -0.0718
 3366TIP3    H131513   0.111   0.091  11.962  3.3816  2.6316  0.0581
 3366TIP3    H231514   0.129   0.039  12.103  0.2624  1.0153 -0.0485
 3367TIP3   OH231515   5.721   4.695   2.763  0.5223  0.1375 -0.0446
 3367TIP3    H131516   5.668   4.677   2.841  0.4671  1.1307  0.1579
 3367TIP3    H231517   5.660   4.684   2.690  0.0594  1.1309  0.1777
 3368TIP3   OH231518   3.923   1.395  17.323 -0.1571 -0.3167  0.0437
 3368TIP3    H131519   3.905   1.306  17.352 -0.7015 -0.4385 -0.6138
 3368TIP3    H231520   3.891   1.450  17.394 -1.0905 -0.6152 -0.1268
 3369TIP3   OH231521   5.082   5.804   0.767  0.2292 -0.4021 -0.2328
 3369TIP3    H131522   5.110   5.824   0.856  2.7694  1.1589 -1.2944
 3369TIP3    H231523   5.023   5.875   0.743  0.6089 -0.0825 -0.2334
 3370TIP3   OH231524   1.834   3.569  16.853 -0.0328 -0.3587  0.1973
 3370TIP3    H131525   1.855   3.609  16.768  1.7431  0.2450  0.8775
 3370TIP3    H231526   1.765   3.506  16.833 -0.9765  1.0682 -1.3892
 3371TIP3   OH231527   0.554   0.526  12.883 -0.0106 -0.2516  0.1692
 3371TIP3    H131528   0.537   0.490  12.970  1.2462  1.4923  1.2167
 3371TIP3    H231529   0.636   0.575  12.893  0.4599 -0.4603 -2.1522
 3372TIP3   OH231530   0.952   4.511   3.455 -0.2379 -0.2861  0.0534
 3372TIP3    H131531   0.860   4.528   3.474 -0.6344 -0.7143 -1.3608
 3372TIP3    H231532   0.958   4.515   3.360  1.4646  0.9794  0.1603
 3373TIP3   OH231533   4.353   3.332   1.557  0.3137  0.1059 -0.0506
 3373TIP3    H131534   4.405   3.364   1.631 -0.9345 -1.0792  1.4215
 3373TIP3    H231535   4.416   3.289   1.500  1.1258 -0.2625  1.0897
 3374TIP3   OH231536   3.098   1.932   0.525  0.1110  0.0311  0.1680
 3374TIP3    H131537   3.152   1.858   0.553  1.5968  1.0283  0.0350
 3374TIP3    H231538   3.077   1.978   0.606 -0.2572 -0.1721  0.1871
 3375TIP3   OH231539   0.105   2.320  16.720 -0.4330 -0.3843 -0.4334
 3375TIP3    H131540   0.057   2.268  16.785  1.0506 -0.2321  0.8575
 3375TIP3    H231541   0.190   2.277  16.713 -0.3575 -0.0421 -1.8714
 3376TIP3   OH231542   1.955   4.398  15.824 -0.3246 -0.1537  0.2176
 3376TIP3    H131543   1.909   4.314  15.819 -0.5757  0.0618 -2.2161
 3376TIP3    H231544   1.896   4.455  15.874 -1.3518 -0.7223 -0.3258
 3377TIP3   OH231545   4.686   6.577   0.302  0.9361  0.0136 -0.5106
 3377TIP3    H131546   4.639   6.531   0.232 -0.6068  1.4612 -0.4943
 3377TIP3    H231547   4.759   6.620   0.256  0.2133  0.5638 -1.1833
 3378TIP3   OH231548   5.913   0.355  15.724 -0.0374  0.9176  0.0294
 3378TIP3    H131549   5.912   0.283  15.661  2.3186  1.1183 -0.3160
 3378TIP3    H231550   5.821   0.376  15.738 -0.6998 -0.8274 -1.3878
 3379TIP3   OH231551   2.195   3.268   5.755 -0.3197  0.2338 -0.6779
 3379TIP3    H131552   2.239   3.190   5.789  2.6609  1.4388 -1.4589
 3379TIP3    H231553   2.102   3.245   5.755  0.4060 -3.2734 -0.8052
 3380TIP3   OH231554   3.080   6.614  12.352  0.4615 -0.1151  0.2564
 3380TIP3    H131555   3.000   6.668  12.354  0.0341 -0.7570  0.9045
 3380TIP3    H231556   3.141   6.659  12.410  0.3358  0.0178  0.2867
 3381TIP3   OH231557   5.856   6.702  13.221 -0.0767 -0.0902  0.5396
 3381TIP3    H131558   5.839   6.672  13.310  1.2386  0.1907  0.9126
 3381TIP3    H231559   5.854   6.797  13.227  1.7604 -0.0154  0.6929
 3382TIP3   OH231560   4.211   4.354  14.888 -0.2202  0.2257 -0.3009
 3382TIP3    H131561   4.165   4.271  14.888  1.0199 -0.4995 -1.9238
 3382TIP3    H231562   4.142   4.420  14.874 -1.2069 -0.4840  1.0219
 3383TIP3   OH231563   2.348   3.395   0.562 -0.1585 -0.3463 -0.4315
 3383TIP3    H131564   2.384   3.307   0.573  0.6342  0.1433  1.2917
 3383TIP3    H231565   2.390   3.428   0.482  1.1777 -0.7940  0.0436
 3384TIP3   OH231566   4.444   1.096  12.539 -0.0985 -0.8124 -0.2295
 3384TIP3    H131567   4.389   1.126  12.466 -1.3646 -1.7874  0.2678
 3384TIP3    H231568   4.526   1.068  12.498 -0.4979 -0.6276 -1.1880
 3385TIP3   OH231569   5.600   5.960  13.914 -0.4512  0.1972  0.4693
 3385TIP3    H131570   5.589   5.924  14.002 -0.8626  0.9341  0.7219
 3385TIP3    H231571   5.584   6.054  13.924 -1.6067  0.1348 -0.5896
 3386TIP3   OH231572   5.989   4.767   5.098  0.5793  0.6225  0.3660
 3386TIP3    H131573   5.968   4.678   5.070  2.7600  0.3277 -0.5285
 3386TIP3    H231574   5.920   4.821   5.059  0.4521 -0.4351 -0.9712
 3387TIP3   OH231575   5.498   1.238  14.448 -0.1075  0.0270 -0.2498
 3387TIP3    H131576   5.441   1.245  14.524  0.3542  0.9751  0.0096
 3387TIP3    H231577   5.545   1.321  14.444  0.6936 -0.4397 -0.9170
 3388TIP3   OH231578   5.648   0.920  16.835  0.5931  0.1425  0.0084
 3388TIP3    H131579   5.646   0.990  16.900  2.0461 -0.2070  0.4758
 3388TIP3    H231580   5.683   0.844  16.883 -0.0377 -0.6297 -0.7318
 3389TIP3   OH231581   4.619   2.580   4.720 -0.3936  0.8162 -0.7545
 3389TIP3    H131582   4.594   2.539   4.637 -0.1566  0.3197 -0.5852
 3389TIP3    H231583   4.597   2.515   4.786  2.5131 -0.2318 -0.6815
 3390TIP3   OH231584   2.764   0.279   2.168  0.6204 -0.5477 -0.2011
 3390TIP3    H131585   2.703   0.264   2.095 -0.7468  0.2308  0.7266
 3390TIP3    H231586   2.717   0.246   2.245  0.8428  1.1592  0.7145
 3391TIP3   OH231587   1.415   4.652   1.349 -0.8129 -0.2672  0.1180
 3391TIP3    H131588   1.506   4.635   1.372 -1.1790 -2.6490 -0.0063
 3391TIP3    H231589   1.364   4.593   1.404 -2.2576  0.4869 -0.3527
 3392TIP3   OH231590   3.779   5.874   3.996 -0.0590  0.0753  0.0500
 3392TIP3    H131591   3.861   5.847   4.037 -0.4399  0.4348  1.0977
 3392TIP3    H231592   3.745   5.795   3.955  1.1017  0.0648 -0.9396
 3393TIP3   OH231593   3.662   2.807   3.921 -0.3108 -0.0047  0.2964
 3393TIP3    H131594   3.640   2.895   3.952 -3.3520  0.4442 -2.5471
 3393TIP3    H231595   3.679   2.757   4.001 -0.9772  2.5528  2.1729
 3394TIP3   OH231596   0.981   1.225   3.406  0.7595  0.2313  0.4537
 3394TIP3    H131597   0.931   1.245   3.327  0.5676 -1.8513  0.0103
 3394TIP3    H231598   0.925   1.164   3.455  0.2899  2.4098  2.8865
 3395TIP3   OH231599   5.546   3.166  14.232 -0.6414  0.4055 -0.0562
 3395TIP3    H131600   5.572   3.254  14.204  0.1052  0.5816  1.1261
 3395TIP3    H231601   5.471   3.144  14.175  0.5875  0.8483 -1.9411
 3396TIP3   OH231602   6.476   3.830  14.267 -0.1528 -0.0401  0.0631
 3396TIP3    H131603   6.508   3.902  14.321 -0.7463  0.2171  0.0791
 3396TIP3    H231604   6.411   3.870  14.209  1.2937 -0.0555 -1.6817
 3397TIP3   OH231605   6.122   1.501   4.823  0.0108  0.8307 -0.1276
 3397TIP3    H131606   6.216   1.514   4.806 -0.0982  1.3825 -0.3003
 3397TIP3    H231607   6.112   1.522   4.916 -0.2579  2.5273 -0.5255
 3398TIP3   OH231608   3.527   2.592   3.800  0.1199  0.6887  0.1842
 3398TIP3    H131609   3.542   2.684   3.820  0.4088  0.7508 -0.3086
 3398TIP3    H231610   3.589   2.545   3.857 -0.3220  0.7722  0.7433
 3399TIP3   OH231611   5.035   6.540  11.950 -0.2462  0.0530 -0.4483
 3399TIP3    H131612   5.051   6.447  11.933  1.7375  0.2480  0.0790
 3399TIP3    H231613   5.121   6.581  11.940 -0.1044  1.1365  3.4330
 3400TIP3   OH231614   3.258   2.372  17.163 -0.2350  0.1741 -0.0262
 3400TIP3    H131615   3.234   2.330  17.081 -1.6177 -0.4987  0.6857
 3400TIP3    H231616   3.354   2.375  17.162 -0.2389  0.8410 -1.9603
 3401TIP3   OH231617   6.646   4.232   0.245 -0.2586  0.0985 -0.0612
 3401TIP3    H131618   6.622   4.314   0.287 -1.7155  0.0624 -0.7543
 3401TIP3    H231619   6.732   4.250   0.205  0.3667  0.6354  1.4354
 3402TIP3   OH231620   1.286   2.383  16.160  0.0177  0.2580 -0.4739
 3402TIP3    H131621   1.240   2.463  16.187  0.7724  0.3282  0.7172
 3402TIP3    H231622   1.255   2.366  16.071 -0.6857  1.4831 -0.4925
 3403TIP3   OH231623   3.545   6.565  14.596 -0.0146  0.0633  0.4109
 3403TIP3    H131624   3.523   6.523  14.679 -0.8733 -2.1121 -0.8511
 3403TIP3    H231625   3.472   6.545  14.538  0.1730  2.2307 -0.6854
 3404TIP3   OH231626   0.999   1.808   2.491 -0.0124 -0.1199  0.0333
 3404TIP3    H131627   1.049   1.727   2.504  0.0541  0.0410  0.8506
 3404TIP3    H231628   0.908   1.779   2.481  0.1997 -0.4033 -1.3138
 3405TIP3   OH231629   4.317   0.453   3.870  0.3277 -0.3390 -0.4408
 3405TIP3    H131630   4.383   0.386   3.853  1.2130 -0.0034  1.4672
 3405TIP3    H231631   4.255   0.412   3.930 -1.4832 -0.7608 -2.4565
 3406TIP3   OH231632   4.948   2.838  15.661  0.2492  0.1385  0.3718
 3406TIP3    H131633   4.911   2.926  15.660 -1.8842 -0.6887 -1.2762
 3406TIP3    H231634   5.019   2.841  15.597 -1.0536  0.2331 -1.1275
 3407TIP3   OH231635   3.394   5.190   4.224 -0.0671 -0.3461 -0.1311
 3407TIP3    H131636   3.415   5.158   4.312  2.5868 -0.5419 -0.7548
 3407TIP3    H231637   3.413   5.116   4.167 -1.6403 -0.1783 -0.9421
 3408TIP3   OH231638   3.332   6.107  14.042 -0.4291 -0.2225  0.1650
 3408TIP3    H131639   3.270   6.075  13.977 -0.1106 -2.3852  0.8369
 3408TIP3    H231640   3.364   6.027  14.086 -0.2091  1.0870  2.5726
 3409TIP3   OH231641   3.338   2.259   1.018 -0.0102 -0.0985 -0.1703
 3409TIP3    H131642   3.365   2.350   1.017 -1.1480  0.3894 -4.4516
 3409TIP3    H231643   3.256   2.259   1.067  0.4713  0.9803  0.6712
 3410TIP3   OH231644   4.968   6.253   1.093 -0.4845  0.1621 -0.2207
 3410TIP3    H131645   4.880   6.244   1.129 -0.6129 -0.6789 -0.7031
 3410TIP3    H231646   4.968   6.339   1.051 -1.2335 -0.0051 -0.5984
 3411TIP3   OH231647   5.259   1.861  13.024  0.3498 -0.1198  0.0356
 3411TIP3    H131648   5.307   1.786  13.060 -1.1407 -0.5128  1.3357
 3411TIP3    H231649   5.221   1.904  13.101 -2.1952 -0.4428 -0.9444
 3412TIP3   OH231650   6.142   4.309   4.938  0.4987 -0.7714  0.3400
 3412TIP3    H131651   6.133   4.389   4.886  0.9612 -0.4390  0.7546
 3412TIP3    H231652   6.167   4.242   4.875  1.2396 -0.3318  0.1497
 3413TIP3   OH231653   6.543   1.291   4.372  0.8899  0.9824  0.3733
 3413TIP3    H131654   6.553   1.255   4.284 -1.2032  0.8152  0.1493
 3413TIP3    H231655   6.518   1.382   4.358  3.9998  2.0461  0.9137
 3414TIP3   OH231656   5.687   4.913   6.105  0.2375  0.3980  0.6565
 3414TIP3    H131657   5.711   4.843   6.045 -1.7827  0.0876  0.1101
 3414TIP3    H231658   5.625   4.967   6.055 -1.1732  0.3739  2.2682
 3415TIP3   OH231659   3.974   0.547   3.234 -0.0686 -0.0756 -0.2167
 3415TIP3    H131660   4.008   0.497   3.161  0.4459 -0.0829  0.0242
 3415TIP3    H231661   3.881   0.559   3.214  0.3305  1.1255 -1.5696
 3416TIP3   OH231662   0.640   5.251   0.448 -0.0356  0.2241 -0.2766
 3416TIP3    H131663   0.597   5.165   0.442  0.6656 -0.2399  0.9338
 3416TIP3    H231664   0.707   5.239   0.516  0.5858  1.5211 -0.6388
 3417TIP3   OH231665   0.217   1.717  12.884  0.1608 -0.0566  0.6145
 3417TIP3    H131666   0.206   1.721  12.979 -0.0088  1.2007  0.5587
 3417TIP3    H231667   0.135   1.681  12.852 -0.3870  0.9275  0.8566
 3418TIP3   OH231668   4.345   5.685   2.293  0.0070 -0.0807  0.2135
 3418TIP3    H131669   4.266   5.734   2.269  1.3000  3.1309  1.8765
 3418TIP3    H231670   4.412   5.716   2.231  0.8044  0.0442  1.1225
 3419TIP3   OH231671   0.939   1.604  15.177  0.0309 -0.1236  0.9069
 3419TIP3    H131672   0.866   1.555  15.213 -0.4083  0.0579  0.2845
 3419TIP3    H231673   0.902   1.688  15.151  0.4220 -0.0857  0.4425
 3420TIP3   OH231674   6.417   2.470  14.819  0.1836  0.2885 -0.5300
 3420TIP3    H131675   6.487   2.535  14.818  0.6426 -0.1523  1.0425
 3420TIP3    H231676   6.364   2.492  14.895  0.8965 -1.6770  0.6328
 3421TIP3   OH231677   1.323   0.669  14.875 -0.3955 -0.0907 -0.3513
 3421TIP3    H131678   1.400   0.704  14.830  0.5745  0.1741  1.4349
 3421TIP3    H231679   1.274   0.747  14.901  1.3594  0.0672  2.9279
 3422TIP3   OH231680   4.510   5.311   2.603 -0.0417  0.0660 -0.0611
 3422TIP3    H131681   4.458   5.324   2.682 -0.9598 -1.2208 -0.4224
 3422TIP3    H231682   4.590   5.268   2.633  0.0256  0.4122  0.2668
 3423TIP3   OH231683   0.782   1.494   6.689  0.3334 -0.1405  0.7905
 3423TIP3    H131684   0.821   1.579   6.670  0.7543 -0.4528  0.2350
 3423TIP3    H231685   0.687   1.511   6.687  0.3332 -0.0803 -1.3650
 3424TIP3   OH231686   4.908   1.356  15.426  0.0443 -0.5141 -0.0727
 3424TIP3    H131687   4.995   1.317  15.414 -0.6512 -1.5370 -2.4489
 3424TIP3    H231688   4.923   1.450  15.422  1.0968 -0.6575  0.1641
 3425TIP3   OH231689   4.436   5.946  13.060  0.3253  0.0503  0.1164
 3425TIP3    H131690   4.405   5.918  13.146  0.0596 -0.2385 -0.0714
 3425TIP3    H231691   4.411   6.039  13.054 -1.0348 -0.3278 -0.2633
 3426TIP3   OH231692   6.455   5.455  15.924 -0.0839  0.0189 -0.0838
 3426TIP3    H131693   6.544   5.437  15.894  0.0807  1.6330 -0.7227
 3426TIP3    H231694   6.442   5.398  15.999  2.2094  1.0766  1.2228
 3427TIP3   OH231695   2.986   2.341   1.621 -0.0077 -0.1854 -0.1881
 3427TIP3    H131696   3.018   2.426   1.651  0.6620 -1.1548  2.0262
 3427TIP3    H231697   3.048   2.278   1.657  1.1621 -1.5331 -4.0679
 3428TIP3   OH231698   1.333   0.552   3.838  0.1183 -0.0408  0.1852
 3428TIP3    H131699   1.401   0.551   3.771  0.2405  2.8611  0.1460
 3428TIP3    H231700   1.380   0.566   3.920 -0.3122  1.1827  0.2517
 3429TIP3   OH231701   3.379   5.593   5.249  0.6983  0.1672 -0.2702
 3429TIP3    H131702   3.288   5.597   5.280  0.4059 -1.2747 -0.8763
 3429TIP3    H231703   3.428   5.642   5.314 -0.1582 -1.2475  1.5259
 3430TIP3   OH231704   2.466   3.089   5.114 -0.0057  0.0486 -0.5609
 3430TIP3    H131705   2.374   3.094   5.091  0.3419  0.6505 -1.8578
 3430TIP3    H231706   2.469   3.117   5.206 -0.9950  0.8918 -0.7713
 3431TIP3   OH231707   4.298   1.667   5.139  0.2399  0.3822  0.4750
 3431TIP3    H131708   4.289   1.762   5.134  0.5101  0.3764 -0.2569
 3431TIP3    H231709   4.230   1.633   5.080  0.2247  0.1227  0.6379
 3432TIP3   OH231710   3.135   2.598   1.604  0.0330 -0.1909 -0.3658
 3432TIP3    H131711   3.197   2.527   1.621  0.2848  0.0037 -0.4704
 3432TIP3    H231712   3.137   2.610   1.510 -0.1939 -0.2106 -0.3727
 3433TIP3   OH231713   3.416   0.514   4.309 -0.0606 -0.7280  0.6441
 3433TIP3    H131714   3.459   0.500   4.225  2.7536  2.0213  1.4469
 3433TIP3    H231715   3.397   0.607   4.311  0.4707 -0.6056  3.2403
 3434TIP3   OH231716   6.706   1.260   3.601 -0.4102  0.5680  0.0769
 3434TIP3    H131717   6.715   1.319   3.675 -1.6040  0.3404  0.4340
 3434TIP3    H231718   6.788   1.211   3.599 -0.8540 -0.3520  2.0792
 3435TIP3   OH231719   4.470   0.474  11.350 -0.1118 -0.0972  0.2288
 3435TIP3    H131720   4.506   0.528  11.279 -0.5754  0.0341  0.0899
 3435TIP3    H231721   4.463   0.386  11.311  1.2104 -0.4093  0.6409
 3436TIP3   OH231722   5.358   4.242  12.483 -0.6436  0.0731  0.0227
 3436TIP3    H131723   5.375   4.181  12.411 -1.3173 -2.2361  1.7016
 3436TIP3    H231724   5.264   4.239  12.495 -0.5537  0.5502  0.8952
 3437TIP3   OH231725   3.783   0.756  13.707 -0.0187 -0.2887  0.0521
 3437TIP3    H131726   3.870   0.796  13.712 -0.0262  0.2504 -2.7594
 3437TIP3    H231727   3.741   0.800  13.634 -2.8873 -0.2442  1.5971
 3438TIP3   OH231728   0.703   1.607  14.402  0.2453  0.1218 -0.2404
 3438TIP3    H131729   0.720   1.657  14.323 -0.5747  0.9995  0.1183
 3438TIP3    H231730   0.622   1.560  14.383  2.5238 -3.6549 -1.7623
 3439TIP3   OH231731   3.460   5.429   1.985 -0.2361  0.8149  0.0662
 3439TIP3    H131732   3.384   5.485   1.998 -0.2512  0.9434 -0.5632
 3439TIP3    H231733   3.465   5.416   1.891  0.1820  0.3311  0.1483
 3440TIP3   OH231734   2.878   1.211   5.421  0.2062 -0.7452  0.8562
 3440TIP3    H131735   2.841   1.171   5.343  0.8549  1.1680 -0.4950
 3440TIP3    H231736   2.825   1.176   5.493 -2.2662 -0.4611 -0.6821
 3441TIP3   OH231737   6.504   6.700   4.160  0.2199  0.0078  0.0046
 3441TIP3    H131738   6.546   6.783   4.137 -0.6920 -0.3554 -3.6106
 3441TIP3    H231739   6.448   6.721   4.235  2.0754  1.9185  0.9613
 3442TIP3   OH231740   2.888   5.622   2.420  0.1437 -0.5626  0.1275
 3442TIP3    H131741   2.854   5.671   2.495 -0.2078 -1.0989  0.3258
 3442TIP3    H231742   2.869   5.531   2.441  1.1778 -0.8296 -0.0265
 3443TIP3   OH231743   1.690   5.934   3.627  0.7339  0.0761  0.0028
 3443TIP3    H131744   1.615   5.914   3.572  1.8431 -0.9968 -1.1840
 3443TIP3    H231745   1.682   5.873   3.701  1.7678 -1.9313 -1.4300
 3444TIP3   OH231746   3.176   4.463   3.332  0.3251  0.1252 -0.3156
 3444TIP3    H131747   3.259   4.435   3.295  0.3363  0.5026 -0.5909
 3444TIP3    H231748   3.135   4.514   3.262 -0.0168  0.1650 -0.0898
 3445TIP3   OH231749   2.336   1.592   2.086 -0.6288 -0.3389  0.2645
 3445TIP3    H131750   2.417   1.628   2.123 -1.7883  0.7559  1.9054
 3445TIP3    H231751   2.345   1.497   2.095  1.0873 -0.3477 -1.0262
 3446TIP3   OH231752   4.813   5.981  11.048 -0.5162  0.9729  0.2866
 3446TIP3    H131753   4.728   5.988  11.004 -0.2458 -0.0176 -0.4522
 3446TIP3    H231754   4.867   5.933  10.986  0.2728  0.6710  1.1879
 3447TIP3   OH231755   4.956   4.068   0.551  0.0339 -0.4559 -0.0631
 3447TIP3    H131756   4.909   4.031   0.477  0.0868  1.8404 -1.3438
 3447TIP3    H231757   5.048   4.062   0.526  0.3069 -2.4243  1.2180
 3448TIP3   OH231758   4.424   0.556   1.372  0.5179  0.5707  0.4290
 3448TIP3    H131759   4.391   0.627   1.317 -0.7219 -0.1135  0.2633
 3448TIP3    H231760   4.400   0.582   1.461 -0.2579  0.2022  0.3344
 3449TIP3   OH231761   0.367   0.013  12.268  0.0944 -0.2140 -0.7071
 3449TIP3    H131762   0.454   0.033  12.233 -0.3354  0.8717 -1.1590
 3449TIP3    H231763   0.321   0.096  12.269 -0.0842 -0.2470  1.9945
 3450TIP3   OH231764   6.250   3.225   2.747 -0.2582  0.5589 -0.1330
 3450TIP3    H131765   6.236   3.215   2.841  1.4398 -1.3479 -0.0039
 3450TIP3    H231766   6.335   3.268   2.740  0.0495 -0.1142 -0.7601
 3451TIP3   OH231767   0.701   5.416  15.312  0.0434 -0.5198  0.5879
 3451TIP3    H131768   0.659   5.350  15.368  0.0714 -1.1418 -0.1132
 3451TIP3    H231769   0.628   5.465  15.274 -0.0665 -1.4819 -0.4862
 3452TIP3   OH231770   5.132   5.274  11.143 -0.0552  0.1861 -0.6008
 3452TIP3    H131771   5.047   5.235  11.123  0.0242  0.9512 -2.7539
 3452TIP3    H231772   5.189   5.246  11.071  1.7319 -0.8423  1.1154
 3453TIP3   OH231773   3.459   5.986  12.997  0.6166  0.1366 -0.0939
 3453TIP3    H131774   3.429   5.899  12.972 -0.3664  0.0588  1.2658
 3453TIP3    H231775   3.536   5.971  13.051  1.0145  0.1681 -0.6443
 3454TIP3   OH231776   2.907   1.972  14.431  0.1320 -0.1680 -0.2278
 3454TIP3    H131777   2.927   2.061  14.460 -0.2510 -0.5424  1.2709
 3454TIP3    H231778   2.909   1.919  14.511 -1.1255 -1.2352 -0.8530
 3455TIP3   OH231779   2.089   6.206   6.268  0.2061  0.1280 -0.4214
 3455TIP3    H131780   2.170   6.179   6.311  0.5412  0.9237 -0.5551
 3455TIP3    H231781   2.071   6.293   6.302 -0.1222  0.3174 -1.0647
 3456TIP3   OH231782   2.717   1.979  17.328  0.6982  1.0700 -0.0704
 3456TIP3    H131783   2.785   1.933  17.378  1.4385  0.9382 -1.1606
 3456TIP3    H231784   2.717   1.936  17.242 -2.0635 -0.1629  0.4494
 3457TIP3   OH231785   4.697   0.519   2.657 -0.3744  0.1630 -0.1608
 3457TIP3    H131786   4.623   0.533   2.717 -0.3522  0.2656 -0.1556
 3457TIP3    H231787   4.727   0.608   2.637 -0.0411  0.1116  0.0977
 3458TIP3   OH231788   2.121   5.336  16.785  0.6863  0.5968 -0.1697
 3458TIP3    H131789   2.092   5.386  16.861  3.1280  0.8444  0.6680
 3458TIP3    H231790   2.141   5.402  16.719 -1.8678  0.3678 -1.2915
 3459TIP3   OH231791   4.880   2.713   5.697 -0.1872  0.1210 -0.2984
 3459TIP3    H131792   4.860   2.635   5.644 -0.7301  0.6954 -0.9754
 3459TIP3    H231793   4.922   2.773   5.635  1.6404 -0.1940  0.5788
 3460TIP3   OH231794   6.695   5.293  11.684 -0.1748 -0.2610  0.6789
 3460TIP3    H131795   6.700   5.351  11.760  0.8472 -0.1005  0.5044
 3460TIP3    H231796   6.694   5.205  11.721  0.2753 -0.1818  0.8950
 3461TIP3   OH231797   4.850   4.366  14.925  0.2412  0.1402 -0.6208
 3461TIP3    H131798   4.858   4.459  14.944  0.5134  0.8983 -3.7612
 3461TIP3    H231799   4.920   4.324  14.975  0.2822  1.6453  0.6391
 3462TIP3   OH231800   5.305   1.325   0.010  0.1296 -0.0715  0.0488
 3462TIP3    H131801   5.359   1.404   0.022  0.8869 -0.2026 -2.0195
 3462TIP3    H231802   5.367   1.259  -0.022 -1.0610 -0.5517 -1.3335
 3463TIP3   OH231803   0.556   1.798  13.923 -0.1090  0.4918  0.1233
 3463TIP3    H131804   0.508   1.716  13.926  1.7716 -0.7150 -0.9212
 3463TIP3    H231805   0.600   1.797  13.838 -0.0932  2.6295  0.0467
 3464TIP3   OH231806   6.207   1.937  17.380 -0.1303 -0.2026 -0.7049
 3464TIP3    H131807   6.194   2.015  17.327  1.7970  0.3451 -0.4506
 3464TIP3    H231808   6.260   1.967  17.454  0.3210 -1.6686 -0.4036
 3465TIP3   OH231809   2.948   2.561  13.126 -0.1505 -1.4197  0.0323
 3465TIP3    H131810   3.036   2.525  13.115  0.7854  0.9714 -1.0247
 3465TIP3    H231811   2.930   2.606  13.043 -2.1416 -1.3733  0.4374
 3466TIP3   OH231812   0.191   6.727   4.992  0.1480  0.1765 -0.2926
 3466TIP3    H131813   0.119   6.744   5.053 -1.7737  0.6244 -2.5401
 3466TIP3    H231814   0.210   6.812   4.954 -1.3907 -0.5890 -3.0294
 3467TIP3   OH231815   6.002   4.437   4.253  0.2234 -0.2405  0.2876
 3467TIP3    H131816   6.061   4.513   4.250  0.8040 -0.6633  0.7402
 3467TIP3    H231817   5.953   4.442   4.171  1.4298 -0.2861 -0.4763
 3468TIP3   OH231818   6.190   1.019  14.455  0.2260 -0.1080  0.3193
 3468TIP3    H131819   6.130   1.041  14.526 -2.0173 -1.2758 -1.0809
 3468TIP3    H231820   6.182   1.093  14.394 -0.9288 -0.8618 -0.4994
 3469TIP3   OH231821   0.821   2.856  16.226  0.4791  0.0610 -0.3767
 3469TIP3    H131822   0.790   2.881  16.139 -0.7596 -1.3044 -0.3663
 3469TIP3    H231823   0.744   2.817  16.268  1.6479 -1.4389  0.4624
 3470TIP3   OH231824   4.088   3.340  15.145  0.1636 -0.8646  0.3651
 3470TIP3    H131825   4.000   3.307  15.127  0.7880 -2.4936  0.1396
 3470TIP3    H231826   4.110   3.305  15.231  0.2167  0.4091  0.8968
 3471TIP3   OH231827   4.005   4.595  15.404 -0.1699  0.0102  0.2840
 3471TIP3    H131828   4.028   4.677  15.361  0.2491  0.9637  2.2370
 3471TIP3    H231829   3.909   4.596  15.407 -0.1430  0.9080  1.1550
 3472TIP3   OH231830   1.126   4.160  12.737  0.4290 -0.2470  0.0635
 3472TIP3    H131831   1.078   4.114  12.805 -0.7521  1.1996  0.2528
 3472TIP3    H231832   1.137   4.249  12.770  0.3114  0.3400 -1.3767
 3473TIP3   OH231833   4.860   1.760   1.189 -0.5567  0.3220 -0.3237
 3473TIP3    H131834   4.907   1.809   1.122  0.0193 -0.4470 -0.4995
 3473TIP3    H231835   4.869   1.668   1.162 -0.8982  0.0551  0.4439
 3474TIP3   OH231836   0.419   0.666  15.278 -0.3292 -0.2334 -0.0755
 3474TIP3    H131837   0.443   0.600  15.343 -0.6285  0.1378  0.4184
 3474TIP3    H231838   0.354   0.622  15.222  1.4029 -1.2321 -1.4089
 3475TIP3   OH231839   6.700   2.042  12.689  0.9031 -0.9639  0.2269
 3475TIP3    H131840   6.625   1.988  12.663 -0.0673 -0.0792  1.1211
 3475TIP3    H231841   6.671   2.088  12.767  1.1017  2.1090 -1.3787
 3476TIP3   OH231842   2.648   0.413   5.094  0.0228  0.3814 -0.0347
 3476TIP3    H131843   2.667   0.496   5.051 -2.1216  0.8493 -0.2185
 3476TIP3    H231844   2.700   0.414   5.175  0.9360  1.3361 -0.6227
 3477TIP3   OH231845   0.416   6.171   2.924  0.0442 -0.1893  0.0414
 3477TIP3    H131846   0.354   6.176   2.851  2.8051 -0.5921 -2.5469
 3477TIP3    H231847   0.420   6.260   2.958  0.0452  0.4797 -1.6043
 3478TIP3   OH231848   2.588   5.307  16.903  0.2223 -0.5707 -0.3354
 3478TIP3    H131849   2.587   5.233  16.964  1.8145 -1.3698 -1.1877
 3478TIP3    H231850   2.591   5.385  16.958 -0.5075 -1.1814  0.5841
 3479TIP3   OH231851   3.627   3.817  14.851  0.0301 -0.2813 -0.2410
 3479TIP3    H131852   3.695   3.781  14.909  0.4307  1.1838  0.2520
 3479TIP3    H231853   3.641   3.911  14.854 -2.1579  0.0892  0.0248
 3480TIP3   OH231854   2.213   1.981  14.221 -0.2156  0.1450  0.3656
 3480TIP3    H131855   2.231   1.977  14.127  1.4765  0.2868  0.6555
 3480TIP3    H231856   2.148   1.912  14.236  2.0230 -2.2956 -0.3935
 3481TIP3   OH231857   4.351   0.927   2.875  0.1280  0.0277  0.0213
 3481TIP3    H131858   4.302   0.989   2.822  0.1797  0.8936  0.9598
 3481TIP3    H231859   4.441   0.933   2.842  0.4617  1.6271  1.1013
 3482TIP3   OH231860   5.401   6.657   0.199  0.2948 -0.0373  0.2846
 3482TIP3    H131861   5.482   6.674   0.151 -0.5474  0.5548 -1.0007
 3482TIP3    H231862   5.351   6.598   0.142 -0.7927  0.7849  0.3452
 3483TIP3   OH231863   0.380   6.160  14.121  0.5590  0.3218  0.1134
 3483TIP3    H131864   0.392   6.251  14.097 -1.5404  0.5327 -0.2595
 3483TIP3    H231865   0.470   6.125  14.127  1.3705  2.2158 -0.3322
 3484TIP3   OH231866   2.244   2.205  15.892  0.1515 -0.3413  0.4448
 3484TIP3    H131867   2.182   2.187  15.963  0.3534 -2.4623  0.1300
 3484TIP3    H231868   2.327   2.173  15.925 -0.0180 -2.7096 -1.2552
 3485TIP3   OH231869   5.153   6.065   1.008  0.6205  0.1296 -0.5546
 3485TIP3    H131870   5.082   6.119   1.041 -0.5208 -0.6787 -1.5756
 3485TIP3    H231871   5.190   6.115   0.936  0.9264  0.4481 -0.1757
 3486TIP3   OH231872   2.258   5.455   6.014  0.0522  0.2834 -0.6906
 3486TIP3    H131873   2.238   5.367   5.980  1.1255 -0.2122 -0.0823
 3486TIP3    H231874   2.320   5.492   5.951 -0.2362  0.5240 -0.8340
 3487TIP3   OH231875   1.734   4.145   0.320  0.6301  0.0956  0.1249
 3487TIP3    H131876   1.701   4.149   0.410  0.5426  0.3668  0.0821
 3487TIP3    H231877   1.829   4.136   0.330  0.6096  0.0135  0.2452
 3488TIP3   OH231878   2.519   0.957   1.489  0.0717  0.2256  0.5561
 3488TIP3    H131879   2.583   0.910   1.435  0.3589 -0.3592  1.3732
 3488TIP3    H231880   2.553   0.948   1.579 -0.2795  1.3462  0.8149
 3489TIP3   OH231881   1.757   2.285   3.643  0.1236 -0.0344 -0.1347
 3489TIP3    H131882   1.734   2.370   3.607  3.5391  0.4842 -1.4374
 3489TIP3    H231883   1.779   2.303   3.735 -1.3962  0.0227  0.2322
 3490TIP3   OH231884   4.873   4.243  10.580 -0.2414  0.3528 -0.6627
 3490TIP3    H131885   4.909   4.307  10.518  0.1632  1.6142  0.8237
 3490TIP3    H231886   4.816   4.188  10.526  0.8915  0.7424 -2.3538
 3491TIP3   OH231887   1.681   6.366  16.611 -0.0140  0.3098 -0.2154
 3491TIP3    H131888   1.655   6.393  16.699 -1.1295  1.6629 -0.9181
 3491TIP3    H231889   1.643   6.432  16.553  1.8025  0.1876 -1.6462
 3492TIP3   OH231890   0.642   2.577   1.629  0.2414 -0.1598  0.1742
 3492TIP3    H131891   0.606   2.521   1.697 -1.1313 -1.0029 -1.1814
 3492TIP3    H231892   0.634   2.666   1.663  0.6451 -0.6291  1.5523
 3493TIP3   OH231893   5.528   5.958   5.549 -0.0182 -0.5561 -0.2109
 3493TIP3    H131894   5.493   5.928   5.465 -0.1652  0.3989 -0.4987
 3493TIP3    H231895   5.581   5.884   5.581 -0.7957 -1.3188 -0.6421
 3494TIP3   OH231896   6.301   1.470  12.388 -0.1017  0.0287  0.2673
 3494TIP3    H131897   6.392   1.441  12.398 -0.1514 -0.8314 -1.3907
 3494TIP3    H231898   6.252   1.389  12.374 -0.9134  0.6049 -0.2575
 3495TIP3   OH231899   3.971   0.732  13.208 -0.6668 -0.4872  0.8762
 3495TIP3    H131900   3.997   0.690  13.290  1.9136 -2.5669 -0.8538
 3495TIP3    H231901   4.034   0.803  13.196 -2.3090  1.1730  1.6171
 3496TIP3   OH231902   1.993   5.347  13.667 -0.5110  0.5086  0.4072
 3496TIP3    H131903   2.041   5.374  13.745 -0.3003  0.0452  0.4393
 3496TIP3    H231904   1.903   5.337  13.697 -0.6487  1.4279  0.3358
 3497TIP3   OH231905   0.405   2.538   4.844 -0.6880 -0.7858  0.0223
 3497TIP3    H131906   0.386   2.463   4.788 -1.1116 -0.5322 -0.1826
 3497TIP3    H231907   0.401   2.614   4.785 -1.2708 -0.5034  0.4142
 3498TIP3   OH231908   0.268   4.028   5.006  0.6592  0.0462  0.5066
 3498TIP3    H131909   0.246   3.935   4.991  2.5626 -0.7673  2.3161
 3498TIP3    H231910   0.254   4.069   4.920  0.7417 -2.1061 -0.6216
 3499TIP3   OH231911   1.100   5.259   2.814  0.1780  0.0225 -0.0729
 3499TIP3    H131912   1.120   5.352   2.808 -1.1127  0.3065 -0.1541
 3499TIP3    H231913   1.183   5.215   2.792  0.4336  1.1291 -1.3994
 3500TIP3   OH231914   4.657   2.227   3.081 -0.1710  0.1110 -0.3267
 3500TIP3    H131915   4.714   2.151   3.070  0.7657  0.6411  0.7664
 3500TIP3    H231916   4.707   2.300   3.044 -0.8918  0.2977 -0.9790
 3501TIP3   OH231917   0.128   1.664   5.152 -0.5272 -0.1347  0.4898
 3501TIP3    H131918   0.135   1.582   5.103 -0.6502  0.0871  0.0963
 3501TIP3    H231919   0.109   1.637   5.241 -1.3307 -0.5141  0.2114
 3502TIP3   OH231920   1.099   1.212  12.384 -0.3671  0.4684 -0.2186
 3502TIP3    H131921   1.167   1.258  12.336 -2.1934  2.0292 -1.4374
 3502TIP3    H231922   1.094   1.126  12.342  0.1882  0.6830 -0.7304
 3503TIP3   OH231923   4.015   2.188   3.763  0.0320 -0.0346 -0.6825
 3503TIP3    H131924   4.110   2.180   3.773 -0.0477 -0.1949 -0.0003
 3503TIP3    H231925   3.989   2.248   3.833 -0.2801  0.6133 -1.3352
 3504TIP3   OH231926   1.754   6.154  16.092  0.0555 -0.3502  0.1505
 3504TIP3    H131927   1.773   6.223  16.156 -1.9913 -0.7513  1.2505
 3504TIP3    H231928   1.777   6.193  16.008  0.2345  1.1672  0.8693
 3505TIP3   OH231929   0.829   4.933   0.330  0.0691  0.1609 -0.0863
 3505TIP3    H131930   0.872   4.984   0.398 -1.8150  0.9952  0.5289
 3505TIP3    H231931   0.857   4.974   0.248  1.3220 -0.0412  0.2196
 3506TIP3   OH231932   0.521   6.576  16.531 -0.3725 -0.2514  0.3399
 3506TIP3    H131933   0.471   6.604  16.608 -0.8835 -1.9950  0.7023
 3506TIP3    H231934   0.455   6.539  16.472  0.0924  0.5256 -0.6888
 3507TIP3   OH231935   1.870   2.642   5.476  0.0878 -0.0130  0.0056
 3507TIP3    H131936   1.805   2.650   5.545 -2.1959  0.2848 -2.0576
 3507TIP3    H231937   1.836   2.573   5.419  0.4628  1.5636 -2.2457
 3508TIP3   OH231938   5.878   2.575   1.459  0.5052 -0.3809 -0.0804
 3508TIP3    H131939   5.870   2.649   1.519 -1.5420 -0.2856 -0.4117
 3508TIP3    H231940   5.840   2.606   1.377  1.3425 -1.2032 -0.8059
 3509TIP3   OH231941   4.053   6.343  14.145  0.0808 -0.3620 -0.0373
 3509TIP3    H131942   3.993   6.415  14.124 -0.7032 -0.6996  0.9960
 3509TIP3    H231943   4.115   6.342  14.072 -0.5461  0.6610 -0.6079
 3510TIP3   OH231944   0.644   2.775  15.378 -0.0151 -0.1902 -0.0021
 3510TIP3    H131945   0.594   2.734  15.306  1.8374 -1.3070 -0.7078
 3510TIP3    H231946   0.710   2.711  15.401  0.1153  0.6082  2.0172
 3511TIP3   OH231947   5.324   2.427   4.714  0.6523  0.0066 -0.3473
 3511TIP3    H131948   5.246   2.469   4.749  1.5283  0.9331  0.5629
 3511TIP3    H231949   5.292   2.372   4.642 -0.5202  2.5216 -1.8842
 3512TIP3   OH231950   3.987   1.511   4.666  0.1841 -0.2542  0.5075
 3512TIP3    H131951   4.055   1.537   4.604 -0.5455  0.6881  0.0646
 3512TIP3    H231952   4.035   1.478   4.742  1.1012 -0.9789 -0.3604
 3513TIP3   OH231953   1.153   3.351  16.947 -0.0282  0.1218  0.1973
 3513TIP3    H131954   1.122   3.415  16.883  0.8099  0.6480  0.3004
 3513TIP3    H231955   1.179   3.403  17.023  1.0234 -0.2960  0.1384
 3514TIP3   OH231956   2.814   0.545  15.845 -0.3743  0.7047 -0.4069
 3514TIP3    H131957   2.723   0.516  15.832 -0.3853  0.8262 -0.6103
 3514TIP3    H231958   2.806   0.629  15.891 -0.5406  2.5450 -3.4896
 3515TIP3   OH231959   5.651   0.936   1.815  0.2702  0.0646 -0.0837
 3515TIP3    H131960   5.642   0.841   1.820  0.8509 -0.0199 -0.5595
 3515TIP3    H231961   5.743   0.954   1.835  0.2020  0.5156 -0.1472
 3516TIP3   OH231962   0.364   1.486   3.862 -0.7639  0.3994 -0.2764
 3516TIP3    H131963   0.428   1.420   3.837 -2.4822 -0.8923 -1.5462
 3516TIP3    H231964   0.358   1.479   3.957 -0.7321 -1.1443 -0.3573
 3517TIP3   OH231965   4.880   3.377  11.692 -0.4328  0.5894  0.4014
 3517TIP3    H131966   4.900   3.303  11.750  0.5447 -0.3014 -1.0237
 3517TIP3    H231967   4.959   3.430  11.693 -0.5205  0.7258  0.1117
 3518TIP3   OH231968   3.776   4.904   4.620 -0.0223 -0.0945  0.4508
 3518TIP3    H131969   3.720   4.883   4.695 -0.0163  1.0587  0.7938
 3518TIP3    H231970   3.851   4.950   4.658 -1.5135  3.4132 -0.4945
 3519TIP3   OH231971   4.821   1.686   6.614  0.2777 -0.1726  0.0076
 3519TIP3    H131972   4.789   1.601   6.643  0.7474 -0.1349  0.6408
 3519TIP3    H231973   4.836   1.736   6.694  1.6008 -0.0743 -0.2827
 3520TIP3   OH231974   2.337   4.233   1.657 -0.2828  0.1507 -0.1056
 3520TIP3    H131975   2.312   4.200   1.571 -0.0030  0.5656 -0.3453
 3520TIP3    H231976   2.387   4.161   1.696 -1.1383 -0.3708  0.0569
 3521TIP3   OH231977   6.679   6.316   5.877  0.2064 -0.5370 -0.4720
 3521TIP3    H131978   6.716   6.228   5.871 -0.4147 -0.9605  1.3891
 3521TIP3    H231979   6.740   6.363   5.934 -1.5094 -0.9822  1.8810
 3522TIP3   OH231980   6.335   1.326   4.066  0.2848 -0.4058  0.3388
 3522TIP3    H131981   6.265   1.376   4.107  0.2439 -0.7153  0.6542
 3522TIP3    H231982   6.289   1.259   4.015  0.3515 -1.3323  1.4590
 3523TIP3   OH231983   6.124   0.203   3.410  0.9048  0.0444 -0.2914
 3523TIP3    H131984   6.101   0.271   3.473 -0.3267 -0.0890 -0.5696
 3523TIP3    H231985   6.148   0.128   3.464  1.8904  0.5587  0.0148
 3524TIP3   OH231986   1.114   3.331  16.138 -0.1954  0.1602  0.5029
 3524TIP3    H131987   1.089   3.393  16.070  0.2718  0.6843  0.8047
 3524TIP3    H231988   1.030   3.299  16.173 -0.4329  0.3524  0.1079
 3525TIP3   OH231989   1.790   4.150   5.646 -0.7891 -0.3449  0.0599
 3525TIP3    H131990   1.882   4.138   5.672 -0.4281 -0.5216 -1.2400
 3525TIP3    H231991   1.794   4.207   5.569 -1.8170  0.0956  0.3166
 3526TIP3   OH231992   3.120   1.927   6.225 -0.4847  0.3011  0.1746
 3526TIP3    H131993   3.078   1.847   6.194 -0.4757  0.1525  0.5455
 3526TIP3    H231994   3.204   1.899   6.260 -0.3612  0.5109  0.0469
 3527TIP3   OH231995   2.441   2.697  15.626  0.4486 -0.0239 -0.0867
 3527TIP3    H131996   2.455   2.607  15.599  1.2935 -0.0472  0.3886
 3527TIP3    H231997   2.376   2.731  15.564  0.1528 -0.9364 -0.2941
 3528TIP3   OH231998   4.411   5.241   5.280 -0.1886  0.2560 -0.1134
 3528TIP3    H131999   4.482   5.306   5.274 -1.6569  2.4001  2.9095
 3528TIP3    H232000   4.349   5.269   5.213 -0.0356  0.9556  0.0200
 3529TIP3   OH232001   0.218   2.077  13.628  0.1882 -0.2612 -0.4172
 3529TIP3    H132002   0.226   2.160  13.675  0.8999  0.0844 -1.1410
 3529TIP3    H232003   0.251   2.011  13.690  0.4270  0.0994 -0.1596
 3530TIP3   OH232004   0.282   2.887  14.439 -0.2420 -0.0926  0.2276
 3530TIP3    H132005   0.342   2.900  14.365 -0.5669  2.7225  0.3589
 3530TIP3    H232006   0.327   2.926  14.513 -1.8090  1.2107  0.5347
 3531TIP3   OH232007   6.579   2.221   5.588  0.2774  0.0245  0.2194
 3531TIP3    H132008   6.535   2.165   5.524  2.4416 -1.0740 -0.4396
 3531TIP3    H232009   6.601   2.300   5.539  0.5932 -0.1782  0.0291
 3532TIP3   OH232010   2.368   2.952   5.529  0.1465  0.0678  0.2205
 3532TIP3    H132011   2.427   2.988   5.594  1.6159 -0.2131 -0.8995
 3532TIP3    H232012   2.327   3.029   5.489 -2.8360  0.2206  3.1601
 3533TIP3   OH232013   4.803   1.437  14.467 -0.0561  0.4732 -0.4139
 3533TIP3    H132014   4.867   1.435  14.539 -1.3260 -0.3644  0.7592
 3533TIP3    H232015   4.792   1.529  14.447 -0.1455  0.7812  0.9463
 3534TIP3   OH232016   6.512   0.441  15.370  0.4815  0.4589  0.3277
 3534TIP3    H132017   6.484   0.524  15.409  0.5375  0.6871 -0.1076
 3534TIP3    H232018   6.568   0.467  15.296  2.0208  0.0227  1.2846
 3535TIP3   OH232019   2.687   3.585   3.896  0.2794 -0.4242 -0.3579
 3535TIP3    H132020   2.641   3.501   3.904 -0.8131  0.1081 -0.8810
 3535TIP3    H232021   2.668   3.614   3.807  1.1038  0.1315 -0.3649
 3536TIP3   OH232022   3.720   4.212   5.832  0.8103  0.5096 -0.1315
 3536TIP3    H132023   3.791   4.148   5.844 -0.5572 -1.2812 -1.0308
 3536TIP3    H232024   3.675   4.183   5.752 -0.3172  2.2010 -0.1610
 3537TIP3   OH232025   1.065   3.292  14.870 -0.0095  0.4628  0.1336
 3537TIP3    H132026   1.062   3.275  14.776 -0.6727  0.5112  0.1425
 3537TIP3    H232027   1.052   3.387  14.878  0.3403  0.5025  0.2612
 3538TIP3   OH232028   0.157   5.040   3.092 -0.4813  0.0121 -0.0159
 3538TIP3    H132029   0.238   5.026   3.043 -0.3313 -0.6210  0.3989
 3538TIP3    H232030   0.185   5.055   3.182 -0.6775  2.4555 -0.2942
 3539TIP3   OH232031   6.104   0.202   5.934  0.1334 -0.2063 -0.6363
 3539TIP3    H132032   6.079   0.138   6.000  1.4356  0.6927  0.7916
 3539TIP3    H232033   6.138   0.150   5.861  1.8389 -1.1606  0.7699
 3540TIP3   OH232034   0.839   0.074   5.706  0.4432  0.4199  0.0748
 3540TIP3    H132035   0.778   0.006   5.679  0.7019  0.0058  0.5235
 3540TIP3    H232036   0.784   0.143   5.744  0.2977 -0.2250  1.0597
 3541TIP3   OH232037   2.321   0.681   5.173  0.5144  0.1621 -0.1168
 3541TIP3    H132038   2.294   0.751   5.232  3.3215 -0.0271  1.6212
 3541TIP3    H232039   2.331   0.604   5.230 -1.2210 -1.3767 -1.7396
 3542TIP3   OH232040   2.514   2.082  14.500  0.4527 -0.3265  0.0745
 3542TIP3    H132041   2.537   2.129  14.420  0.6714  0.5343  0.6320
 3542TIP3    H232042   2.593   2.084  14.553  0.6012 -1.7008 -0.0451
 3543TIP3   OH232043   2.663   5.543   1.860 -0.0685 -0.2672  0.2831
 3543TIP3    H132044   2.728   5.511   1.798 -0.0000  1.2941 -0.4889
 3543TIP3    H232045   2.689   5.633   1.878 -1.8964  0.3307  0.1207
 3544TIP3   OH232046   5.543   2.121  12.358  0.2526 -0.4131  0.4123
 3544TIP3    H132047   5.457   2.161  12.348  0.5123  0.5303  1.6720
 3544TIP3    H232048   5.546   2.094  12.450  1.2545 -0.5197  0.3568
 3545TIP3   OH232049   4.449   5.053  13.548 -0.0853 -0.3957  0.3558
 3545TIP3    H132050   4.381   5.118  13.534 -0.3662 -0.6314  0.5948
 3545TIP3    H232051   4.461   5.011  13.463  1.8800  1.6413 -0.4565
 3546TIP3   OH232052   5.961   0.113  17.084  0.4016  0.2276  0.0473
 3546TIP3    H132053   6.019   0.051  17.127  1.2209  0.8980 -0.0595
 3546TIP3    H232054   5.986   0.198  17.120  0.3463  0.6714 -0.9395
 3547TIP3   OH232055   4.307   0.473  16.332  0.1263  0.4038  0.6957
 3547TIP3    H132056   4.390   0.438  16.299 -1.5646 -0.6342 -2.9662
 3547TIP3    H232057   4.265   0.399  16.375 -1.3152 -0.9483 -2.7146
 3548TIP3   OH232058   4.478   0.658   4.536 -0.6971  0.1564  0.2045
 3548TIP3    H132059   4.519   0.654   4.450  0.7453  0.5536  0.8298
 3548TIP3    H232060   4.437   0.744   4.539 -0.6533  0.1865 -0.0442
 3549TIP3   OH232061   0.711   4.323   4.428  0.2389 -0.3067 -0.2726
 3549TIP3    H132062   0.623   4.330   4.465  1.0307  0.5163  1.5998
 3549TIP3    H232063   0.731   4.229   4.433 -0.2432 -0.4013  0.0337
 3550TIP3   OH232064   1.762   0.502  13.826  0.3949  0.4217  0.2745
 3550TIP3    H132065   1.828   0.486  13.894  1.1361 -0.7206 -0.6720
 3550TIP3    H232066   1.805   0.477  13.745 -1.1022 -0.0260 -0.4192
 3551TIP3   OH232067   3.812   2.047  11.910  0.6128  0.0501 -0.0593
 3551TIP3    H132068   3.764   2.120  11.872  0.5174  1.5257  2.6397
 3551TIP3    H232069   3.830   1.989  11.836 -2.3203  1.0718 -1.7481
 3552TIP3   OH232070   2.736   0.979   0.566  0.3822  0.3113  0.0015
 3552TIP3    H132071   2.705   1.064   0.596 -0.7434 -0.6557  1.7115
 3552TIP3    H232072   2.657   0.927   0.556  0.9944 -0.3664 -1.7009
 3553TIP3   OH232073   4.117   1.027  16.804  0.3013  0.4224  0.8030
 3553TIP3    H132074   4.194   1.050  16.753  0.0686 -0.8161 -0.1667
 3553TIP3    H232075   4.105   0.933  16.788 -0.8258  0.3911  1.7178
 3554TIP3   OH232076   4.107   2.897   2.502 -0.3309  0.9423  0.0808
 3554TIP3    H132077   4.184   2.950   2.521 -1.2307  2.4780 -0.4478
 3554TIP3    H232078   4.060   2.945   2.434 -2.4834  0.8005  1.3710
 3555TIP3   OH232079   1.302   1.694   0.120 -0.3800  0.3346  0.0159
 3555TIP3    H132080   1.210   1.715   0.138 -0.8821 -1.0223 -0.8414
 3555TIP3    H232081   1.301   1.654   0.033  0.8286 -0.9659  0.5591
 3556TIP3   OH232082   0.541   3.221  11.409 -0.0682  0.2883 -0.3338
 3556TIP3    H132083   0.547   3.127  11.422 -3.3481  0.0286  0.0976
 3556TIP3    H232084   0.560   3.234  11.316 -0.1692 -0.8798 -0.5269
 3557TIP3   OH232085   6.669   4.053   1.454  0.2773 -0.7161 -0.7940
 3557TIP3    H132086   6.703   4.139   1.431 -0.6583 -0.3722 -0.9411
 3557TIP3    H232087   6.612   4.069   1.529 -0.2114 -1.1365 -1.0673
 3558TIP3   OH232088   3.662   5.617   6.067  0.4656  1.1521  0.6324
 3558TIP3    H132089   3.593   5.603   6.131 -0.0432  1.6608  0.2078
 3558TIP3    H232090   3.739   5.639   6.120  0.5851 -0.4345  1.1573
 3559TIP3   OH232091   4.633   5.004   2.485 -0.4592  0.3447  0.0127
 3559TIP3    H132092   4.582   5.044   2.414 -0.8786  0.2491  0.2576
 3559TIP3    H232093   4.695   5.072   2.510  1.0671 -0.2900 -1.7858
 3560TIP3   OH232094   1.668   6.069   1.901 -0.1154 -0.1182 -0.0275
 3560TIP3    H132095   1.587   6.113   1.874  0.0604 -0.2132 -0.7027
 3560TIP3    H232096   1.690   6.011   1.829  1.2605  0.8450 -0.4189
 3561TIP3   OH232097   3.254   0.471   5.426  0.0826  0.2530  0.2265
 3561TIP3    H132098   3.306   0.477   5.506  1.9943  0.9501 -0.9980
 3561TIP3    H232099   3.287   0.393   5.382 -0.3152  0.3862 -0.3154
 3562TIP3   OH232100   1.426   4.846   3.474  0.6669 -0.3930  0.5995
 3562TIP3    H132101   1.367   4.920   3.489  0.8478 -0.2099  0.4294
 3562TIP3    H232102   1.510   4.875   3.509  0.6864 -0.6022  0.7265
 3563TIP3   OH232103   5.313   0.617  14.788 -0.2689 -0.3067 -0.1366
 3563TIP3    H132104   5.369   0.692  14.767 -0.0382 -0.2048  0.7841
 3563TIP3    H232105   5.305   0.619  14.884  0.8577 -2.2373  0.0605
 3564TIP3   OH232106   3.357   2.026   2.706  0.2250 -0.2966 -0.0242
 3564TIP3    H132107   3.430   1.996   2.651 -0.6362  0.6161 -1.7572
 3564TIP3    H232108   3.303   2.079   2.647 -0.6562  0.9308  1.7862
 3565TIP3   OH232109   3.801   2.929   0.595  0.8880  0.2542 -0.4365
 3565TIP3    H132110   3.845   2.911   0.678 -0.4964 -0.2930  0.2092
 3565TIP3    H232111   3.839   3.011   0.565  1.3135  0.5409  0.8108
 3566TIP3   OH232112   2.426   5.178  15.783 -0.3414  0.5853  0.4236
 3566TIP3    H132113   2.331   5.181  15.791 -0.2521 -0.8175  2.8368
 3566TIP3    H232114   2.442   5.107  15.721 -0.8574 -0.9107  1.9529
 3567TIP3   OH232115   2.330   1.570   5.142  0.1552  0.5631 -0.2263
 3567TIP3    H132116   2.280   1.639   5.183 -0.7695 -0.6372  0.7431
 3567TIP3    H232117   2.382   1.614   5.075  1.7905  2.6152  2.2247
 3568TIP3   OH232118   3.505   1.487  12.896 -0.0541 -0.4899 -0.3051
 3568TIP3    H132119   3.598   1.467  12.894  0.0678  0.0803 -0.7166
 3568TIP3    H232120   3.484   1.514  12.806 -0.5929 -0.5118 -0.1933
 3569TIP3   OH232121   1.019   1.210  16.773 -0.1612  0.4384 -0.1782
 3569TIP3    H132122   0.946   1.220  16.711 -0.8148 -1.6445  0.1628
 3569TIP3    H232123   1.010   1.120  16.805  1.5626  0.7091  1.1792
 3570TIP3   OH232124   2.310   0.866  15.290  0.1283 -0.4896  0.3293
 3570TIP3    H132125   2.281   0.873  15.381  0.0485 -0.8491  0.3340
 3570TIP3    H232126   2.229   0.866  15.239  0.0163 -2.5330  0.4065
 3571TIP3   OH232127   0.240   5.997   0.773 -0.2187 -0.2165 -0.2506
 3571TIP3    H132128   0.296   5.930   0.734 -0.4318 -0.8389  0.4780
 3571TIP3    H232129   0.155   5.954   0.784  0.1384 -0.4830  1.9719
 3572TIP3   OH232130   5.908   2.909  14.372 -0.0592  0.3036  0.1446
 3572TIP3    H132131   5.995   2.945  14.359 -0.1894  0.4659 -0.2841
 3572TIP3    H232132   5.855   2.948  14.303 -0.7821  1.2498  1.1895
 3573TIP3   OH232133   5.454   3.477  17.163 -0.0422  0.0796 -0.5889
 3573TIP3    H132134   5.471   3.462  17.256  1.0504  2.1395 -0.4008
 3573TIP3    H232135   5.534   3.518  17.130 -1.1214  1.1858 -1.9598
 3574TIP3   OH232136   1.034   2.751   0.682 -0.0871 -1.1584  0.0447
 3574TIP3    H132137   1.041   2.669   0.633  1.9903 -1.0722  0.1083
 3574TIP3    H232138   0.986   2.810   0.624  1.8718 -1.2159 -1.7566
 3575TIP3   OH232139   3.490   3.864   0.391 -0.1138 -0.1208 -0.5572
 3575TIP3    H132140   3.505   3.918   0.313 -0.9883  0.1784 -0.5359
 3575TIP3    H232141   3.430   3.917   0.445  1.8300  0.4661  1.1515
 3576TIP3   OH232142   5.303   4.804  16.047  0.1899 -0.1961  0.2654
 3576TIP3    H132143   5.352   4.723  16.030 -0.1783 -0.5090  0.6781
 3576TIP3    H232144   5.230   4.777  16.102 -0.4993  0.2528 -0.4132
 3577TIP3   OH232145   3.532   4.039  11.947 -0.3859  0.0270  0.2692
 3577TIP3    H132146   3.467   3.974  11.919 -0.0290 -0.0772 -0.3284
 3577TIP3    H232147   3.615   4.006  11.914  0.2891 -0.8113  2.6349
 3578TIP3   OH232148   0.214   4.116   1.071 -0.5197  0.0971  0.0548
 3578TIP3    H132149   0.256   4.051   1.129 -0.2613  0.7942  0.6672
 3578TIP3    H232150   0.282   4.181   1.055 -0.4320 -0.3254 -1.4599
 3579TIP3   OH232151   2.906   3.491  15.048 -0.2856  0.6092  0.1557
 3579TIP3    H132152   2.852   3.458  15.120 -1.0624  1.1673 -0.1612
 3579TIP3    H232153   2.995   3.465  15.071 -0.8403 -1.6888 -0.0691
 3580TIP3   OH232154   0.802   5.181   2.464 -0.2516 -0.1024 -0.6917
 3580TIP3    H132155   0.851   5.256   2.500 -1.1803 -0.1551  0.7757
 3580TIP3    H232156   0.832   5.175   2.373  4.2933 -1.6328  0.6306
 3581TIP3   OH232157   3.734   3.283   4.787  0.4481  0.3364  0.1079
 3581TIP3    H132158   3.724   3.305   4.694  1.1735  1.7098  0.3412
 3581TIP3    H232159   3.791   3.206   4.787 -0.9917 -0.8098 -0.6429
 3582TIP3   OH232160   0.812   0.278   4.230 -0.0527  0.0533  0.2333
 3582TIP3    H132161   0.727   0.239   4.247  0.0802 -0.2138  0.2995
 3582TIP3    H232162   0.862   0.261   4.310  0.4566 -0.8681 -0.2517
 3583TIP3   OH232163   5.036   2.042   2.763 -0.8748 -0.0636  0.1994
 3583TIP3    H132164   5.028   2.002   2.850  0.5209  1.7984  1.2471
 3583TIP3    H232165   5.129   2.061   2.754 -0.7184 -1.6386 -2.4207
 3584TIP3   OH232166   6.511   6.485   3.652 -0.0625  0.3539  0.7462
 3584TIP3    H132167   6.554   6.527   3.727 -0.7706  0.0113  1.3534
 3584TIP3    H232168   6.582   6.445   3.603  0.5581  1.6627  0.5318
 3585TIP3   OH232169   4.652   2.199  17.112  0.1542  0.3303  0.7248
 3585TIP3    H132170   4.723   2.161  17.163 -0.4979  0.2490  1.5887
 3585TIP3    H232171   4.580   2.136  17.119 -1.1647  1.9432  2.7244
 3586TIP3   OH232172   2.851   3.899  14.890  0.5770  0.0500 -0.3886
 3586TIP3    H132173   2.766   3.936  14.868  0.0363 -0.8154  0.2143
 3586TIP3    H232174   2.874   3.843  14.816 -0.0185 -0.7930  0.0579
 3587TIP3   OH232175   3.207   3.824  12.386 -0.1642 -0.2407  0.0514
 3587TIP3    H132176   3.283   3.792  12.335 -0.5979  0.1090 -0.8335
 3587TIP3    H232177   3.160   3.880  12.325 -1.2326 -0.5884  0.5440
 3588TIP3   OH232178   4.431   3.140   4.815  0.6880 -0.2718  0.0580
 3588TIP3    H132179   4.403   3.147   4.907 -1.9173 -2.8676 -0.3899
 3588TIP3    H232180   4.525   3.122   4.820  0.3543 -1.8503  2.3516
 3589TIP3   OH232181   6.155   2.641   5.639  0.1336 -0.3906 -0.6623
 3589TIP3    H132182   6.135   2.620   5.731 -1.6042 -1.4082 -1.2202
 3589TIP3    H232183   6.150   2.737   5.635  1.0072 -0.2685  0.4394
 3590TIP3   OH232184   3.600   6.273  12.323  0.0659  0.2125  0.9461
 3590TIP3    H132185   3.597   6.288  12.418  1.3057 -2.4271  1.5061
 3590TIP3    H232186   3.689   6.300  12.298  0.1250 -0.1466  0.7658
 3591TIP3   OH232187   2.771   6.007  13.855 -0.0597  0.2676 -0.3819
 3591TIP3    H132188   2.764   6.099  13.832 -0.4342  0.4440  0.3963
 3591TIP3    H232189   2.864   5.992  13.869  0.3947 -0.1955 -3.3183
 3592TIP3   OH232190   2.069   3.518   4.031 -0.0264  0.0140  0.2201
 3592TIP3    H132191   1.994   3.541   4.086 -1.7852  0.1098 -2.0549
 3592TIP3    H232192   2.116   3.452   4.081 -1.5250  0.0923  1.8344
 3593TIP3   OH232193   2.804   6.340  14.937  0.7249 -0.0553  0.0173
 3593TIP3    H132194   2.755   6.318  14.857  0.4111  1.2788 -0.1830
 3593TIP3    H232195   2.746   6.313  15.008  0.3676  0.0805 -0.2172
 3594TIP3   OH232196   3.541   1.239  14.581  0.1699 -0.8215  0.1977
 3594TIP3    H132197   3.484   1.247  14.657  0.2945 -0.2681  0.2341
 3594TIP3    H232198   3.583   1.325  14.572 -0.1115 -0.7628 -0.7048
 3595TIP3   OH232199   0.141   1.795  17.015  0.1034 -0.1985 -0.0687
 3595TIP3    H132200   0.212   1.856  17.037  1.6274 -1.4458 -1.3191
 3595TIP3    H232201   0.122   1.751  17.098  0.2492  0.6825  0.4536
 3596TIP3   OH232202   4.169   6.714  16.083 -0.1506 -0.4742  0.1960
 3596TIP3    H132203   4.184   6.656  16.157  2.3207  0.5969  0.6231
 3596TIP3    H232204   4.134   6.794  16.122  0.4522 -0.1759  0.1400
 3597TIP3   OH232205   3.788   1.280   3.936 -0.0838  0.1395 -0.7167
 3597TIP3    H132206   3.833   1.334   3.872 -1.1830 -0.7361 -2.2912
 3597TIP3    H232207   3.789   1.192   3.899 -2.5974 -0.0239 -0.6040
 3598TIP3   OH232208   4.818   2.650  11.559  0.2924  0.1934 -0.4784
 3598TIP3    H132209   4.891   2.710  11.573  1.9089 -1.6271 -0.6712
 3598TIP3    H232210   4.760   2.666  11.634 -0.1827  3.0417 -1.3277
 3599TIP3   OH232211   2.642   4.686   2.083  0.2675  0.3276 -0.0342
 3599TIP3    H132212   2.646   4.759   2.022  0.6862  0.2482 -0.1044
 3599TIP3    H232213   2.616   4.611   2.029  1.3476  0.1061 -0.2576
 3600TIP3   OH232214   2.034   2.066  12.200 -0.4868  0.0960  0.2447
 3600TIP3    H132215   1.966   2.089  12.264  0.1895 -0.9609  1.3895
 3600TIP3    H232216   2.045   1.972  12.211 -1.0463 -0.3035 -2.1640
 3601TIP3   OH232217   2.220   3.009   3.138  0.2097 -0.3529 -0.2993
 3601TIP3    H132218   2.208   3.086   3.083  0.1389  0.7623  1.2404
 3601TIP3    H232219   2.216   3.041   3.228 -0.0672 -2.1821  0.3997
 3602TIP3   OH232220   2.154   5.166  13.047 -0.2204 -0.2760  0.3039
 3602TIP3    H132221   2.150   5.169  12.952 -0.2428  0.2234  0.3175
 3602TIP3    H232222   2.152   5.073  13.069 -2.3235 -0.3806 -0.1125
 3603TIP3   OH232223   3.402   1.076   2.494 -0.8708 -0.2055  0.0987
 3603TIP3    H132224   3.365   1.108   2.577  0.5299  0.4759  0.4874
 3603TIP3    H232225   3.333   1.092   2.430 -2.0850 -0.9579  1.1516
 3604TIP3   OH232226   4.926   2.127  14.261 -0.2253  0.0323 -0.0538
 3604TIP3    H132227   4.856   2.160  14.317  0.7805 -0.6459  1.6578
 3604TIP3    H232228   4.999   2.187  14.275  0.4436 -0.8580  0.3475
 3605TIP3   OH232229   4.293   2.487   4.617 -0.6424  0.0743 -0.4373
 3605TIP3    H132230   4.366   2.445   4.662 -0.2955  0.1649 -0.9079
 3605TIP3    H232231   4.234   2.415   4.595 -0.2291 -0.1234 -0.9114
 3606TIP3   OH232232   0.820   0.085   4.733  0.1446 -0.1817 -0.0415
 3606TIP3    H132233   0.842   0.091   4.826  0.8882  1.6902 -0.3133
 3606TIP3    H232234   0.773   0.166   4.714  0.2257 -0.4302 -1.3676
 3607TIP3   OH232235   1.494   0.317  14.631 -0.2417 -0.6956  0.1609
 3607TIP3    H132236   1.498   0.410  14.655 -0.2045 -0.8234  0.6689
 3607TIP3    H232237   1.421   0.311  14.570 -0.1100 -0.2985 -0.0452
 3608TIP3   OH232238   1.820   1.706   5.364  0.2842  0.3092 -0.6369
 3608TIP3    H132239   1.833   1.729   5.456  0.5921  2.8519 -1.2561
 3608TIP3    H232240   1.727   1.719   5.348  0.4803  1.3196 -1.0228
 3609TIP3   OH232241   6.494   2.289  16.125  0.2294 -0.3400  0.4526
 3609TIP3    H132242   6.577   2.242  16.116 -0.3910 -1.8691  2.1225
 3609TIP3    H232243   6.433   2.224  16.160 -0.8187  1.5501  2.3504
 3610TIP3   OH232244   2.353   1.311   1.765 -0.2497  0.3144  0.5993
 3610TIP3    H132245   2.356   1.265   1.849  1.6804  0.8592  0.8649
 3610TIP3    H232246   2.291   1.260   1.713  0.6173 -1.6944  1.4161
 3611TIP3   OH232247   1.696   2.347   3.106 -0.1522 -0.7858 -0.0146
 3611TIP3    H132248   1.723   2.402   3.033  0.1128 -2.2277 -1.0479
 3611TIP3    H232249   1.729   2.260   3.084 -1.2312 -1.5311  1.1692
 3612TIP3   OH232250   2.783   1.658  16.608  0.1212  0.1933  0.4349
 3612TIP3    H132251   2.873   1.675  16.637  0.1169  0.9924 -0.0124
 3612TIP3    H232252   2.733   1.731  16.644 -0.3773 -0.3016  0.7629
 3613TIP3   OH232253   5.517   2.070   1.696  0.1749 -0.1119  0.0751
 3613TIP3    H132254   5.472   2.081   1.612  1.3380  1.0971 -0.4220
 3613TIP3    H232255   5.452   2.028   1.752 -1.3085  0.8888 -0.8271
 3614TIP3   OH232256   6.392   5.371  12.984  0.1854 -0.3420  0.2416
 3614TIP3    H132257   6.474   5.415  12.963  0.0261  0.9462  2.0876
 3614TIP3    H232258   6.344   5.434  13.037 -1.8436 -1.2273 -0.4376
 3615TIP3   OH232259   2.138   0.880   5.391 -0.1310 -0.1578 -0.0729
 3615TIP3    H132260   2.125   0.965   5.433  0.5041 -0.3408  0.5248
 3615TIP3    H232261   2.050   0.844   5.381 -0.2766 -0.4081  1.7857
 3616TIP3   OH232262   3.686   1.273   1.762  0.3424  0.0117  0.2333
 3616TIP3    H132263   3.679   1.307   1.851 -0.5009  0.2133  0.1079
 3616TIP3    H232264   3.776   1.290   1.736  1.2839 -2.1723  1.8673
 3617TIP3   OH232265   0.459   6.482  13.802 -0.6997 -0.4799 -0.1461
 3617TIP3    H132266   0.473   6.468  13.896  1.2235  1.5177 -0.0590
 3617TIP3    H232267   0.488   6.400  13.761 -0.0188 -0.7851  0.9074
 3618TIP3   OH232268   1.707   1.971   4.532  0.0264  0.2618 -0.0147
 3618TIP3    H132269   1.663   1.890   4.559 -0.7715  0.5739 -0.3410
 3618TIP3    H232270   1.654   2.004   4.460  1.6812 -0.1412 -1.4671
 3619TIP3   OH232271   2.926   1.961   2.896  0.0402 -0.2074 -0.1535
 3619TIP3    H132272   2.913   2.031   2.833 -0.8300 -0.1846  0.0357
 3619TIP3    H232273   2.892   1.997   2.979  1.5060 -0.0929  0.4331
 3620TIP3   OH232274   5.113   6.605   5.927 -0.0489  0.1826  0.0662
 3620TIP3    H132275   5.123   6.563   6.012 -2.5232  1.3571  1.0263
 3620TIP3    H232276   5.179   6.674   5.926  0.0086  0.1494  1.0265
 3621TIP3   OH232277   2.582   6.355  14.315  0.2567 -0.0760 -0.0249
 3621TIP3    H132278   2.646   6.398  14.371 -1.1139  2.7265 -0.4607
 3621TIP3    H232279   2.583   6.406  14.234 -2.4559  0.0633 -0.0521
 3622TIP3   OH232280   2.887   3.128  14.615 -0.0951 -0.6541  0.0508
 3622TIP3    H132281   2.792   3.132  14.602 -0.0496  1.4614 -0.0327
 3622TIP3    H232282   2.916   3.055  14.560 -1.6355 -1.2135 -0.0676
 3623TIP3   OH232283   6.263   2.148  16.222  0.1093 -0.0596 -0.2950
 3623TIP3    H132284   6.225   2.183  16.302  1.8245  0.1582  0.4783
 3623TIP3    H232285   6.211   2.069  16.204  0.5634 -0.9542  1.8864
 3624TIP3   OH232286   0.557   1.617  13.355 -0.0677 -0.7289  0.0984
 3624TIP3    H132287   0.646   1.612  13.391  0.1020  1.8707  0.1778
 3624TIP3    H232288   0.568   1.657  13.269 -1.0583 -1.7710 -0.5484
 3625TIP3   OH232289   1.130   6.002   5.724 -0.1154  0.1837 -0.4789
 3625TIP3    H132290   1.080   6.023   5.803 -0.1224  0.8737 -0.6616
 3625TIP3    H232291   1.085   5.926   5.687 -0.4207  0.1756 -0.0985
 3626TIP3   OH232292   2.771   1.799  14.874 -0.4145 -0.2289 -0.0794
 3626TIP3    H132293   2.825   1.720  14.886 -1.3606 -0.8362  0.3011
 3626TIP3    H232294   2.684   1.773  14.904 -0.7743  0.9328 -0.0855
 3627TIP3   OH232295   1.766   0.367  11.776 -0.5773 -0.2936 -0.0164
 3627TIP3    H132296   1.689   0.311  11.766  0.2743 -1.5810  0.3390
 3627TIP3    H232297   1.779   0.407  11.690 -0.9715 -0.9623 -0.3950
 3628TIP3   OH232298   4.322   0.909   0.394 -0.4376 -0.4845 -0.5812
 3628TIP3    H132299   4.263   0.956   0.453  0.3127 -0.0387 -0.1594
 3628TIP3    H232300   4.404   0.959   0.398 -0.1827 -0.8193 -1.5160
 3629TIP3   OH232301   0.795   0.569   0.277  0.9633  0.2701  0.4759
 3629TIP3    H132302   0.885   0.582   0.305  1.0534  0.6488  0.0290
 3629TIP3    H232303   0.800   0.503   0.208  0.7389 -0.6851  1.3620
 3630TIP3   OH232304   2.873   5.792   3.607 -0.0713 -0.2706 -0.0655
 3630TIP3    H132305   2.797   5.847   3.621  0.7536  1.0513 -0.5579
 3630TIP3    H232306   2.853   5.743   3.527  0.4375  1.6763 -1.4513
 3631TIP3   OH232307   4.758   4.890  14.903 -0.4922 -0.3850  0.7427
 3631TIP3    H132308   4.778   4.959  14.840 -0.1730 -0.5161  0.7016
 3631TIP3    H232309   4.767   4.932  14.988 -0.3713 -0.3564  0.7155
 3632TIP3   OH232310   3.789   1.393  14.359  0.2683  0.1526  0.1077
 3632TIP3    H132311   3.776   1.307  14.400 -0.6799  0.1921 -0.0856
 3632TIP3    H232312   3.751   1.455  14.421  2.8101  0.6885  1.2597
 3633TIP3   OH232313   6.360   6.669   5.545  0.2311  0.3297 -0.5500
 3633TIP3    H132314   6.328   6.665   5.455 -0.8434 -0.5144 -0.1563
 3633TIP3    H232315   6.316   6.596   5.589  1.3969  0.2000  0.4549
 3634TIP3   OH232316   4.959   2.415  14.995 -0.2113  0.1365 -0.0704
 3634TIP3    H132317   4.913   2.350  14.941  1.8768 -0.9192 -0.6683
 3634TIP3    H232318   4.893   2.443  15.058 -2.2393  0.0808 -1.9989
 3635TIP3   OH232319   3.093   2.495  12.802 -0.0478  0.4663 -0.2433
 3635TIP3    H132320   3.151   2.422  12.823 -0.2009  0.5252  0.3904
 3635TIP3    H232321   3.011   2.454  12.775 -0.8704  0.3766  2.1405
 3636TIP3   OH232322   4.484   6.121  16.312  0.3892 -0.5191 -0.0045
 3636TIP3    H132323   4.435   6.068  16.250 -0.2998 -0.4759  0.4873
 3636TIP3    H232324   4.463   6.212  16.289  1.7005 -0.4382 -0.9499
 3637TIP3   OH232325   4.918   2.498  13.458 -0.3678 -0.2460 -0.4934
 3637TIP3    H132326   4.911   2.411  13.498  0.6718 -0.0478  0.1509
 3637TIP3    H232327   4.972   2.483  13.380  1.1338  0.0442  0.4408
 3638TIP3   OH232328   3.494   0.045  13.072  0.3980 -0.1611 -0.2675
 3638TIP3    H132329   3.552   0.109  13.113 -0.3324  0.1772  0.2502
 3638TIP3    H232330   3.425   0.097  13.031  0.8755 -0.5156 -1.5886
 3639TIP3   OH232331   1.251   5.023  15.556 -0.6353 -0.3084 -0.3050
 3639TIP3    H132332   1.333   5.024  15.605 -0.6708  2.5659 -0.1577
 3639TIP3    H232333   1.223   4.931  15.557  2.0238 -1.1744  0.5178
 3640TIP3   OH232334   0.584   6.373  14.048  0.0089 -0.4183 -0.1653
 3640TIP3    H132335   0.626   6.459  14.051  0.8503 -0.8491  0.8814
 3640TIP3    H232336   0.607   6.332  14.131  0.4717 -2.0488 -1.0576
 3641TIP3   OH232337   1.680   3.221   2.365  0.2447 -0.8988 -0.0258
 3641TIP3    H132338   1.611   3.253   2.424 -0.7356  0.8401 -1.9594
 3641TIP3    H232339   1.637   3.154   2.312  0.5247 -1.0151 -0.1061
 3642TIP3   OH232340   2.752   0.608  14.140  0.0873 -0.6051 -0.3457
 3642TIP3    H132341   2.841   0.613  14.103  1.0000  0.0268  1.7873
 3642TIP3    H232342   2.742   0.517  14.166  0.1539 -0.6520 -0.4825
 3643TIP3   OH232343   2.354   3.569  17.391  0.5725  0.0635  0.1248
 3643TIP3    H132344   2.261   3.551  17.376  1.1453 -1.6690 -1.8802
 3643TIP3    H232345   2.388   3.593  17.305  1.8777  1.3238  0.9534
 3644TIP3   OH232346   5.301   3.491  15.106  0.5553  0.2293  0.2717
 3644TIP3    H132347   5.330   3.582  15.115 -1.7615  0.9484  0.9468
 3644TIP3    H232348   5.284   3.462  15.195 -2.0906  0.3503 -0.1149
 3645TIP3   OH232349   2.419   1.626  14.291  0.9986  0.5787  0.1014
 3645TIP3    H132350   2.357   1.559  14.318  0.7520  1.8716  3.1515
 3645TIP3    H232351   2.386   1.658  14.207 -1.6946  0.2861  0.9779
 3646TIP3   OH232352   4.037   4.616   3.798  0.0197  0.1980  0.4619
 3646TIP3    H132353   3.993   4.571   3.870  1.7659 -1.4053  0.6083
 3646TIP3    H232354   4.130   4.616   3.823  0.3964  1.6259 -0.7605
 3647TIP3   OH232355   3.724   5.130  15.691  0.0456 -0.2405  0.1237
 3647TIP3    H132356   3.734   5.217  15.651  0.0520  0.8454  2.2887
 3647TIP3    H232357   3.791   5.076  15.649  0.5843  1.0248 -0.7110
 3648TIP3   OH232358   2.433   6.414   4.283 -0.0859  0.0696 -0.0588
 3648TIP3    H132359   2.433   6.470   4.361  1.9247  1.1503 -0.7462
 3648TIP3    H232360   2.518   6.430   4.242 -1.2880  0.0429 -2.8228
 3649TIP3   OH232361   5.634   4.428  16.934 -0.3650 -1.2231  0.3255
 3649TIP3    H132362   5.692   4.353  16.923  1.3789 -0.0163  0.7855
 3649TIP3    H232363   5.669   4.494  16.874 -0.7544 -0.1758  1.2198
 3650TIP3   OH232364   6.273   6.300   5.330  0.0041  0.3653  0.0987
 3650TIP3    H132365   6.341   6.287   5.396  0.8892 -1.1991 -1.0517
 3650TIP3    H232366   6.241   6.389   5.346  1.9530  0.9565  1.0169
 3651TIP3   OH232367   4.099   3.682  14.282 -0.0964  0.0447  0.2098
 3651TIP3    H132368   4.066   3.731  14.207 -1.4556  0.0278  0.7542
 3651TIP3    H232369   4.193   3.675  14.267 -0.2773  0.3941 -1.2744
 3652TIP3   OH232370   4.290   1.367  17.141 -0.0660  0.2648 -0.1390
 3652TIP3    H132371   4.276   1.389  17.233 -1.0596  0.4769 -0.3267
 3652TIP3    H232372   4.237   1.289  17.126 -1.0120  1.0058 -0.8451
 3653TIP3   OH232373   0.607   1.194   5.454 -0.2084  0.5686  0.2025
 3653TIP3    H132374   0.685   1.189   5.398 -1.5437  0.1060 -1.6824
 3653TIP3    H232375   0.541   1.237   5.400 -1.2595  1.0336  1.8070
 3654TIP3   OH232376   2.257   1.841  17.041  0.1421 -0.2706  0.1052
 3654TIP3    H132377   2.299   1.779  17.101  0.1053 -1.2875 -0.8736
 3654TIP3    H232378   2.323   1.908  17.025  0.6899 -0.8098  0.0958
 3655TIP3   OH232379   6.427   3.394  16.062 -0.1251  0.4093 -0.6801
 3655TIP3    H132380   6.497   3.389  16.127 -1.5655 -1.0213  0.8871
 3655TIP3    H232381   6.444   3.321  16.003  1.0815  1.5955 -1.8354
 3656TIP3   OH232382   0.946   4.148  16.997 -0.1666 -0.3113  0.4644
 3656TIP3    H132383   0.889   4.092  17.050 -1.1775  0.6447  0.4353
 3656TIP3    H232384   0.894   4.227  16.981  2.2020  1.9556  2.9619
 3657TIP3   OH232385   2.015   0.299   1.995 -0.3765  0.2211 -0.1909
 3657TIP3    H132386   2.091   0.345   1.960 -0.5243  0.9152  0.3768
 3657TIP3    H232387   2.044   0.208   2.006 -0.3248 -0.0346 -2.0786
 3658TIP3   OH232388   4.802   6.648  13.128 -0.3155  0.3144  0.1591
 3658TIP3    H132389   4.800   6.559  13.091  1.2674  0.5446 -0.5587
 3658TIP3    H232390   4.806   6.634  13.222 -0.0060 -0.3793  0.0483
 3659TIP3   OH232391   2.124   5.374  13.225  0.1070  0.4659 -0.4188
 3659TIP3    H132392   2.052   5.339  13.279  1.5424 -1.1225  0.5773
 3659TIP3    H232393   2.138   5.307  13.158 -0.6282  1.7093 -1.8691
 3660TIP3   OH232394   5.378   0.098   5.737 -0.5820  0.4238 -0.2673
 3660TIP3    H132395   5.431   0.019   5.737 -0.8932  0.2016 -0.8940
 3660TIP3    H232396   5.379   0.129   5.827 -0.5003 -0.3248 -0.0076
 3661TIP3   OH232397   1.136   6.610   3.381 -0.5577  0.0193 -0.2721
 3661TIP3    H132398   1.184   6.568   3.310  0.4329  0.0026  0.3858
 3661TIP3    H232399   1.073   6.544   3.411  1.2309 -1.2077  0.9997
 3662TIP3   OH232400   0.429   4.889   5.629  0.0164  0.1677 -0.3103
 3662TIP3    H132401   0.407   4.809   5.581  0.3022 -0.3520  0.4158
 3662TIP3    H232402   0.354   4.947   5.614 -1.5821 -1.2828  1.4912
 3663TIP3   OH232403   0.061   4.411   3.406  0.0175 -0.1861  0.3955
 3663TIP3    H132404   0.070   4.464   3.326 -1.1816 -1.0986 -0.3692
 3663TIP3    H232405   0.046   4.475   3.475  1.1033  0.6238 -0.0757
 3664TIP3   OH232406   2.045   3.392  16.496 -0.3165  0.5404 -0.1125
 3664TIP3    H132407   2.038   3.460  16.563  1.2780  1.1769 -0.5490
 3664TIP3    H232408   1.985   3.420  16.427 -1.5204  0.1915  0.7605
 3665TIP3   OH232409   6.199   5.556   3.080 -0.6704  0.2355  0.5280
 3665TIP3    H132410   6.194   5.590   3.170  1.5423 -0.9508  1.1953
 3665TIP3    H232411   6.259   5.481   3.087 -1.1757 -0.4537 -1.7973
 3666TIP3   OH232412   1.622   3.005  17.129 -0.0386 -0.5615  0.2921
 3666TIP3    H132413   1.542   2.955  17.142 -1.1224  1.1226  0.4321
 3666TIP3    H232414   1.671   2.996  17.211 -0.5883 -0.7619  0.5985
 3667TIP3   OH232415   0.854   5.487  13.130 -0.2497 -0.1594 -0.1446
 3667TIP3    H132416   0.765   5.521  13.141 -0.0113  0.5829 -0.4214
 3667TIP3    H232417   0.855   5.449  13.042 -0.4984 -0.8283  0.1396
 3668TIP3   OH232418   2.479   4.543  16.613 -0.6106 -0.2637  0.1568
 3668TIP3    H132419   2.541   4.601  16.567 -1.0187 -1.3527 -1.9022
 3668TIP3    H232420   2.464   4.586  16.697  1.0809  1.2640 -0.2481
 3669TIP3   OH232421   5.039   2.253  13.976  0.2226 -0.4541  0.1409
 3669TIP3    H132422   5.068   2.276  14.064  0.4063  0.2735 -0.1094
 3669TIP3    H232423   5.008   2.335  13.938 -0.1954 -0.8282 -0.3496
 3670TIP3   OH232424   6.728   2.126  16.111 -0.0622 -0.0194  0.5166
 3670TIP3    H132425   6.798   2.181  16.144 -0.0303 -0.6032  1.4522
 3670TIP3    H232426   6.748   2.114  16.018 -0.2396  1.7743  0.2221
 3671TIP3   OH232427   4.317   3.360  16.677 -0.5706  0.4322  0.0042
 3671TIP3    H132428   4.271   3.276  16.685 -1.2934  0.7937 -0.2275
 3671TIP3    H232429   4.257   3.423  16.716 -0.4146  0.9631 -0.5921
 3672TIP3   OH232430   4.192   2.936   5.545  0.5591 -0.1314 -0.2372
 3672TIP3    H132431   4.236   2.928   5.629  0.6462  2.3711  0.0323
 3672TIP3    H232432   4.261   2.964   5.485 -0.0491  0.9020 -0.4746
 3673TIP3   OH232433   1.212   5.590   1.653  0.2728 -0.0828  0.3727
 3673TIP3    H132434   1.245   5.500   1.647  0.2158 -0.1570  1.0246
 3673TIP3    H232435   1.142   5.595   1.588 -0.4110 -0.8262  1.0218
 3674TIP3   OH232436   5.251   4.989  14.170 -0.4164 -0.0518  0.7478
 3674TIP3    H132437   5.243   5.005  14.076 -0.5580  0.0126  0.7699
 3674TIP3    H232438   5.250   5.076  14.210  1.4966  0.0413  0.6900
 3675TIP3   OH232439   1.107   5.824  15.402  0.4530 -0.0416 -0.4786
 3675TIP3    H132440   1.158   5.773  15.339  0.8560 -1.2767  0.8041
 3675TIP3    H232441   1.142   5.800  15.487 -1.9269 -0.5551  0.4339
 3676TIP3   OH232442   4.454   0.744   2.526  0.0011  0.1029  0.2542
 3676TIP3    H132443   4.443   0.651   2.506  0.6072  0.3232 -1.1861
 3676TIP3    H232444   4.513   0.777   2.459  0.3170  1.4037  1.1262
 3677TIP3   OH232445   1.012   4.617  14.445  0.2165  0.2007  0.2241
 3677TIP3    H132446   1.037   4.709  14.456 -0.6960  0.3385  1.4119
 3677TIP3    H232447   1.094   4.571  14.429  0.7582  1.1466  0.2152
 3678TIP3   OH232448   0.900   6.328  13.041 -0.5366  0.3023  0.1446
 3678TIP3    H132449   0.883   6.359  12.952 -0.7865 -1.4737 -0.4614
 3678TIP3    H232450   0.995   6.335  13.051 -0.5074  0.5054 -0.2594
 3679TIP3   OH232451   2.951   0.323   3.500  0.2282 -0.1828 -0.0116
 3679TIP3    H132452   3.008   0.305   3.425 -1.4029  0.4672 -1.4804
 3679TIP3    H232453   2.954   0.418   3.510 -0.4196 -0.1564  0.0139
 3680TIP3   OH232454   6.582   4.258   3.260 -0.5397  0.0824  0.1596
 3680TIP3    H132455   6.576   4.331   3.321 -0.9852 -0.0889  0.3263
 3680TIP3    H232456   6.636   4.291   3.188  2.7717 -0.6721  2.0505
 3681TIP3   OH232457   3.754   0.843  10.695  0.7418 -0.3813 -0.1836
 3681TIP3    H132458   3.835   0.892  10.709  0.2681  0.0418  1.3190
 3681TIP3    H232459   3.777   0.774  10.634  1.5498  1.4208 -2.0315
 3682TIP3   OH232460   2.470   1.430  11.651  0.1266 -0.6346 -0.6532
 3682TIP3    H132461   2.441   1.348  11.692  0.8370 -0.5943 -0.0505
 3682TIP3    H232462   2.539   1.403  11.590 -0.8491 -0.6810 -1.7768
 3683TIP3   OH232463   4.322   5.320  14.592 -0.5651  0.5205 -0.1438
 3683TIP3    H132464   4.383   5.285  14.656 -3.1712 -2.2278  1.0705
 3683TIP3    H232465   4.345   5.413  14.586  3.8855 -0.3612 -0.1611
 3684TIP3   OH232466   4.527   3.830   5.331  0.0938 -0.3864  0.3178
 3684TIP3    H132467   4.435   3.805   5.315  0.2976 -1.0060  0.0692
 3684TIP3    H232468   4.534   3.835   5.426 -0.7314  1.7707  0.3087
 3685TIP3   OH232469   0.906   5.627  16.169 -0.4001 -0.1133  0.0206
 3685TIP3    H132470   0.903   5.580  16.086  3.0659 -0.0807 -0.2708
 3685TIP3    H232471   0.902   5.557  16.236  1.3092 -0.6002 -0.3363
 3686TIP3   OH232472   4.976   3.012  16.586 -0.4487 -0.1741 -0.1685
 3686TIP3    H132473   5.029   3.080  16.547 -1.8468 -0.5308 -2.9307
 3686TIP3    H232474   5.034   2.936  16.594  0.3410  0.4624  0.1979
 3687TIP3   OH232475   5.481   3.531  12.765 -0.1291 -0.5162 -0.5800
 3687TIP3    H132476   5.543   3.518  12.693  0.8543 -3.2518  0.6255
 3687TIP3    H232477   5.529   3.585  12.828 -0.1380 -0.0652 -0.9501
 3688TIP3   OH232478   3.554   5.589  12.288 -0.1683  0.1135 -0.0269
 3688TIP3    H132479   3.467   5.551  12.299 -0.2087 -0.6308 -2.3545
 3688TIP3    H232480   3.546   5.647  12.212  1.0172  1.2625  0.6757
 3689TIP3   OH232481   0.415   0.776  15.897 -1.0557  0.4272 -0.0460
 3689TIP3    H132482   0.348   0.769  15.829 -4.0605 -0.0928  2.7373
 3689TIP3    H232483   0.403   0.862  15.936 -0.6089  0.0577  0.9722
 3690TIP3   OH232484   2.171   5.227  11.394  0.3270  0.3354  0.5946
 3690TIP3    H132485   2.112   5.199  11.324  0.1657  0.9107  0.4958
 3690TIP3    H232486   2.235   5.156  11.401  1.6568  1.2072 -1.6529
 3691TIP3   OH232487   5.325   2.313   6.006 -0.0659 -0.1047  0.2036
 3691TIP3    H132488   5.358   2.287   6.092 -0.9828  0.9515  0.9030
 3691TIP3    H232489   5.315   2.231   5.958  0.2553 -0.7222  1.1758
 3692TIP3   OH232490   6.749   1.108   4.462  0.4403 -0.6617 -0.5513
 3692TIP3    H132491   6.698   1.182   4.427  1.8806 -0.2107 -1.7893
 3692TIP3    H232492   6.780   1.139   4.547 -1.0018 -0.8112  0.0696
 3693TIP3   OH232493   1.013   4.175  11.920 -0.1001 -0.5975  0.7313
 3693TIP3    H132494   1.041   4.087  11.898 -0.2552 -0.3528 -0.5050
 3693TIP3    H232495   1.095   4.223  11.937  0.0035 -0.8668  0.9943
 3694TIP3   OH232496   1.514   0.768   4.550  0.0421 -0.3374  0.0098
 3694TIP3    H132497   1.575   0.840   4.534  0.4280 -0.7878 -0.6245
 3694TIP3    H232498   1.547   0.697   4.495 -0.1966 -1.0699  0.7977
 3695TIP3   OH232499   5.865   0.922  11.573 -0.4726 -0.3826 -0.1303
 3695TIP3    H132500   5.854   1.015  11.595  1.9259  0.0702 -0.6063
 3695TIP3    H232501   5.951   0.917  11.532 -0.5677 -2.8339 -0.1665
 3696TIP3   OH232502   0.049   2.800  14.114 -0.2651 -0.1151 -0.5082
 3696TIP3    H132503   0.057   2.894  14.131  0.2780 -0.2897  0.2542
 3696TIP3    H232504   0.099   2.785  14.033 -0.6540  0.3034 -0.8301
 3697TIP3   OH232505   1.423   2.120   0.658 -0.1708  0.1812  0.0633
 3697TIP3    H132506   1.447   2.028   0.650 -2.0007 -0.4323  1.0709
 3697TIP3    H232507   1.490   2.166   0.608  3.0301 -1.3209  2.5625
 3698TIP3   OH232508   5.217   1.681   2.752 -0.1456 -1.1594 -0.0822
 3698TIP3    H132509   5.127   1.648   2.754 -0.8822  0.7829  1.0146
 3698TIP3    H232510   5.256   1.650   2.834 -0.8052  0.4871  0.8984
 3699TIP3   OH232511   4.092   2.652   5.388 -0.2029 -0.5943  0.2612
 3699TIP3    H132512   4.155   2.587   5.359  0.9909  1.0815 -1.1690
 3699TIP3    H232513   4.137   2.700   5.458 -0.2954 -0.1075 -0.0025
 3700TIP3   OH232514   4.214   6.694  11.168 -0.1153 -0.2354 -0.2203
 3700TIP3    H132515   4.132   6.723  11.130 -0.7155 -0.7127  0.6623
 3700TIP3    H232516   4.192   6.671  11.258  1.0493 -0.0779  0.1294
 3701TIP3   OH232517   0.882   4.822   0.933  0.8161  0.0201  0.1421
 3701TIP3    H132518   0.912   4.740   0.969 -0.3892 -1.7798 -2.5682
 3701TIP3    H232519   0.950   4.848   0.871  0.1935 -0.1780 -0.6492
 3702TIP3   OH232520   2.669   2.597   1.415  0.2163 -0.0329  0.4436
 3702TIP3    H132521   2.605   2.567   1.350  0.3205 -0.4754  0.5411
 3702TIP3    H232522   2.749   2.551   1.392  0.0012 -0.9792  1.4855
 3703TIP3   OH232523   1.813   4.132  15.743 -0.3831  0.2924  0.3070
 3703TIP3    H132524   1.742   4.098  15.690  0.2066 -0.3424 -0.0896
 3703TIP3    H232525   1.887   4.074  15.725 -0.1842  0.0307  1.8754
 3704TIP3   OH232526   6.118   1.559   3.336 -0.5192  0.6212  0.0701
 3704TIP3    H132527   6.039   1.526   3.293  0.4945  0.5112 -1.8273
 3704TIP3    H232528   6.177   1.581   3.264  1.3172  0.3796  1.4238
 3705TIP3   OH232529   5.194   2.604   2.178 -0.2838 -0.2486  0.1506
 3705TIP3    H132530   5.132   2.673   2.201  0.6864  0.9863 -0.8006
 3705TIP3    H232531   5.177   2.585   2.086  1.2940  0.7725 -0.4063
 3706TIP3   OH232532   4.717   5.667  16.098  0.7279 -0.4975 -0.3439
 3706TIP3    H132533   4.770   5.690  16.021  0.6721 -1.8484 -0.8215
 3706TIP3    H232534   4.633   5.710  16.083  0.7000 -0.7930 -1.0726
 3707TIP3   OH232535   6.717   2.600  14.267 -0.4374 -0.9837 -0.0448
 3707TIP3    H132536   6.796   2.596  14.320 -0.7147  1.8807  0.7649
 3707TIP3    H232537   6.741   2.654  14.192 -0.9615 -2.2431 -1.1517
 3708TIP3   OH232538   3.006   4.179   1.944  0.6270 -0.1853  0.2550
 3708TIP3    H132539   2.913   4.174   1.922  1.1273  1.3902 -2.7148
 3708TIP3    H232540   3.012   4.249   2.008 -0.3545 -1.4527  1.8112
 3709TIP3   OH232541   3.203   1.249   6.815  0.1329 -0.1715 -0.0813
 3709TIP3    H132542   3.257   1.321   6.849 -0.9552 -0.0461  1.4908
 3709TIP3    H232543   3.225   1.174   6.871 -0.9402 -0.2368  0.2761
 3710TIP3   OH232544   2.943   1.002  15.190 -0.2048 -0.4454 -0.4745
 3710TIP3    H132545   2.893   0.933  15.234 -0.4420 -0.6599 -1.0789
 3710TIP3    H232546   3.034   0.973  15.198  0.1768  1.1923  2.9052
 3711TIP3   OH232547   0.706   0.181  15.710 -0.1142  0.0312  0.6457
 3711TIP3    H132548   0.659   0.197  15.793 -0.3247 -1.2083  0.7811
 3711TIP3    H232549   0.659   0.108  15.670 -0.1291  0.7450 -0.6733
 3712TIP3   OH232550   2.493   1.063  15.202  0.3714 -0.3525  0.0809
 3712TIP3    H132551   2.527   1.025  15.121 -1.0286 -1.1126 -0.1840
 3712TIP3    H232552   2.420   1.006  15.227  0.2190  0.3776  1.3978
 3713TIP3   OH232553   5.234   3.239  16.271 -0.5767 -0.0527  0.0633
 3713TIP3    H132554   5.268   3.230  16.361  1.1336 -0.0876 -0.5480
 3713TIP3    H232555   5.158   3.180  16.268 -1.5617  1.0374  1.8866
 3714TIP3   OH232556   0.437   5.919  15.634  0.1013  0.0092  0.1487
 3714TIP3    H132557   0.354   5.873  15.626 -0.5313  0.7641  2.0118
 3714TIP3    H232558   0.502   5.850  15.649 -0.4305 -0.4474  0.3539
 3715TIP3   OH232559   1.813   1.595   2.367 -0.0640  0.0076  0.3365
 3715TIP3    H132560   1.881   1.581   2.301  0.0462 -0.5113  0.5596
 3715TIP3    H232561   1.732   1.572   2.321  0.1471 -1.8040  0.8102
 3716TIP3   OH232562   5.078   4.400   4.691 -0.6074 -0.0353  0.0942
 3716TIP3    H132563   5.124   4.404   4.607 -1.7856  1.9875 -0.5119
 3716TIP3    H232564   5.000   4.454   4.679 -0.2956  1.1828  2.8122
 3717TIP3   OH232565   2.243   6.037   5.709  0.7283 -0.6704 -0.4381
 3717TIP3    H132566   2.296   6.100   5.660 -0.0889 -0.5510 -1.1938
 3717TIP3    H232567   2.260   5.953   5.668 -0.2081 -0.5218 -1.1799
 3718TIP3   OH232568   0.926   6.120   6.867  0.3628  0.2980 -0.0951
 3718TIP3    H132569   0.982   6.125   6.944  1.7579  2.5043 -1.1365
 3718TIP3    H232570   0.870   6.044   6.882  2.1738 -0.7292  1.9965
 3719TIP3   OH232571   1.397   6.439   4.023  0.3008  0.1959  0.2791
 3719TIP3    H132572   1.355   6.439   3.937  0.3334  0.5824  0.2623
 3719TIP3    H232573   1.366   6.358   4.064  1.5415 -0.8069 -0.6890
 3720TIP3   OH232574   2.458   0.841  14.351  0.2906 -0.2339  0.5497
 3720TIP3    H132575   2.527   0.824  14.416  0.5120  0.5567  0.5262
 3720TIP3    H232576   2.394   0.894  14.397 -0.2538 -0.8605  0.5303
 3721TIP3   OH232577   3.986   6.013   6.320  0.5334 -0.3637  0.2332
 3721TIP3    H132578   4.018   5.978   6.403 -1.7658 -1.3686  0.7611
 3721TIP3    H232579   4.053   5.987   6.256  1.2294 -1.5417  1.3909
 3722TIP3   OH232580   2.809   3.740  15.907 -0.4428  0.3126  0.1056
 3722TIP3    H132581   2.833   3.667  15.965 -0.8829  0.8110  0.9327
 3722TIP3    H232582   2.773   3.697  15.829  3.3235 -0.5183 -1.4167
 3723TIP3   OH232583   0.950   3.170   5.467 -0.3142  0.9998 -0.4217
 3723TIP3    H132584   0.937   3.118   5.388 -0.4873 -0.3938  0.5018
 3723TIP3    H232585   0.877   3.148   5.524  0.4320  1.0802  0.6009
 3724TIP3   OH232586   0.856   4.794   5.056  0.5883  0.1464  0.1958
 3724TIP3    H132587   0.849   4.727   4.989  3.8115 -0.2777  0.1303
 3724TIP3    H232588   0.813   4.756   5.133 -0.7802 -0.4468 -0.8216
 3725TIP3   OH232589   1.722   0.828  11.398  0.0575  0.2400  0.2879
 3725TIP3    H132590   1.711   0.780  11.480 -2.3575 -0.0394 -0.1355
 3725TIP3    H232591   1.675   0.910  11.412  1.7501  1.3145  0.0054
 3726TIP3   OH232592   4.264   4.855  14.104 -0.3041 -0.3425 -0.0780
 3726TIP3    H132593   4.227   4.896  14.026 -2.0188 -3.0986 -0.8548
 3726TIP3    H232594   4.278   4.764  14.079  1.6036 -0.7292  2.0718
 3727TIP3   OH232595   4.013   5.116  14.124 -0.4541  0.0636 -0.3295
 3727TIP3    H132596   4.066   5.195  14.128 -0.0182 -0.2007 -0.8248
 3727TIP3    H232597   3.928   5.143  14.158 -1.1785  1.4880 -2.9322
 3728TIP3   OH232598   0.514   2.345  16.380 -0.2070 -0.1490 -0.2723
 3728TIP3    H132599   0.554   2.317  16.298  0.5729  2.3079 -0.8192
 3728TIP3    H232600   0.532   2.439  16.385 -2.2715  0.2399  1.5740
 3729TIP3   OH232601   1.143   1.936   5.481  0.3134  0.6277  0.1970
 3729TIP3    H132602   1.152   1.891   5.565  0.3597 -0.2491 -0.2642
 3729TIP3    H232603   1.084   1.880   5.431  1.9138  0.0340 -1.1011
 3730TIP3   OH232604   0.557   4.557  16.993 -0.4185 -0.0019 -0.9889
 3730TIP3    H132605   0.484   4.595  16.945 -2.9642 -0.9413  1.7852
 3730TIP3    H232606   0.530   4.466  17.009  1.2309 -0.3017  0.3395
 3731TIP3   OH232607   5.693   5.886  16.081 -0.3689  0.1556 -0.7768
 3731TIP3    H132608   5.643   5.948  16.135  0.6236  1.7101 -1.5698
 3731TIP3    H232609   5.749   5.841  16.144  0.1315  1.2994 -0.3700
 3732TIP3   OH232610   2.228   1.864   6.096 -0.3234  0.2292  0.1999
 3732TIP3    H132611   2.224   1.840   6.003 -1.7175 -0.6388  0.4502
 3732TIP3    H232612   2.282   1.796   6.136  1.4842  1.3833 -0.1594
 3733TIP3   OH232613   5.839   4.114   5.385 -0.7565  0.2311  0.5092
 3733TIP3    H132614   5.757   4.109   5.337 -0.4256 -0.0539 -0.0344
 3733TIP3    H232615   5.877   4.026   5.377 -0.0344  0.5740  0.1021
 3734TIP3   OH232616   1.681   5.644   2.867 -0.3506 -0.0724 -0.3104
 3734TIP3    H132617   1.654   5.686   2.948 -2.0255 -0.7257 -0.4903
 3734TIP3    H232618   1.767   5.606   2.886 -0.1245  0.9335  0.7233
 3735TIP3   OH232619   1.874   4.569   1.311  0.0309 -0.2385 -0.1010
 3735TIP3    H132620   1.967   4.583   1.329  0.3313 -0.9231 -1.0512
 3735TIP3    H232621   1.866   4.474   1.301 -0.6909 -0.1426 -0.4696
 3736TIP3   OH232622   6.585   4.293  11.551 -0.1329  0.1681  0.0500
 3736TIP3    H132623   6.585   4.352  11.626 -2.6585  0.3921 -0.0388
 3736TIP3    H232624   6.526   4.222  11.576 -0.4067 -0.1612 -1.4312
 3737TIP3   OH232625   1.561   1.289   3.498  0.5924  0.3786  0.2354
 3737TIP3    H132626   1.584   1.277   3.590  0.4993  3.0745  0.6919
 3737TIP3    H232627   1.644   1.310   3.455  0.5081 -0.0768 -0.1613
 3738TIP3   OH232628   6.173   0.165   5.214  0.5015  0.4185 -0.2108
 3738TIP3    H132629   6.227   0.206   5.282 -2.1622  1.1229  1.6492
 3738TIP3    H232630   6.151   0.236   5.154 -2.1012  1.3570  1.6673
 3739TIP3   OH232631   4.878   1.548  15.097  0.2733 -0.3349  0.2630
 3739TIP3    H132632   4.787   1.519  15.099  0.7743 -2.0698  0.3303
 3739TIP3    H232633   4.891   1.594  15.179 -0.3282 -0.8378  0.6549
 3740TIP3   OH232634   2.287   1.325   6.473  0.5200 -0.5523  0.6697
 3740TIP3    H132635   2.293   1.230   6.484  1.5853 -0.4631  0.9149
 3740TIP3    H232636   2.203   1.338   6.429  0.3539 -1.6067  0.6460
 3741TIP3   OH232637   0.739   2.905  15.967 -0.5393  0.2894  0.3303
 3741TIP3    H132638   0.808   2.966  15.941  0.8197 -1.3568 -0.0977
 3741TIP3    H232639   0.713   2.861  15.886 -2.8625  1.5521  0.3016
 3742TIP3   OH232640   0.194   0.044  15.165 -0.8233 -0.0460  0.7325
 3742TIP3    H132641   0.141  -0.028  15.200  0.6380 -1.7617 -0.4073
 3742TIP3    H232642   0.270   0.001  15.125 -0.0675  2.1216 -0.3314
 3743TIP3   OH232643   2.320   0.861   2.679 -0.1430 -0.2649  0.0295
 3743TIP3    H132644   2.253   0.903   2.625 -1.3101 -0.7810  1.0271
 3743TIP3    H232645   2.297   0.768   2.677  2.1246 -0.8881 -1.7637
 3744TIP3   OH232646   6.447   4.452   2.906  0.0257 -0.0006  0.2213
 3744TIP3    H132647   6.356   4.468   2.930  0.3662  0.0812  1.5168
 3744TIP3    H232648   6.474   4.530   2.857 -0.1765  0.6244  1.0876
 3745TIP3   OH232649   3.587   3.007   1.283 -0.6109  0.1629 -0.0728
 3745TIP3    H132650   3.529   3.042   1.351 -0.5576 -0.1796  0.1527
 3745TIP3    H232651   3.583   3.071   1.213 -0.9604  0.3357  0.1023
 3746TIP3   OH232652   1.872   1.511   5.167  0.2223  0.3929 -0.0563
 3746TIP3    H132653   1.848   1.564   5.091 -2.0417 -0.8145 -0.2932
 3746TIP3    H232654   1.861   1.570   5.242 -1.2638  0.5944 -0.3945
 3747TIP3   OH232655   2.980   2.497   2.713 -0.3324  0.6395 -0.0354
 3747TIP3    H132656   3.041   2.532   2.779 -1.4494  1.8719  0.3928
 3747TIP3    H232657   2.895   2.533   2.738 -1.2798 -1.1387 -0.5588
 3748TIP3   OH232658   5.096   6.455  10.302 -0.2491  0.8646 -0.4723
 3748TIP3    H132659   5.068   6.537  10.260  0.3517  0.0721 -2.5031
 3748TIP3    H232660   5.015   6.405  10.314 -0.3757  0.9265 -1.0704
 3749TIP3   OH232661   2.456   0.084  15.353  0.3771  0.0261  0.4156
 3749TIP3    H132662   2.398   0.129  15.291 -0.2020  0.2713  1.1143
 3749TIP3    H232663   2.514   0.032  15.298 -0.7432 -0.5149 -0.3069
 3750TIP3   OH232664   6.365   3.765   3.136 -0.4580 -0.0429 -0.2238
 3750TIP3    H132665   6.416   3.689   3.165 -0.0805 -0.0411 -0.8861
 3750TIP3    H232666   6.428   3.822   3.092 -0.9164  0.2325 -0.5370
 3751TIP3   OH232667   1.190   5.970   6.043 -0.6192  0.6705 -0.2016
 3751TIP3    H132668   1.123   6.004   6.102 -0.4277  1.4141 -0.3970
 3751TIP3    H232669   1.259   5.938   6.100 -1.9852 -2.0141  0.0797
 3752TIP3   OH232670   1.154   2.259   3.086 -0.2137  0.0851  0.8005
 3752TIP3    H132671   1.110   2.277   3.003 -0.2056  1.8464  1.1525
 3752TIP3    H232672   1.162   2.163   3.088 -0.9397 -0.0447 -0.8393
 3753TIP3   OH232673   6.713   3.429   4.097  0.3726  0.4410  0.7022
 3753TIP3    H132674   6.678   3.342   4.116  2.1839 -0.1389  1.6346
 3753TIP3    H232675   6.729   3.468   4.183  2.1936  0.5554  0.3602
 3754TIP3   OH232676   0.413   5.991  14.919 -0.4805  0.3358 -0.0559
 3754TIP3    H132677   0.493   6.041  14.932  0.4476 -1.1868  0.3704
 3754TIP3    H232678   0.380   5.974  15.007 -0.9994  0.5241 -0.2102
 3755TIP3   OH232679   5.216   5.166  11.449  0.0664 -0.8318  0.1943
 3755TIP3    H132680   5.149   5.222  11.412 -0.1292 -0.9416  0.3788
 3755TIP3    H232681   5.232   5.100  11.382  0.8218 -0.1416 -0.3248
 3756TIP3   OH232682   3.575   6.597  10.522 -0.2820  0.0039  0.0880
 3756TIP3    H132683   3.659   6.584  10.478  0.3674 -1.4877  1.6758
 3756TIP3    H232684   3.533   6.667  10.472  2.1722  1.2676 -0.3828
 3757TIP3   OH232685   2.013   2.013   4.979  0.3932 -0.1234  0.2450
 3757TIP3    H132686   1.945   1.991   5.043  0.8525  0.4307  0.9443
 3757TIP3    H232687   2.095   2.008   5.029  0.7928  0.0468 -0.3780
 3758TIP3   OH232688   2.574   1.382  11.170 -0.3247 -0.4746  0.2133
 3758TIP3    H132689   2.566   1.414  11.080  0.3488 -1.7794 -0.3425
 3758TIP3    H232690   2.650   1.323  11.167  1.4738  1.5686  2.2665
 3759TIP3   OH232691   6.755   3.744   0.346 -0.0287  0.1405 -0.3701
 3759TIP3    H132692   6.693   3.673   0.363 -0.3615  0.5483  0.1695
 3759TIP3    H232693   6.700   3.822   0.338  0.4882  0.7994  1.7810
 3760TIP3   OH232694   3.172   0.052   3.816  0.3768  0.4498 -0.1697
 3760TIP3    H132695   3.183   0.140   3.854 -0.9151  0.4959  0.1705
 3760TIP3    H232696   3.184  -0.008   3.889  0.5674  0.3775 -0.2588
 3761TIP3   OH232697   5.407   3.189   4.473 -0.7060 -0.1505 -0.5492
 3761TIP3    H132698   5.447   3.138   4.403 -0.0522 -0.0132 -0.2786
 3761TIP3    H232699   5.442   3.150   4.553 -2.0102 -0.7837 -0.2640
 3762TIP3   OH232700   0.009   3.869   3.199 -0.0110  0.0675  0.1408
 3762TIP3    H132701   0.085   3.820   3.231 -1.0361 -1.5138  0.2685
 3762TIP3    H232702  -0.033   3.903   3.278 -1.4854 -2.2373  0.4216
 3763TIP3   OH232703   5.625   0.695   0.911 -0.0119  0.2794 -0.0285
 3763TIP3    H132704   5.543   0.736   0.939 -0.2505  1.2436 -1.9168
 3763TIP3    H232705   5.650   0.745   0.833  1.8924 -0.5978 -0.0155
 3764TIP3   OH232706   5.537   1.205  12.939  0.6945 -0.2882 -0.2007
 3764TIP3    H132707   5.445   1.181  12.946  0.3169  0.9702 -0.4479
 3764TIP3    H232708   5.556   1.253  13.020  0.8388  0.3056 -0.5754
 3765TIP3   OH232709   6.527   3.042   1.516  0.3761 -0.0191  0.1866
 3765TIP3    H132710   6.441   3.003   1.501 -0.0947  1.2938 -0.7632
 3765TIP3    H232711   6.589   2.977   1.483 -0.3877  0.1330 -1.6795
 3766TIP3   OH232712   0.780   5.093  16.691 -0.1190  0.9586 -0.6165
 3766TIP3    H132713   0.855   5.153  16.692  0.0356  0.7797 -1.0536
 3766TIP3    H232714   0.758   5.085  16.598 -0.5193  0.8079 -0.5110
 3767TIP3   OH232715   4.057   3.747   2.482 -0.7341 -1.0453 -0.2549
 3767TIP3    H132716   4.088   3.732   2.571 -3.3189  0.7568  1.0855
 3767TIP3    H232717   4.124   3.803   2.442 -0.4267 -0.3017  1.2339
 3768TIP3   OH232718   3.938   5.815  15.275 -0.0445 -0.0974 -0.0177
 3768TIP3    H132719   4.021   5.820  15.229 -1.7036 -0.1947 -3.3282
 3768TIP3    H232720   3.951   5.866  15.355  2.8673  0.6512 -0.8561
 3769TIP3   OH232721   1.423   1.768   1.733  0.1862  0.1073 -0.3557
 3769TIP3    H132722   1.483   1.816   1.676 -0.6914  2.7453  0.7520
 3769TIP3    H232723   1.448   1.795   1.821 -0.0934 -1.9238  0.3936
 3770TIP3   OH232724   6.676   6.134  15.545  0.0581 -0.3028 -0.1162
 3770TIP3    H132725   6.595   6.103  15.504 -0.6784 -0.4757  1.3795
 3770TIP3    H232726   6.746   6.094  15.495 -0.7645  0.1291 -1.6706
 3771TIP3   OH232727   5.325   5.720   1.256 -0.0952 -0.0852 -0.4513
 3771TIP3    H132728   5.251   5.662   1.278 -0.6471  0.5272 -0.6729
 3771TIP3    H232729   5.399   5.660   1.245 -0.1808 -0.5922  1.3271
 3772TIP3   OH232730   4.038   0.734  16.871  0.3132 -0.2467 -0.6506
 3772TIP3    H132731   3.942   0.737  16.872  0.3249  1.9339  0.5138
 3772TIP3    H232732   4.063   0.719  16.962  1.0602  0.4014 -0.7383
 3773TIP3   OH232733   3.803   3.691   4.847 -0.3030  0.2493 -0.0257
 3773TIP3    H132734   3.871   3.648   4.795 -0.2898 -0.9696  0.9588
 3773TIP3    H232735   3.722   3.671   4.801 -0.3076 -0.9594  0.4574
 3774TIP3   OH232736   3.167   3.080  13.512 -0.2446  0.5326  0.2648
 3774TIP3    H132737   3.201   3.122  13.433 -0.4494  1.2074  0.5317
 3774TIP3    H232738   3.100   3.020  13.480 -0.8533  1.3447 -0.0307
 3775TIP3   OH232739   0.440   3.895   5.912 -0.3356  0.1808 -0.0591
 3775TIP3    H132740   0.500   3.821   5.903  0.4815  0.6623  1.2546
 3775TIP3    H232741   0.394   3.880   5.994  2.2939  2.7465  2.1266
 3776TIP3   OH232742   0.211   0.256   5.643 -0.0572 -0.3103 -0.4927
 3776TIP3    H132743   0.153   0.199   5.593 -0.2332 -1.8937  1.4128
 3776TIP3    H232744   0.151   0.311   5.695  0.1354 -0.5530 -0.0135
 3777TIP3   OH232745   4.300   5.992   4.710 -0.1694 -0.1102 -0.0940
 3777TIP3    H132746   4.321   5.920   4.651 -0.3750  0.8275 -1.3643
 3777TIP3    H232747   4.376   6.050   4.705  0.1958 -0.4394  1.2701
 3778TIP3   OH232748   3.931   3.694   5.966  0.2851 -0.5450  0.0975
 3778TIP3    H132749   3.956   3.732   6.050  1.1380 -0.2263 -0.2889
 3778TIP3    H232750   3.953   3.602   5.974 -0.4056 -0.6796  0.5116
 3779TIP3   OH232751   1.740   1.607  12.981 -0.0035  0.0631 -0.2178
 3779TIP3    H132752   1.697   1.525  13.006  1.1778 -0.6497 -0.4648
 3779TIP3    H232753   1.740   1.606  12.885  2.0022 -0.7653 -0.2550
 3780TIP3   OH232754   2.345   2.535  15.232  0.0953 -0.3881  0.4007
 3780TIP3    H132755   2.363   2.628  15.216 -0.2265 -0.5112 -0.8011
 3780TIP3    H232756   2.345   2.526  15.327  0.8925  0.6919  0.5175
 3781TIP3   OH232757   5.805   2.923  16.711  0.1649 -0.2150  0.2191
 3781TIP3    H132758   5.758   2.888  16.787 -0.0904  0.5881  0.4462
 3781TIP3    H232759   5.897   2.919  16.735  0.0466  0.7320  0.8982
 3782TIP3   OH232760   5.693   6.684   2.203 -0.4532 -0.1516  0.1190
 3782TIP3    H132761   5.774   6.681   2.255 -1.3796 -0.0722  1.6381
 3782TIP3    H232762   5.708   6.622   2.132  1.6011  1.1601 -0.6646
 3783TIP3   OH232763   5.709   0.462  11.985  0.4198 -0.3930  0.5936
 3783TIP3    H132764   5.729   0.447  11.893  2.3993 -0.1051  0.9138
 3783TIP3    H232765   5.630   0.516  11.985  0.0106 -0.9566 -0.8963
 3784TIP3   OH232766   4.789   2.240  14.835 -0.3677 -0.1903  0.2463
 3784TIP3    H132767   4.857   2.210  14.773  0.3315  0.5322  0.6464
 3784TIP3    H232768   4.760   2.160  14.878 -0.8352 -0.7060 -0.9773
 3785TIP3   OH232769   6.296   1.161  11.635 -0.1088  0.0879 -0.3979
 3785TIP3    H132770   6.302   1.069  11.659  0.4802 -0.0498 -1.0457
 3785TIP3    H232771   6.224   1.165  11.572  0.4715 -0.0949 -1.0877
 3786TIP3   OH232772   4.855   0.453  15.520 -0.3203  0.5507  0.4087
 3786TIP3    H132773   4.871   0.443  15.427  1.2339 -1.5990  0.8299
 3786TIP3    H232774   4.760   0.443  15.529 -0.2263 -2.3801 -0.7000
 3787TIP3   OH232775   2.845   4.533  17.021 -0.1659 -0.4710 -0.0411
 3787TIP3    H132776   2.758   4.499  17.042  0.6215 -2.3585  0.3299
 3787TIP3    H232777   2.885   4.553  17.105 -0.0666 -0.0376 -0.1873
 3788TIP3   OH232778   2.539   6.475  13.437 -0.7479 -0.3973 -0.2371
 3788TIP3    H132779   2.631   6.459  13.418 -0.7966  0.0385 -0.8499
 3788TIP3    H232780   2.527   6.569  13.422 -0.9368 -0.1422  1.3344
 3789TIP3   OH232781   0.897   4.915  10.941 -0.4480  0.0953 -0.1090
 3789TIP3    H132782   0.880   4.855  11.014 -1.1330 -0.8385 -0.9870
 3789TIP3    H232783   0.943   4.861  10.876  0.4570  0.9970 -0.2474
 3790TIP3   OH232784   2.816   2.933  13.720  0.2597  0.3145 -0.4291
 3790TIP3    H132785   2.796   2.958  13.630 -0.5354  2.4138  0.2690
 3790TIP3    H232786   2.761   2.856  13.737 -0.5861  0.7011 -1.3171
 3791TIP3   OH232787   6.639   0.186  13.425  0.1770 -0.2480 -0.2445
 3791TIP3    H132788   6.699   0.179  13.499 -0.0211  0.5157  0.0003
 3791TIP3    H232789   6.677   0.129  13.358  2.4126  1.8032 -0.9028
 3792TIP3   OH232790   2.518   4.005   6.043 -0.6890  0.6248  0.2955
 3792TIP3    H132791   2.434   4.051   6.037 -1.2484 -0.3497  0.3820
 3792TIP3    H232792   2.552   4.004   5.953 -1.7537 -0.7351 -0.1183
 3793TIP3   OH232793   3.619   5.250   2.078 -0.3725 -0.4701 -0.6278
 3793TIP3    H132794   3.673   5.310   2.129  0.5306 -1.0223 -0.9169
 3793TIP3    H232795   3.558   5.307   2.031  0.9792  0.3219 -1.4994
 3794TIP3   OH232796   1.779   6.338  12.998  0.0678 -0.2159  0.2430
 3794TIP3    H132797   1.815   6.417  13.037  0.1689 -0.1504  0.0228
 3794TIP3    H232798   1.703   6.368  12.947  0.9824 -0.0295 -1.0707
 3795TIP3   OH232799   5.176   6.180  14.743 -0.7086  0.1259  0.3760
 3795TIP3    H132800   5.212   6.092  14.744 -0.0353  0.3702 -0.7025
 3795TIP3    H232801   5.141   6.191  14.654 -0.7818  0.9356  0.4944
 3796TIP3   OH232802   0.635   2.988   6.259 -0.3236  0.1782 -0.5083
 3796TIP3    H132803   0.551   2.985   6.304 -0.1817  0.0245 -0.2441
 3796TIP3    H232804   0.678   2.906   6.285 -0.3138  0.0043 -1.0790
 3797TIP3   OH232805   4.246   5.208   0.729  0.1955  0.1670  0.2356
 3797TIP3    H132806   4.263   5.116   0.749 -0.8371  0.2678  1.7790
 3797TIP3    H232807   4.316   5.256   0.773  0.3125  0.1626  0.0549
 3798TIP3   OH232808   0.284   1.372  15.750 -0.0088  0.0582 -0.4012
 3798TIP3    H132809   0.292   1.424  15.670 -0.7710  0.3846 -0.2722
 3798TIP3    H232810   0.262   1.284  15.720 -0.0967  0.1341 -0.5584
 3799TIP3   OH232811   1.712   3.085  12.336  0.1702  0.3652 -0.7746
 3799TIP3    H132812   1.643   3.044  12.283  0.6799 -0.8030 -0.5753
 3799TIP3    H232813   1.772   3.013  12.356 -0.2136  0.6592  1.7434
 3800TIP3   OH232814   0.708   0.817  15.256  0.0154  0.0076 -0.0655
 3800TIP3    H132815   0.658   0.814  15.338  0.3542  0.7118  0.1812
 3800TIP3    H232816   0.671   0.747  15.202  0.3929 -1.0712  1.0350
 3801TIP3   OH232817   1.473   5.585  13.226 -0.3666  0.1085 -0.5308
 3801TIP3    H132818   1.383   5.581  13.260 -0.1889  2.0215  0.3084
 3801TIP3    H232819   1.524   5.532  13.287 -0.6474  0.5126  0.0656
 3802TIP3   OH232820   0.477   4.369   0.546  0.0893 -0.2818  0.0890
 3802TIP3    H132821   0.440   4.291   0.588 -1.3451  0.6491  0.6417
 3802TIP3    H232822   0.516   4.419   0.618  0.0797 -0.0022 -0.0976
 3803TIP3   OH232823   3.649   3.986   6.298  0.0351 -0.2156 -0.5525
 3803TIP3    H132824   3.630   3.979   6.391  0.4116  0.2247 -0.4353
 3803TIP3    H232825   3.745   3.979   6.293 -0.0843 -1.6819 -1.0515
 3804TIP3   OH232826   0.371   2.866  13.761  0.1344 -0.0994 -0.2154
 3804TIP3    H132827   0.393   2.916  13.682  0.4937 -1.2738 -0.8936
 3804TIP3    H232828   0.456   2.841  13.797 -0.0361  0.0618  0.3062
 3805TIP3   OH232829   3.028   3.630  12.467 -0.3790  0.0965  0.3364
 3805TIP3    H132830   3.075   3.682  12.401  1.0502 -0.1345  1.1374
 3805TIP3    H232831   2.991   3.695  12.527 -1.6590  0.3072 -0.6296
 3806TIP3   OH232832   0.832   0.507  17.172 -0.2452  0.3076 -0.2467
 3806TIP3    H132833   0.817   0.596  17.205 -1.2120 -0.1111  0.4836
 3806TIP3    H232834   0.869   0.460  17.247 -0.4031 -0.0917 -0.4207
 3807TIP3   OH232835   4.796   3.195   4.146  0.2451 -0.3408  0.9023
 3807TIP3    H132836   4.890   3.207   4.161  0.0019 -0.0188  2.3467
 3807TIP3    H232837   4.755   3.265   4.197 -0.8246 -1.1739  1.2260
 3808TIP3   OH232838   6.309   5.196  14.315  0.3437 -0.4684  0.2587
 3808TIP3    H132839   6.263   5.270  14.354  0.5553 -0.1193 -0.1441
 3808TIP3    H232840   6.368   5.166  14.384  1.2691  0.6296 -0.0170
 3809TIP3   OH232841   6.310   6.439   4.088  0.1293  0.0184  0.0868
 3809TIP3    H132842   6.393   6.442   4.040 -0.4195  2.5896 -0.8634
 3809TIP3    H232843   6.245   6.415   4.023  0.0140 -1.4657  0.7163
 3810TIP3   OH232844   1.033   4.022  11.336  0.5238  1.0486  0.0772
 3810TIP3    H132845   1.035   4.017  11.431  2.3891 -1.0311  0.0239
 3810TIP3    H232846   0.945   3.995  11.312  0.2762  0.7884  1.2108
 3811TIP3   OH232847   5.233   0.276   3.515 -0.2008  0.1924  0.0458
 3811TIP3    H132848   5.222   0.199   3.459 -0.5602 -0.8206  1.4546
 3811TIP3    H232849   5.267   0.344   3.456 -2.1162 -0.3133 -1.7430
 3812TIP3   OH232850   2.807   6.263  13.771 -0.5989 -0.0659  0.9012
 3812TIP3    H132851   2.886   6.268  13.718  0.1529 -0.0953  1.9767
 3812TIP3    H232852   2.760   6.344  13.753 -1.1410 -0.7637 -0.9719
 3813TIP3   OH232853   4.941   1.145  15.789 -0.5957  0.0606 -0.0624
 3813TIP3    H132854   4.964   1.067  15.838  1.4742  0.9410  0.5054
 3813TIP3    H232855   4.883   1.114  15.719 -0.4509 -1.8333  0.6112
 3814TIP3   OH232856   4.509   6.454   6.092  0.2718  0.0341  0.9571
 3814TIP3    H132857   4.549   6.371   6.066 -2.2653 -0.5684 -1.3927
 3814TIP3    H232858   4.582   6.516   6.092  2.1234 -1.9721  2.1711
 3815TIP3   OH232859   1.004   1.426  12.934  0.3617  0.1703 -0.1293
 3815TIP3    H132860   1.026   1.483  12.861 -0.7961 -1.2628 -1.6581
 3815TIP3    H232861   1.088   1.407  12.976  0.8777  2.1455 -0.1785
 3816TIP3   OH232862   3.436   5.410  15.269 -0.0373  0.6380  0.0762
 3816TIP3    H132863   3.438   5.346  15.197  0.3394 -1.8423  2.1623
 3816TIP3    H232864   3.502   5.378  15.331  0.3828  3.2731  1.1119
 3817TIP3   OH232865   6.553   3.098   6.508 -0.5239  0.7238 -0.5718
 3817TIP3    H132866   6.632   3.150   6.497  0.4515 -0.7900 -1.1565
 3817TIP3    H232867   6.481   3.161   6.507  0.7219  2.2470  1.0076
 3818TIP3   OH232868   6.463   2.309   6.714 -0.0158  0.0809  0.5512
 3818TIP3    H132869   6.382   2.356   6.735  0.1995  1.1301 -0.8347
 3818TIP3    H232870   6.433   2.227   6.675 -0.3927 -0.4761  1.9507
 3819TIP3   OH232871   5.690   4.218  10.986 -0.2099 -0.4178  0.2382
 3819TIP3    H132872   5.718   4.298  11.030 -0.3762  0.9118 -1.9037
 3819TIP3    H232873   5.602   4.238  10.954 -0.9769 -2.1213  1.1429
 3820TIP3   OH232874   2.146   3.207   1.436  1.0118  0.0187  0.2007
 3820TIP3    H132875   2.173   3.266   1.366  0.6807  0.5411  0.5055
 3820TIP3    H232876   2.219   3.208   1.498  1.8173 -1.3482 -0.6688
 3821TIP3   OH232877   3.914   3.763  16.797 -0.4832 -0.0727 -0.1031
 3821TIP3    H132878   3.860   3.814  16.738  0.4626  0.8937 -0.1605
 3821TIP3    H232879   4.003   3.795  16.782  0.1990 -1.9213 -0.3478
 3822TIP3   OH232880   4.316   5.054   1.353  0.2110 -0.2451 -0.5307
 3822TIP3    H132881   4.342   5.131   1.303  0.3735  1.2404  1.7388
 3822TIP3    H232882   4.229   5.075   1.387  0.7497 -0.5266  1.0996
 3823TIP3   OH232883   1.772   2.107  11.141 -0.0413  0.5048 -0.1523
 3823TIP3    H132884   1.749   2.180  11.082  0.0707 -0.2988 -1.2102
 3823TIP3    H232885   1.849   2.068  11.101 -0.0938 -0.1860  0.4217
 3824TIP3   OH232886   6.197   0.391  12.836 -0.1124  0.0006 -0.1447
 3824TIP3    H132887   6.134   0.436  12.893  0.8294 -1.4008  2.1353
 3824TIP3    H232888   6.282   0.427  12.862  0.5060 -1.9084  0.6279
 3825TIP3   OH232889   6.399   1.302   0.592 -0.0466  0.1601 -0.5091
 3825TIP3    H132890   6.407   1.397   0.595  0.1277  0.1639 -0.9684
 3825TIP3    H232891   6.328   1.281   0.653 -0.3725  0.6207 -0.7296
 3826TIP3   OH232892   5.985   1.812  15.709  0.2825  0.0917 -0.0007
 3826TIP3    H132893   6.049   1.873  15.672  0.6503 -0.0465  0.3959
 3826TIP3    H232894   5.976   1.840  15.800 -0.3007  0.1690 -0.0801
 3827TIP3   OH232895   0.878   2.379   0.880  0.1063 -0.0881  0.1628
 3827TIP3    H132896   0.968   2.413   0.882  0.1169 -0.0518 -0.6556
 3827TIP3    H232897   0.855   2.365   0.972  2.1756 -3.3969  0.3345
 3828TIP3   OH232898   6.591   2.102  12.089 -0.2427  0.1452  0.2168
 3828TIP3    H132899   6.675   2.057  12.101  0.7778  1.0672 -2.4543
 3828TIP3    H232900   6.566   2.081  11.999 -2.4184  0.6788  0.6521
 3829TIP3   OH232901   0.647   3.160   3.201 -0.0524 -0.1493 -0.3112
 3829TIP3    H132902   0.734   3.154   3.162 -0.6204  2.4995 -2.2189
 3829TIP3    H232903   0.660   3.207   3.283  0.6622 -2.6661  1.1258
 3830TIP3   OH232904   3.129   5.824   6.826 -0.5240 -0.3301 -0.3661
 3830TIP3    H132905   3.134   5.808   6.732 -1.0316 -0.1495 -0.4307
 3830TIP3    H232906   3.062   5.893   6.835  0.7776  0.9275 -0.0069
 3831TIP3   OH232907   0.985   4.053   1.515  0.1908  0.8392 -0.1020
 3831TIP3    H132908   1.023   4.117   1.455  1.5802  0.2423  0.1073
 3831TIP3    H232909   0.891   4.057   1.498  0.3149  2.4818 -0.5220
 3832TIP3   OH232910   1.158   0.148   5.958 -0.0690  0.4867 -0.2365
 3832TIP3    H132911   1.209   0.195   6.024 -0.2866  2.2954 -1.2994
 3832TIP3    H232912   1.067   0.156   5.988 -0.0512  0.1670 -0.0895
 3833TIP3   OH232913   4.355   6.557   3.038  0.2807 -0.4659  0.0670
 3833TIP3    H132914   4.439   6.600   3.024 -1.0920  2.4148  0.0116
 3833TIP3    H232915   4.377   6.475   3.082  3.2015 -0.6153 -1.4241
 3834TIP3   OH232916   4.704   6.363   3.948 -0.2557  0.6159 -0.3047
 3834TIP3    H132917   4.699   6.303   3.873 -0.0310  0.7280 -0.4088
 3834TIP3    H232918   4.776   6.422   3.927 -1.2944  1.7444 -0.7965
 3835TIP3   OH232919   4.987   2.270  13.601 -0.1713  0.5632  0.4088
 3835TIP3    H132920   4.932   2.198  13.571 -0.9232  1.3234 -0.0686
 3835TIP3    H232921   5.049   2.229  13.662 -0.2436 -0.5697 -0.2476
 3836TIP3   OH232922   0.035   3.788   4.871  0.1840  0.5544 -0.0060
 3836TIP3    H132923   0.112   3.776   4.926  0.7789  2.8586 -0.1971
 3836TIP3    H232924   0.062   3.756   4.785  0.7448  0.8477  0.0592
 3837TIP3   OH232925   2.386   6.085   5.410 -0.0328 -0.2432  0.6105
 3837TIP3    H132926   2.473   6.058   5.440  0.1600  0.2621  0.5117
 3837TIP3    H232927   2.394   6.092   5.315  0.2901  1.4017  0.7267
 3838TIP3   OH232928   4.900   3.247   4.546  0.0482  0.2835  0.5808
 3838TIP3    H132929   4.867   3.337   4.540 -0.5771 -0.0221 -0.9183
 3838TIP3    H232930   4.822   3.192   4.536  0.5198 -0.4469  0.7889
 3839TIP3   OH232931   4.276   1.641  14.149  0.3491 -0.0114 -0.3371
 3839TIP3    H132932   4.227   1.584  14.209  1.8114 -3.5526 -2.1969
 3839TIP3    H232933   4.366   1.637  14.181  1.3997 -2.9349 -3.1218
 3840TIP3   OH232934   2.528   5.966   6.070 -0.1911  0.0300 -0.1663
 3840TIP3    H132935   2.608   5.949   6.020  0.3417  3.7951 -0.8589
 3840TIP3    H232936   2.538   5.912   6.148  1.7634 -1.5657 -1.3933
 3841TIP3   OH232937   1.106   4.952   4.925  0.7487 -0.2478  0.3848
 3841TIP3    H132938   1.165   5.014   4.968 -2.1351  0.1275  4.3765
 3841TIP3    H232939   1.088   4.885   4.991  0.4214 -3.0894 -2.3373
 3842TIP3   OH232940   4.796   2.543  15.556  0.5541 -0.2258 -0.0832
 3842TIP3    H132941   4.754   2.623  15.588  1.0913 -0.8301  2.3469
 3842TIP3    H232942   4.889   2.553  15.579  0.9042 -0.9416 -1.0855
 3843TIP3   OH232943   2.589   0.893  11.935  0.2517  0.4348 -0.1326
 3843TIP3    H132944   2.660   0.866  11.876 -0.7251 -0.1165 -1.0959
 3843TIP3    H232945   2.513   0.842  11.905 -0.9848  2.2689 -0.2606
 3844TIP3   OH232946   0.115   2.517   5.199 -0.3775  0.2894 -0.4830
 3844TIP3    H132947   0.159   2.433   5.219 -0.2789  0.4421 -0.0344
 3844TIP3    H232948   0.022   2.496   5.201 -0.4703  0.6152  1.8389
 3845TIP3   OH232949   0.808   5.744  11.735 -0.0046  0.3633 -0.1469
 3845TIP3    H132950   0.734   5.728  11.792 -0.6910  1.0351 -0.8236
 3845TIP3    H232951   0.823   5.661  11.689 -0.7340  0.4020 -0.4591
 3846TIP3   OH232952   5.259   1.507  11.700  0.1126 -0.1413  0.2619
 3846TIP3    H132953   5.317   1.519  11.775 -0.3107  1.0430  0.4272
 3846TIP3    H232954   5.254   1.412  11.689  0.7349 -0.3171  1.2933
 3847TIP3   OH232955   1.746   1.988  16.273 -0.0243  0.6793 -0.2154
 3847TIP3    H132956   1.686   1.957  16.341 -0.5176  2.0386  0.0007
 3847TIP3    H232957   1.689   2.026  16.206  0.3594 -1.8625 -2.1162
 3848TIP3   OH232958   2.451   3.269   5.971  0.2332 -0.9006  0.0822
 3848TIP3    H132959   2.368   3.222   5.963  0.8303 -1.7868 -1.2416
 3848TIP3    H232960   2.515   3.201   5.994  1.1207 -0.7996 -1.8902
 3849TIP3   OH232961   3.253   1.275   0.361 -0.0870 -0.0009 -0.6904
 3849TIP3    H132962   3.270   1.346   0.423  0.1050 -0.2913 -0.4038
 3849TIP3    H232963   3.299   1.200   0.398  1.4754  0.2313 -2.0590
 3850TIP3   OH232964   4.523   2.810   4.886 -0.2441 -0.0481  0.4761
 3850TIP3    H132965   4.567   2.736   4.929  0.4995 -0.6094 -1.1818
 3850TIP3    H232966   4.593   2.869   4.861 -0.6080  0.0545 -0.3410
 3851TIP3   OH232967   5.953   0.689  15.843  0.3953  0.4194 -0.8509
 3851TIP3    H132968   6.019   0.638  15.798 -0.3873  0.9372 -2.6881
 3851TIP3    H232969   5.993   0.775  15.855  1.1927 -0.1605  0.9707
 3852TIP3   OH232970   2.481   0.807   0.532  0.1506 -0.8835 -0.2062
 3852TIP3    H132971   2.416   0.872   0.507 -1.0895 -1.5560  1.0929
 3852TIP3    H232972   2.446   0.768   0.612  3.0017 -0.0520  1.6063
 3853TIP3   OH232973   4.195   2.076   6.097 -0.2710  0.0703 -0.2684
 3853TIP3    H132974   4.289   2.093   6.090 -0.6136  3.1325  0.8447
 3853TIP3    H232975   4.159   2.104   6.012 -0.2162 -1.0822 -0.6873
 3854TIP3   OH232976   2.735   0.044  13.303  0.2105 -0.0582  0.3801
 3854TIP3    H132977   2.823   0.011  13.319  0.0816 -0.2112  0.7695
 3854TIP3    H232978   2.749   0.133  13.269  0.5789 -0.7196 -1.2816
 3855TIP3   OH232979   1.300   4.151   3.032  0.2955 -0.1046 -0.0341
 3855TIP3    H132980   1.258   4.159   3.117  0.8826  1.7538  0.1296
 3855TIP3    H232981   1.383   4.108   3.050  0.5196  0.4906  0.3756
 3856TIP3   OH232982   2.460   4.418   5.742  0.0533  0.0877 -0.2521
 3856TIP3    H132983   2.505   4.337   5.719  1.7516  1.3026 -1.4280
 3856TIP3    H232984   2.373   4.409   5.702 -0.9519 -2.3458  2.1727
 3857TIP3   OH232985   1.441   3.998   0.701 -0.5067  0.1695 -0.4409
 3857TIP3    H132986   1.473   3.999   0.611 -0.2098 -0.4342 -0.3440
 3857TIP3    H232987   1.347   3.983   0.693 -0.1120 -3.0043 -0.5923
 3858TIP3   OH232988   6.197   1.215  14.839  0.5623  0.0506 -0.0309
 3858TIP3    H132989   6.141   1.293  14.834  0.1824 -0.2039  0.2690
 3858TIP3    H232990   6.237   1.210  14.753 -1.3855 -0.8984 -0.9385
 3859TIP3   OH232991   4.006   1.147  16.480  0.3440  0.2023  0.8027
 3859TIP3    H132992   3.980   1.211  16.547 -2.8080  0.9583 -0.8985
 3859TIP3    H232993   3.949   1.072  16.495 -1.3280  0.8461 -1.5540
 3860TIP3   OH232994   6.526   3.426  14.849 -0.3381  0.2297 -0.4474
 3860TIP3    H132995   6.546   3.456  14.937 -1.7634  1.6850 -0.5884
 3860TIP3    H232996   6.612   3.419  14.807  0.3418 -0.2610  0.9554
 3861TIP3   OH232997   5.400   0.458  13.854 -0.9477  0.2577 -0.3356
 3861TIP3    H132998   5.367   0.539  13.892 -1.1866 -0.2338  0.5305
 3861TIP3    H232999   5.376   0.463  13.761 -1.0909  1.1040 -0.2595
 3862TIP3   OH233000   0.537   0.504   5.226  0.5272  0.1733  0.1181
 3862TIP3    H133001   0.454   0.465   5.255  0.4961 -0.4047 -0.7298
 3862TIP3    H233002   0.580   0.530   5.308  1.1766 -2.8671  0.8851
 3863TIP3   OH233003   1.067   2.819   5.883 -0.0448  0.1402  0.5958
 3863TIP3    H133004   1.162   2.808   5.889 -0.0169  0.0274 -0.0338
 3863TIP3    H233005   1.032   2.731   5.874 -0.0233  0.3084 -1.5795
 3864TIP3   OH233006   5.171   6.073   3.739 -0.5238  0.3698 -0.1382
 3864TIP3    H133007   5.113   6.102   3.809 -1.1316 -0.0101 -0.4797
 3864TIP3    H233008   5.209   6.154   3.704 -0.6556  0.5991  0.2474
 3865TIP3   OH233009   4.809   6.213  13.976 -0.1871  0.3197 -0.2234
 3865TIP3    H133010   4.866   6.289  13.983  0.9856 -0.5432  0.0117
 3865TIP3    H233011   4.846   6.161  13.905 -2.0257  0.7917 -1.6137
 3866TIP3   OH233012   0.935   1.840   1.548 -0.6358  0.1566 -0.0548
 3866TIP3    H133013   0.912   1.791   1.627 -1.6321  0.7153  0.0082
 3866TIP3    H233014   1.026   1.866   1.562 -0.2635 -1.2010  0.1500
 3867TIP3   OH233015   2.753   3.735   5.028  0.1840 -0.5000  0.2127
 3867TIP3    H133016   2.735   3.793   5.103 -1.5540  0.1993 -0.6798
 3867TIP3    H233017   2.696   3.660   5.041  0.5154 -0.7875  0.0294
 3868TIP3   OH233018   1.621   2.946  13.846  0.1082  0.2755  0.4243
 3868TIP3    H133019   1.611   3.040  13.860 -1.0355  0.0447  1.3323
 3868TIP3    H233020   1.715   2.932  13.839  0.3543  1.3433  1.3766
 3869TIP3   OH233021   1.734   1.774  14.086  0.0551  0.0533  0.2324
 3869TIP3    H133022   1.770   1.803  14.002  0.1398  1.0515  0.5966
 3869TIP3    H233023   1.738   1.678  14.083 -0.5779  0.0503 -1.1709
 3870TIP3   OH233024   3.298   3.297  12.040 -0.3319 -0.0384  0.2740
 3870TIP3    H133025   3.349   3.279  11.961  0.4293 -1.0677  0.9674
 3870TIP3    H233026   3.364   3.312  12.108 -0.8912 -1.6617  1.2492
 3871TIP3   OH233027   5.192   1.726   2.233 -0.1600  0.0274 -0.1563
 3871TIP3    H133028   5.200   1.748   2.140 -1.0620 -1.7720 -0.7095
 3871TIP3    H233029   5.098   1.715   2.247  0.0543 -0.8986  0.6646
 3872TIP3   OH233030   1.136   4.742   0.115 -0.4333  0.4928 -0.1250
 3872TIP3    H133031   1.105   4.656   0.088 -0.0209 -0.7067  2.7813
 3872TIP3    H233032   1.056   4.791   0.135 -0.6459 -0.0842  0.4875
 3873TIP3   OH233033   4.971   4.644   1.551 -0.1414 -0.6477  0.4050
 3873TIP3    H133034   5.000   4.563   1.508 -1.9900 -1.8226  1.2407
 3873TIP3    H233035   4.964   4.620   1.644  1.1511  1.0595  0.9931
 3874TIP3   OH233036   1.465   4.287   3.446 -0.6546 -0.0215 -0.3297
 3874TIP3    H133037   1.483   4.375   3.479 -2.7088  0.1771  0.4176
 3874TIP3    H233038   1.464   4.232   3.525 -0.9285 -0.4155 -0.6036
 3875TIP3   OH233039   1.818   6.435   2.827  0.0390 -0.3415  0.4582
 3875TIP3    H133040   1.796   6.527   2.841 -1.4773 -0.6663  0.4325
 3875TIP3    H233041   1.734   6.389   2.837  0.7917 -1.7306  0.5864
 3876TIP3   OH233042   3.164   3.446  14.942 -0.4819  0.3192 -0.0630
 3876TIP3    H133043   3.225   3.418  15.010 -1.8684  0.7113  1.4103
 3876TIP3    H233044   3.134   3.365  14.900  1.3705  0.1528 -1.1500
 3877TIP3   OH233045   4.755   0.223  11.973  0.5491  0.0980 -0.7273
 3877TIP3    H133046   4.816   0.178  12.031 -0.4354 -1.0355 -0.5368
 3877TIP3    H233047   4.749   0.312  12.009  0.8547 -0.2488  0.1964
 3878TIP3   OH233048   2.421   2.059  16.145 -0.4168  0.4199  0.1212
 3878TIP3    H133049   2.424   1.967  16.120 -0.1109  0.8734 -1.6057
 3878TIP3    H233050   2.344   2.066  16.202 -0.2241 -0.9611  0.5814
 3879TIP3   OH233051   4.092   1.361  11.951  0.3012  0.0514 -0.3534
 3879TIP3    H133052   4.042   1.353  11.869  2.4381  1.5882 -1.9127
 3879TIP3    H233053   4.176   1.397  11.924  1.1087  0.5748  2.5614
 3880TIP3   OH233054   6.224   3.146  11.511 -1.0186  0.1168  0.0539
 3880TIP3    H133055   6.129   3.156  11.508 -1.1145  0.1390  1.9951
 3880TIP3    H233056   6.238   3.052  11.500 -1.3257  0.0136  0.4936
 3881TIP3   OH233057   5.951   1.501   0.821 -0.9176  0.0780 -0.0440
 3881TIP3    H133058   5.978   1.536   0.906  0.1523 -1.8599  0.4558
 3881TIP3    H233059   5.924   1.579   0.771  0.0105  1.4447  1.4763
 3882TIP3   OH233060   4.404   2.626   3.466  0.0649  0.3234 -0.1246
 3882TIP3    H133061   4.441   2.609   3.553  0.1953 -1.2006 -0.4586
 3882TIP3    H233062   4.460   2.695   3.430  1.0842 -0.2417  0.3385
 3883TIP3   OH233063   2.949   6.714  15.892  0.2071  0.7246  0.6504
 3883TIP3    H133064   3.008   6.729  15.966 -0.9069  0.6873  1.5767
 3883TIP3    H233065   2.898   6.637  15.917 -1.0650  1.4623  0.4331
 3884TIP3   OH233066   2.234   5.174  15.327  0.0718 -0.0641  0.3397
 3884TIP3    H133067   2.286   5.093  15.322  0.2453  0.1098 -1.0028
 3884TIP3    H233068   2.232   5.195  15.420  2.0053 -0.3472  0.4827
 3885TIP3   OH233069   5.641   6.140  15.738  0.6056  0.2067  0.5447
 3885TIP3    H133070   5.699   6.064  15.730  0.7989  0.4411 -0.3391
 3885TIP3    H233071   5.641   6.180  15.651  1.7595  2.1519  1.3747
 3886TIP3   OH233072   0.683   5.384  12.886 -0.4154 -0.0614  0.1077
 3886TIP3    H133073   0.603   5.353  12.929 -1.4333  0.5227 -1.3017
 3886TIP3    H233074   0.692   5.327  12.810 -1.0387  1.5944 -1.2504
 3887TIP3   OH233075   6.694   6.025  13.968  0.0576 -0.0589 -0.3024
 3887TIP3    H133076   6.754   6.084  14.014  0.6201  0.1244 -1.2330
 3887TIP3    H233077   6.608   6.066  13.979  0.2360  0.1863  0.2451
 3888TIP3   OH233078   2.996   4.936   2.920 -0.0859 -0.4211 -0.2848
 3888TIP3    H133079   2.975   4.898   2.835  0.5245 -1.1297 -0.1294
 3888TIP3    H233080   3.030   4.863   2.972  0.2621  0.1492  0.3158
 3889TIP3   OH233081   6.756   2.628  13.862  0.8800 -0.2396 -0.3547
 3889TIP3    H133082   6.848   2.606  13.872  0.8828  0.6934  2.5277
 3889TIP3    H233083   6.756   2.717  13.826  1.2557  0.7201  1.8361
 3890TIP3   OH233084   2.838   1.946  11.766  0.2557  0.2520  0.3725
 3890TIP3    H133085   2.906   2.008  11.792 -1.0553  1.2389  1.6590
 3890TIP3    H233086   2.820   1.895  11.846 -0.7239  0.2458  0.1667
 3891TIP3   OH233087   3.093   1.637  12.122 -0.4254 -0.4367  0.4327
 3891TIP3    H133088   3.067   1.696  12.193 -0.8244  1.2674 -1.0677
 3891TIP3    H233089   3.072   1.550  12.155 -3.3984  0.4870  1.2651
 3892TIP3   OH233090   3.476   4.774  17.231  0.1163  0.0423  1.1600
 3892TIP3    H133091   3.495   4.767  17.138 -0.5765  1.7450  0.8619
 3892TIP3    H233092   3.423   4.697  17.250  0.8959 -0.7260  0.3401
 3893TIP3   OH233093   1.006   4.876  11.364  0.1891  0.3437 -0.2788
 3893TIP3    H133094   0.940   4.876  11.295 -1.2078 -1.0510  0.9875
 3893TIP3    H233095   1.086   4.906  11.321 -0.2616 -1.8279 -2.8847
 3894TIP3   OH233096   3.302   2.899  17.039  0.3664 -0.4158 -0.2991
 3894TIP3    H133097   3.278   2.908  16.947 -2.6903 -1.7534  0.2143
 3894TIP3    H233098   3.303   2.989  17.072 -0.2405 -0.0142 -1.3004
 3895TIP3   OH233099   2.711   1.319  17.276 -0.5441 -0.4710 -0.6096
 3895TIP3    H133100   2.664   1.267  17.211 -1.2900 -1.3206  0.5690
 3895TIP3    H233101   2.675   1.291  17.360  0.9141  0.0691  0.2370
 3896TIP3   OH233102   2.112   1.066  13.576  0.5292  0.2563  0.0228
 3896TIP3    H133103   2.154   1.024  13.501  0.8297  2.4460 -1.1232
 3896TIP3    H233104   2.023   1.084  13.547  0.0920 -0.4573  0.8715
 3897TIP3   OH233105   4.483   3.382   5.070  0.4679  0.3232  0.0857
 3897TIP3    H133106   4.535   3.419   4.998  0.3024  1.6430  0.6219
 3897TIP3    H233107   4.501   3.439   5.145  0.1960 -0.6927  0.9556
 3898TIP3   OH233108   4.641   5.145  11.271  0.1436  0.4414 -0.1818
 3898TIP3    H133109   4.587   5.109  11.201 -1.3056 -0.6203  1.4036
 3898TIP3    H233110   4.598   5.227  11.295 -0.4810 -0.1269  0.7024
 3899TIP3   OH233111   4.036   0.481  12.071 -0.4114 -0.4279  0.3813
 3899TIP3    H133112   3.950   0.517  12.049 -0.4665  0.0782  1.3410
 3899TIP3    H233113   4.097   0.528  12.015 -0.6897 -0.2371  0.2382
 3900TIP3   OH233114   2.577   3.461   2.603  0.4174 -0.6229 -0.2070
 3900TIP3    H133115   2.539   3.409   2.532  2.0330 -1.4479 -0.5109
 3900TIP3    H233116   2.514   3.531   2.617 -0.8142 -1.4673 -1.2230
 3901TIP3   OH233117   1.248   5.720   0.862  0.2613  0.1947 -0.0633
 3901TIP3    H133118   1.248   5.800   0.916 -0.6022 -0.4221  0.8797
 3901TIP3    H233119   1.169   5.673   0.889  1.3701 -1.5555  0.2503
 3902TIP3   OH233120   6.265   5.540   0.625 -0.0138  0.0089  0.1247
 3902TIP3    H133121   6.248   5.469   0.563 -2.1290  0.3141  0.2819
 3902TIP3    H233122   6.179   5.575   0.645  0.8847  1.8108  1.0364
 3903TIP3   OH233123   4.875   0.020  11.327 -0.5001  0.1810  0.1245
 3903TIP3    H133124   4.910   0.061  11.249  0.6021  0.3476  0.6898
 3903TIP3    H233125   4.950  -0.022  11.368 -0.4990  2.1484  2.3812
 3904TIP3   OH233126   5.885   4.307  16.041 -0.3657  0.2301  0.3081
 3904TIP3    H133127   5.955   4.248  16.012 -1.1811 -0.6412  0.0469
 3904TIP3    H233128   5.855   4.270  16.124  1.2577  2.1330  1.8489
 3905TIP3   OH233129   0.132   5.494   2.121 -0.1125  0.1779  0.0126
 3905TIP3    H133130   0.166   5.502   2.211 -0.7574 -1.7769  0.4686
 3905TIP3    H233131   0.051   5.444   2.130 -0.0189 -0.3449 -1.7149
 3906TIP3   OH233132   2.723   3.728  12.028  0.4244 -0.6401  0.1084
 3906TIP3    H133133   2.718   3.657  12.091  4.0451 -0.4211  0.8475
 3906TIP3    H233134   2.813   3.725  11.995  0.2192  2.5241 -1.1187
 3907TIP3   OH233135   5.475   1.418   3.539  0.8900  0.2974 -0.2869
 3907TIP3    H133136   5.537   1.413   3.612  0.4773  0.3400  0.0690
 3907TIP3    H233137   5.394   1.451   3.578  1.3836  2.8683 -1.2286
 3908TIP3   OH233138   6.560   1.972   3.410  0.2414 -0.3650  0.2092
 3908TIP3    H133139   6.530   2.034   3.477  0.7534 -0.5016  0.5697
 3908TIP3    H233140   6.598   2.028   3.342  0.4443 -0.2620  0.4039
 3909TIP3   OH233141   2.642   2.885  11.319 -0.0700 -0.3726  0.5141
 3909TIP3    H133142   2.677   2.921  11.237 -2.4545  0.3146 -0.3032
 3909TIP3    H233143   2.641   2.960  11.379 -0.5601 -0.2485  0.3611
 3910TIP3   OH233144   6.749   5.813  13.458  0.0257 -0.4653 -0.5584
 3910TIP3    H133145   6.804   5.888  13.438  0.5091 -0.7310 -0.2502
 3910TIP3    H233146   6.702   5.837  13.538  0.1626 -0.4856 -0.4735
 3911TIP3   OH233147   5.945   1.984  12.252 -0.0998 -0.4716  0.8194
 3911TIP3    H133148   5.852   1.978  12.229 -0.0762  0.3483  0.4703
 3911TIP3    H233149   5.960   1.909  12.309 -1.2957  0.1283  1.9890
 3912TIP3   OH233150   4.601   4.208  16.731 -0.0015 -0.0651 -0.0124
 3912TIP3    H133151   4.662   4.278  16.706 -2.4676  1.2948 -2.8897
 3912TIP3    H233152   4.624   4.135  16.673  0.3629 -0.4248  0.5735
 3913TIP3   OH233153   0.028   1.724  16.793 -0.0613 -0.2777  0.2397
 3913TIP3    H133154   0.073   1.757  16.871  0.3502  1.0455 -0.5323
 3913TIP3    H233155   0.097   1.716  16.727 -0.9421  2.3069 -1.1313
 3914TIP3   OH233156   6.488   2.831  14.466 -0.4343 -0.4557 -0.5755
 3914TIP3    H133157   6.405   2.875  14.481  0.6620  1.2186  0.8680
 3914TIP3    H233158   6.553   2.886  14.509  1.7778 -0.4282 -3.6639
 3915TIP3   OH233159   5.999   6.278  13.490  0.4002 -0.3884  0.3691
 3915TIP3    H133160   5.995   6.225  13.569 -1.3934  1.4557  1.6480
 3915TIP3    H233161   6.072   6.338  13.505 -0.3719  0.4304  1.0250
 3916TIP3   OH233162   6.688   3.885  13.068  0.7154 -0.4030 -0.0755
 3916TIP3    H133163   6.710   3.795  13.093 -1.1711 -2.0356 -3.6695
 3916TIP3    H233164   6.610   3.906  13.120  1.0638 -0.8728  0.6588
 3917TIP3   OH233165   0.829   5.576   3.871  0.0869 -0.0043  0.2414
 3917TIP3    H133166   0.920   5.585   3.899  0.5011 -1.4363 -0.5536
 3917TIP3    H233167   0.831   5.592   3.776  0.0577 -3.0080 -0.3426
 3918TIP3   OH233168   1.853   2.701  16.053  0.0226  0.7628  0.0946
 3918TIP3    H133169   1.894   2.639  15.993 -0.1565 -1.7535  2.3436
 3918TIP3    H233170   1.927   2.743  16.098  0.1779  0.0161  0.5598
 3919TIP3   OH233171   2.860   6.027   5.333 -0.3009  0.2246  0.2197
 3919TIP3    H133172   2.948   6.062   5.346 -0.9061  1.4683  1.1688
 3919TIP3    H233173   2.815   6.093   5.280 -0.7136 -0.3483 -0.1594
 3920TIP3   OH233174   5.495   3.735  15.165  0.1691 -0.1812  0.3875
 3920TIP3    H133175   5.588   3.713  15.157 -0.1835 -1.7776  0.4820
 3920TIP3    H233176   5.464   3.744  15.075  0.2160 -0.5038  0.3404
 3921TIP3   OH233177   0.883   3.048   3.094  0.6431  0.6274 -0.9014
 3921TIP3    H133178   0.968   3.049   3.137 -0.6868 -1.3608  2.1208
 3921TIP3    H233179   0.870   2.956   3.070 -1.1303  0.6465 -0.1583
 3922TIP3   OH233180   5.997   3.317   1.867  0.2317  0.4766  0.3191
 3922TIP3    H133181   6.031   3.234   1.900 -0.4482  0.0229 -0.1233
 3922TIP3    H233182   5.906   3.319   1.896  0.3822  1.2987  0.7600
 3923TIP3   OH233183   2.172   0.966   2.257 -0.5430  0.3380  0.6641
 3923TIP3    H133184   2.129   0.990   2.175  1.1883  2.4523  0.2775
 3923TIP3    H233185   2.213   0.881   2.239 -0.4310  0.6332 -0.5914
 3924TIP3   OH233186   5.870   5.346   3.582 -0.8270 -0.4721  0.3341
 3924TIP3    H133187   5.864   5.315   3.491  0.6126  0.5472 -0.1609
 3924TIP3    H233188   5.964   5.361   3.595 -1.1764  0.8623  1.4738
 3925TIP3   OH233189   5.901   3.610  13.751  0.3169 -0.0701  0.6229
 3925TIP3    H133190   5.819   3.655  13.732  0.0837 -1.1480 -1.1347
 3925TIP3    H233191   5.886   3.568  13.836 -0.7028  0.2943  0.6352
 3926TIP3   OH233192   6.624   6.404   5.242  0.2082 -0.2269  0.2257
 3926TIP3    H133193   6.601   6.390   5.150 -0.5022 -0.6459  0.4611
 3926TIP3    H233194   6.672   6.324   5.266  0.0263 -0.3009  0.3388
 3927TIP3   OH233195   1.201   0.709  16.742 -0.0030  0.2764 -0.0125
 3927TIP3    H133196   1.167   0.783  16.693 -0.9966 -1.0208 -1.3656
 3927TIP3    H233197   1.296   0.725  16.748  0.1238  0.6065 -2.1742
 3928TIP3   OH233198   5.764   4.795  13.037  0.5789  0.3026 -0.2186
 3928TIP3    H133199   5.815   4.876  13.047  2.2248 -0.8857  1.4992
 3928TIP3    H233200   5.826   4.732  13.000  0.7240 -1.4317  2.7451
 3929TIP3   OH233201   2.708   4.013  11.953  0.3385  0.0681  0.8569
 3929TIP3    H133202   2.723   3.937  12.008  0.6092  0.2701  1.0663
 3929TIP3    H233203   2.620   4.001  11.917 -0.0261  0.1770  1.7101
 3930TIP3   OH233204   5.030   2.666   6.866 -0.7547  0.1828  0.1406
 3930TIP3    H133205   5.120   2.651   6.836 -0.7963 -0.0996  0.1529
 3930TIP3    H233206   4.975   2.642   6.791 -0.8125  0.6014  0.0434
 3931TIP3   OH233207   0.643   3.838  11.885 -0.5663 -0.8221 -0.0892
 3931TIP3    H133208   0.721   3.785  11.904 -0.2184 -1.0971 -2.0415
 3931TIP3    H233209   0.659   3.873  11.798 -2.3659 -0.3639 -0.2660
 3932TIP3   OH233210   1.583   2.419  11.911 -0.2499  0.2119  0.2103
 3932TIP3    H133211   1.547   2.435  11.998 -0.1197 -0.4698  0.4005
 3932TIP3    H233212   1.516   2.368  11.866 -0.2702  0.4677 -0.0518
 3933TIP3   OH233213   6.309   5.012   3.830 -0.3417  0.7353 -0.8121
 3933TIP3    H133214   6.397   4.988   3.858 -0.8323 -0.4723 -0.2295
 3933TIP3    H233215   6.285   4.945   3.765 -0.7870  1.1251 -1.0600
 3934TIP3   OH233216   5.273   2.543  14.084 -0.2869  0.2848  0.1264
 3934TIP3    H133217   5.265   2.459  14.128  1.6989  0.0693  0.1825
 3934TIP3    H233218   5.309   2.522  13.998  0.2248  1.0567  0.1387
 3935TIP3   OH233219   5.651   3.372   2.566  0.9855 -0.0673  0.4584
 3935TIP3    H133220   5.599   3.380   2.646  0.1445  0.1569 -0.0996
 3935TIP3    H233221   5.740   3.357   2.597  0.7282  0.3491  1.4408
 3936TIP3   OH233222   5.248   5.159   3.529 -0.3372 -0.0650  0.0835
 3936TIP3    H133223   5.279   5.080   3.573  2.0250  0.0331 -1.2737
 3936TIP3    H233224   5.310   5.227   3.554 -0.0044  0.4141 -1.8767
 3937TIP3   OH233225   4.216   4.645   5.205 -0.1921  0.5942 -0.2224
 3937TIP3    H133226   4.150   4.706   5.172  1.7637  1.5569 -2.7046
 3937TIP3    H233227   4.243   4.595   5.128  0.1138 -1.6400  1.2599
 3938TIP3   OH233228   2.071   1.386  11.399 -0.1435  0.3015  0.2485
 3938TIP3    H133229   2.076   1.330  11.476 -2.4102 -0.2700  0.0550
 3938TIP3    H233230   2.163   1.404  11.376  0.7357 -3.2359  0.3784
 3939TIP3   OH233231   2.738   1.587   4.259  0.2156 -0.5070 -0.0126
 3939TIP3    H133232   2.713   1.501   4.295  0.6829 -0.7096 -0.1703
 3939TIP3    H233233   2.789   1.628   4.329  0.4233 -0.5640 -0.1308
 3940TIP3   OH233234   6.034   1.484  12.089  0.0097 -0.4409 -0.8069
 3940TIP3    H133235   6.086   1.412  12.126 -0.8821 -0.4781  0.4679
 3940TIP3    H233236   6.088   1.562  12.103  0.3661 -0.6724 -0.8711
 3941TIP3   OH233237   1.879   5.151  16.828  0.5996  0.2686  0.0126
 3941TIP3    H133238   1.807   5.127  16.885  1.0173 -1.8092 -0.2581
 3941TIP3    H233239   1.958   5.138  16.881  0.8448  1.9040  0.1042
 3942TIP3   OH233240   0.477   1.151  11.367 -0.0092  0.0829  0.6313
 3942TIP3    H133241   0.544   1.205  11.326  1.2916 -0.4361  1.9896
 3942TIP3    H233242   0.395   1.198  11.350  0.6760  0.7627 -1.0040
 3943TIP3   OH233243   4.550   3.196  11.282 -0.2067 -0.3254 -0.4877
 3943TIP3    H133244   4.533   3.103  11.295 -1.5968 -0.0122  0.0736
 3943TIP3    H233245   4.632   3.211  11.329 -2.1269 -0.4470  3.2786
 3944TIP3   OH233246   2.243   0.471   1.957  0.0508 -0.3067 -0.2627
 3944TIP3    H133247   2.198   0.490   1.875  0.1666 -0.8413 -0.4502
 3944TIP3    H233248   2.336   0.471   1.934  0.1538  0.6725  0.0985
 3945TIP3   OH233249   6.294   1.783  16.503  0.0562  0.9067 -0.3517
 3945TIP3    H133250   6.203   1.770  16.533 -0.6048  2.6543 -1.4652
 3945TIP3    H233251   6.344   1.794  16.583 -0.9020  0.9534  0.2636
 3946TIP3   OH233252   5.571   4.729  14.092 -0.4038 -0.2971 -0.5649
 3946TIP3    H133253   5.588   4.761  14.180 -0.4779  1.1254 -1.0297
 3946TIP3    H233254   5.574   4.808  14.037 -2.9680 -0.7033 -1.4589
 3947TIP3   OH233255   5.530   5.292  13.851  0.3946 -0.5633 -0.4990
 3947TIP3    H133256   5.576   5.232  13.792 -0.7281  0.5386 -2.6000
 3947TIP3    H233257   5.439   5.262  13.851  0.4306 -0.7859  1.0596
 3948TIP3   OH233258   6.275   5.737  13.509 -0.1799 -0.2487  0.9276
 3948TIP3    H133259   6.354   5.735  13.455 -0.7618  1.4721 -0.0744
 3948TIP3    H233260   6.209   5.692  13.456  0.1500 -1.9957  1.9076
 3949TIP3   OH233261   5.538   3.144  14.748 -0.2391  0.5261  0.0205
 3949TIP3    H133262   5.612   3.201  14.769  0.6938 -1.1257  1.3691
 3949TIP3    H233263   5.559   3.060  14.788 -2.9447  0.0499  0.6276
 3950TIP3   OH233264   2.092   5.557  14.433  0.0661  0.3848  0.0284
 3950TIP3    H133265   2.053   5.559  14.521  0.1447 -0.2907  0.0817
 3950TIP3    H233266   2.098   5.464  14.412 -2.6068  0.5392 -1.8940
 3951TIP3   OH233267   2.549   5.671  14.124  0.0206 -0.4702 -0.4853
 3951TIP3    H133268   2.627   5.721  14.100  1.5787 -2.5846 -0.1269
 3951TIP3    H233269   2.547   5.675  14.219 -1.4888  1.1814 -0.5412
 3952TIP3   OH233270   0.713   2.278   2.334 -0.7565 -0.4406  0.3524
 3952TIP3    H133271   0.762   2.201   2.365 -0.7320 -0.6833 -0.2714
 3952TIP3    H233272   0.622   2.250   2.336 -0.6217 -1.1910 -1.7302
 3953TIP3   OH233273   0.286   5.156   1.204  0.4339  0.4159 -0.0947
 3953TIP3    H133274   0.244   5.085   1.155 -0.9154  1.4797 -0.5490
 3953TIP3    H233275   0.321   5.215   1.137  0.3477  0.8718  0.2539
 3954TIP3   OH233276   2.791   2.785   2.767  0.1480  0.0483 -0.3488
 3954TIP3    H133277   2.817   2.772   2.676 -0.6932  2.8833 -1.1156
 3954TIP3    H233278   2.860   2.840   2.804 -1.5882  2.6059 -0.6612
 3955TIP3   OH233279   0.583   2.192  15.867 -0.1381 -0.5158  0.0531
 3955TIP3    H133280   0.670   2.165  15.897 -0.2449 -0.1411  0.7251
 3955TIP3    H233281   0.563   2.133  15.795 -0.3595 -2.2567  1.4676
 3956TIP3   OH233282   3.648   1.866  16.735  0.1862 -0.3183  0.0894
 3956TIP3    H133283   3.733   1.899  16.763  0.7927 -3.1682  2.0214
 3956TIP3    H233284   3.668   1.790  16.680 -1.0736 -1.0059  0.5416
 3957TIP3   OH233285   4.637   6.452   0.538 -0.2516  0.0304 -0.1926
 3957TIP3    H133286   4.581   6.518   0.579 -1.7246 -2.2899  1.8571
 3957TIP3    H233287   4.659   6.488   0.453 -1.1552  3.0148  0.7212
 3958TIP3   OH233288   4.036   5.683   4.702 -0.2893 -0.2728 -0.1685
 3958TIP3    H133289   4.016   5.607   4.757 -0.2624  0.6494  1.1385
 3958TIP3    H233290   4.085   5.742   4.759  0.7392  0.2188 -1.5223
 3959TIP3   OH233291   1.288   3.375   3.833  1.0357 -0.0316  0.0068
 3959TIP3    H133292   1.246   3.289   3.843  0.4713 -0.0290 -1.9554
 3959TIP3    H233293   1.328   3.372   3.746  1.7755  1.3946  0.2699
 3960TIP3   OH233294   4.636   5.188  12.387  0.0207 -0.4449 -0.5176
 3960TIP3    H133295   4.684   5.105  12.389 -1.6128 -1.4449 -0.2608
 3960TIP3    H233296   4.638   5.215  12.296  2.1132  0.2237 -0.3207
 3961TIP3   OH233297   2.488   6.684   4.834  0.3389  0.9444  0.0197
 3961TIP3    H133298   2.493   6.589   4.824 -0.5791  0.7880  0.9258
 3961TIP3    H233299   2.577   6.710   4.860  0.4432  0.2518  0.3720
 3962TIP3   OH233300   1.687   4.600  12.950  0.1338  0.6058 -0.3044
 3962TIP3    H133301   1.640   4.625  12.870 -1.6931 -0.6612  0.3027
 3962TIP3    H233302   1.720   4.512  12.932  0.4964  0.6725  0.0282
 3963TIP3   OH233303   4.070   0.633  12.919 -0.2692  0.1476 -1.0074
 3963TIP3    H133304   4.051   0.547  12.881 -1.6918 -0.7919  1.6049
 3963TIP3    H233305   3.985   0.667  12.945  0.4110  1.7814 -0.7888
 3964TIP3   OH233306   1.287   5.754   4.435  0.3695  0.6006 -0.2418
 3964TIP3    H133307   1.277   5.790   4.523 -2.3045  0.4607 -0.4136
 3964TIP3    H233308   1.379   5.727   4.431  0.0379 -2.0440  3.5860
 3965TIP3   OH233309   5.080   4.200   2.896 -0.0484 -0.4642  0.7895
 3965TIP3    H133310   5.091   4.198   2.991  1.6193 -0.9044  0.6135
 3965TIP3    H233311   5.062   4.109   2.872 -0.8770 -0.2872  0.7108
 3966TIP3   OH233312   1.534   5.971  16.056 -0.1422 -0.1240  0.2160
 3966TIP3    H133313   1.552   6.057  16.094  0.4008 -0.3153  0.3984
 3966TIP3    H233314   1.440   5.972  16.039 -0.2191  0.3419  0.6342
 3967TIP3   OH233315   3.802   5.681  13.965  0.4268  0.0976  0.1270
 3967TIP3    H133316   3.866   5.748  13.939 -0.0903 -0.1801 -2.0047
 3967TIP3    H233317   3.852   5.620  14.020  1.8757  0.2089 -1.0148
 3968TIP3   OH233318   3.308   5.457   1.182  0.1541 -0.4969  0.0370
 3968TIP3    H133319   3.255   5.386   1.145  1.2686 -1.5479  0.4094
 3968TIP3    H233320   3.398   5.426   1.175  0.5122 -0.1017  2.2886
 3969TIP3   OH233321   2.770   0.790  15.998  0.2997 -0.0561  0.1419
 3969TIP3    H133322   2.852   0.832  16.027  1.9163 -2.0467 -1.2325
 3969TIP3    H233323   2.739   0.743  16.075  0.4151  0.7530  0.6964
 3970TIP3   OH233324   4.295   6.698   4.843  0.2448  0.6275  0.0623
 3970TIP3    H133325   4.256   6.693   4.756 -1.1268  2.6604  0.4811
 3970TIP3    H233326   4.304   6.791   4.860  0.7189  0.2755  1.9980
 3971TIP3   OH233327   3.626   4.329   6.465  0.4600  0.1797 -0.3360
 3971TIP3    H133328   3.582   4.317   6.549  0.0266  1.7535 -0.3121
 3971TIP3    H233329   3.557   4.357   6.406  1.4649  3.5844 -0.0845
 3972TIP3   OH233330   2.019   3.230  15.313 -0.6697 -0.3625  0.1678
 3972TIP3    H133331   2.032   3.137  15.335 -1.0496 -0.2324  0.9742
 3972TIP3    H233332   2.001   3.272  15.397 -2.2545  0.1502 -0.3967
 3973TIP3   OH233333   6.251   6.181  14.332 -0.0608 -0.4584 -0.5762
 3973TIP3    H133334   6.330   6.212  14.377 -1.2148  0.5687  0.8432
 3973TIP3    H233335   6.239   6.243  14.260 -0.3366  0.2512  0.0641
 3974TIP3   OH233336   2.610   6.562   1.111  0.0383 -0.5788  0.4530
 3974TIP3    H133337   2.648   6.490   1.163  0.5854 -0.8790 -0.3397
 3974TIP3    H233338   2.519   6.537   1.099  0.0064 -0.7041  0.9350
 3975TIP3   OH233339   4.067   1.729   6.697 -0.0482 -0.0971  0.0079
 3975TIP3    H133340   4.127   1.655   6.692  0.7406  0.6075 -1.5796
 3975TIP3    H233341   4.123   1.804   6.716 -0.8186  0.1657  1.4525
 3976TIP3   OH233342   5.052   2.294  16.695  0.4571  0.8101 -0.1708
 3976TIP3    H133343   4.973   2.270  16.745  0.5105  0.5252 -0.2239
 3976TIP3    H233344   5.124   2.253  16.743  0.5488  0.8569 -0.2682
 3977TIP3   OH233345   6.150   6.358  12.087 -0.3603 -0.1576 -0.4658
 3977TIP3    H133346   6.138   6.378  12.180  0.8880 -1.3492 -0.0111
 3977TIP3    H233347   6.229   6.405  12.062 -0.1809 -0.5599 -0.6772
 3978TIP3   OH233348   2.493   6.460  14.041  0.6459  0.2650 -0.3336
 3978TIP3    H133349   2.477   6.367  14.025  2.1474  0.1392 -1.2746
 3978TIP3    H233350   2.528   6.493  13.959  2.6374  1.0609  0.7667
 3979TIP3   OH233351   5.895   4.786   0.568 -0.0632 -0.0482  0.0440
 3979TIP3    H133352   5.901   4.809   0.476  0.0469  0.4634  0.1751
 3979TIP3    H233353   5.802   4.795   0.590  0.1227  1.4181  0.3705
 3980TIP3   OH233354   2.373   3.647   2.700  0.6646  0.3888  0.1564
 3980TIP3    H133355   2.374   3.659   2.795  2.0261  0.0324  0.2016
 3980TIP3    H233356   2.401   3.732   2.665 -1.3332  1.0352 -0.0299
 3981TIP3   OH233357   3.972   6.674  16.874  0.0985  0.0893  0.5698
 3981TIP3    H133358   4.028   6.702  16.802 -0.3284 -1.5238 -0.4355
 3981TIP3    H233359   3.981   6.743  16.940  3.9496 -0.4629  0.8563
 3982TIP3   OH233360   1.446   4.746  16.232  0.1923 -0.2238 -0.2406
 3982TIP3    H133361   1.456   4.679  16.299 -0.1412 -0.0327 -0.0013
 3982TIP3    H233362   1.353   4.767  16.232 -0.0430 -1.1156 -1.6286
 3983TIP3   OH233363   5.916   6.688  16.605 -1.0972  0.6452  0.0551
 3983TIP3    H133364   5.983   6.635  16.562  0.4428  1.4018  1.4054
 3983TIP3    H233365   5.882   6.632  16.675  1.0914  1.6054  1.9913
 3984TIP3   OH233366   6.164   4.544   1.646  0.6640 -0.2832 -0.0399
 3984TIP3    H133367   6.230   4.613   1.635  0.9895 -0.7539 -1.1686
 3984TIP3    H233368   6.083   4.591   1.668  1.4257  0.2757  1.7839
 3985TIP3   OH233369   2.589   3.075   6.448 -0.3830 -0.0230  0.0463
 3985TIP3    H133370   2.549   3.158   6.476 -3.1917 -1.2668  0.0329
 3985TIP3    H233371   2.564   3.013   6.516  0.1256 -1.2535 -0.8583
 3986TIP3   OH233372   6.487   2.656  12.912  0.3092  0.0791  0.5026
 3986TIP3    H133373   6.532   2.711  12.976 -1.1842  0.8720  0.9024
 3986TIP3    H233374   6.531   2.676  12.829  2.2226 -0.9178  1.2048
 3987TIP3   OH233375   4.155   5.554   2.418  0.0789  0.5174  0.2169
 3987TIP3    H133376   4.222   5.574   2.352 -0.7546  0.8146 -0.5588
 3987TIP3    H233377   4.098   5.490   2.375  0.2253 -0.2288  1.1092
 3988TIP3   OH233378   4.780   4.206   2.847 -0.0055  0.3921  0.6054
 3988TIP3    H133379   4.819   4.130   2.890 -0.9456 -0.6991 -0.4138
 3988TIP3    H233380   4.686   4.189   2.847 -0.1997  1.3687  0.0240
 3989TIP3   OH233381   0.244   0.585  14.841  0.1320 -0.1831 -0.1470
 3989TIP3    H133382   0.324   0.604  14.791  0.9071  0.6834  1.3356
 3989TIP3    H233383   0.174   0.589  14.777  0.8521  2.7707 -0.8923
 3990TIP3   OH233384   6.457   0.672   3.603 -0.0561  0.3953 -0.4693
 3990TIP3    H133385   6.374   0.643   3.565  1.5775 -0.8217 -3.4124
 3990TIP3    H233386   6.477   0.753   3.557 -0.1451  1.3912  1.1517
 3991TIP3   OH233387   3.722   1.757   4.388 -0.5117  0.4158 -0.1527
 3991TIP3    H133388   3.630   1.731   4.394 -0.6006  0.3454 -1.5434
 3991TIP3    H233389   3.769   1.675   4.373  0.0033  0.2217  2.1076
 3992TIP3   OH233390   5.314   4.717  10.733 -0.0851 -0.0835  0.4732
 3992TIP3    H133391   5.378   4.717  10.661 -1.9024  0.1097 -1.2415
 3992TIP3    H233392   5.303   4.624  10.754 -0.3980 -0.2313 -0.3159
 3993TIP3   OH233393   3.770   4.075  11.707 -0.2749  0.8846 -0.1639
 3993TIP3    H133394   3.727   3.993  11.733 -0.6595  0.3474 -2.2912
 3993TIP3    H233395   3.860   4.050  11.689 -0.1002  1.1757  0.2888
 3994TIP3   OH233396   6.475   0.158   3.848 -0.1104  0.5127  0.1196
 3994TIP3    H133397   6.465   0.248   3.819  3.6542  1.4220  1.0372
 3994TIP3    H233398   6.427   0.153   3.930 -2.4805  0.8104 -1.1508
 3995TIP3   OH233399   4.230   6.445  14.920 -0.2460 -0.2477 -0.2118
 3995TIP3    H133400   4.302   6.425  14.860  0.7193  1.6937  0.2335
 3995TIP3    H233401   4.261   6.417  15.005 -0.8944 -1.3359 -0.3140
 3996TIP3   OH233402   5.315   6.097  16.942  0.3179  0.0230 -0.2229
 3996TIP3    H133403   5.346   6.110  17.032 -0.6413 -0.5860  0.2208
 3996TIP3    H233404   5.226   6.134  16.942  1.3091  2.6301 -1.7197
 3997TIP3   OH233405   1.191   6.636   5.872 -0.2730 -0.4761 -0.2361
 3997TIP3    H133406   1.199   6.727   5.902 -0.9979 -0.7219  0.7312
 3997TIP3    H233407   1.177   6.586   5.952 -2.3373 -1.1538 -0.9777
 3998TIP3   OH233408   0.571   2.719  17.166 -0.2210  0.3387 -0.0893
 3998TIP3    H133409   0.519   2.759  17.097  1.1377  1.7713 -0.3245
 3998TIP3    H233410   0.605   2.793  17.217  1.6214 -0.5338  0.0207
 3999TIP3   OH233411   2.620   5.943   1.357 -0.6808  0.3314 -0.5659
 3999TIP3    H133412   2.602   6.014   1.295  1.0388  0.5642 -0.8584
 3999TIP3    H233413   2.585   5.865   1.315  0.4258  0.4918 -1.8634
 4000TIP3   OH233414   5.167   4.275  13.006 -0.2258  0.3263  0.3922
 4000TIP3    H133415   5.102   4.279  13.077 -0.8584  0.8520 -0.1981
 4000TIP3    H233416   5.231   4.342  13.029 -1.3443  1.7222 -0.3796
 4001TIP3   OH233417   4.001   3.257  15.632  0.0734  0.5497 -0.1741
 4001TIP3    H133418   3.994   3.223  15.722  2.5595  2.8754  1.0185
 4001TIP3    H233419   3.910   3.265  15.603 -0.7923 -0.6219  1.9696
 4002TIP3   OH233420   6.604   6.109   2.451 -0.0757 -0.1813  0.3592
 4002TIP3    H133421   6.582   6.101   2.359 -1.8971  1.9020  0.5408
 4002TIP3    H233422   6.679   6.169   2.453 -0.7536  0.7026  0.2412
 4003TIP3   OH233423   5.185   5.305   2.460 -0.0317  0.7934 -0.1335
 4003TIP3    H133424   5.112   5.295   2.521  0.1965  0.6473  0.1192
 4003TIP3    H233425   5.184   5.398   2.436 -0.2544  0.8058 -0.0752
 4004TIP3   OH233426   3.720   2.229  11.090 -0.3626 -0.0228  0.5329
 4004TIP3    H133427   3.654   2.299  11.085 -0.9181 -0.6142 -1.0727
 4004TIP3    H233428   3.720   2.190  11.003  1.2469 -0.8587  0.8708
 4005TIP3   OH233429   4.292   4.804   1.468 -0.0685  0.4796 -0.2020
 4005TIP3    H133430   4.252   4.891   1.467 -1.2736 -0.0356 -1.6173
 4005TIP3    H233431   4.235   4.753   1.525 -1.5515 -0.2491 -2.1980
 4006TIP3   OH233432   4.499   4.696  13.944  0.2442  0.0237  0.1217
 4006TIP3    H133433   4.591   4.671  13.944  0.0488 -0.7404  0.7659
 4006TIP3    H233434   4.460   4.645  13.873 -0.0189 -1.0418  0.9980
 4007TIP3   OH233435   2.021   3.066  11.158 -0.7990 -0.2710  0.3053
 4007TIP3    H133436   1.947   3.074  11.219  0.8168  1.1675  2.1728
 4007TIP3    H233437   2.032   3.153  11.121 -0.5823 -0.6977 -0.6757
 4008TIP3   OH233438   0.018   1.145   1.135 -0.3793 -0.5508  0.3014
 4008TIP3    H133439  -0.036   1.193   1.198  1.2946  0.3490  1.1154
 4008TIP3    H233440  -0.022   1.165   1.050 -0.6953  0.9748  0.7710
 4009TIP3   OH233441   6.476   3.911  13.251  0.8005  0.1769  0.0104
 4009TIP3    H133442   6.530   3.859  13.309 -0.6184 -0.7374  0.5757
 4009TIP3    H233443   6.456   3.990  13.301 -1.5313 -1.1886  1.4232
 4010TIP3   OH233444   3.389   6.532   1.201  0.3890  0.2773 -0.4012
 4010TIP3    H133445   3.398   6.617   1.245 -3.0932  0.6834 -0.2015
 4010TIP3    H233446   3.405   6.552   1.109 -0.4768  1.2223 -0.3724
 4011TIP3   OH233447   4.299   4.846   2.611  0.3643 -0.1211 -0.1774
 4011TIP3    H133448   4.261   4.860   2.524 -0.6776  0.9388  0.4214
 4011TIP3    H233449   4.320   4.752   2.612  2.7262  0.2797 -2.4381
 4012TIP3   OH233450   3.991   0.620   0.977  0.4805 -0.8256 -0.8049
 4012TIP3    H133451   4.039   0.542   1.006  0.1015 -0.5314  0.7009
 4012TIP3    H233452   4.058   0.688   0.970  0.3398 -0.3915  1.3808
 4013TIP3   OH233453   0.610   2.569  11.033 -0.0156  0.2515 -0.0423
 4013TIP3    H133454   0.560   2.645  11.063 -1.0777 -0.3917 -0.1225
 4013TIP3    H233455   0.546   2.498  11.028  0.6264 -0.2744 -1.4698
 4014TIP3   OH233456   6.449   3.825  15.794  0.4417  0.1400 -0.3079
 4014TIP3    H133457   6.500   3.791  15.868  1.7978  0.2516 -1.1452
 4014TIP3    H233458   6.417   3.910  15.824  0.3495 -0.1352  0.4074
 4015TIP3   OH233459   5.111   1.923  13.274 -0.2662  0.2941 -0.1906
 4015TIP3    H133460   5.167   1.967  13.337  0.8760  1.7984 -2.1197
 4015TIP3    H233461   5.034   1.896  13.324  1.5211 -0.6461  2.2695
 4016TIP3   OH233462   3.788   6.095   2.175  0.4661 -0.1434  0.0081
 4016TIP3    H133463   3.712   6.046   2.205  0.7578 -0.6575 -0.0847
 4016TIP3    H233464   3.839   6.032   2.124  0.9111  0.2184 -0.0013
 4017TIP3   OH233465   5.913   2.649  16.497  0.3367  0.0731 -0.0580
 4017TIP3    H133466   5.851   2.620  16.430 -0.0628 -2.0259  1.1154
 4017TIP3    H233467   5.859   2.665  16.575  1.0851 -0.6075  0.6318
 4018TIP3   OH233468   5.767   1.657  16.514  0.0008 -0.1200 -0.2176
 4018TIP3    H133469   5.750   1.744  16.478 -0.7197 -0.7824 -1.5714
 4018TIP3    H233470   5.682   1.613  16.512 -0.1401 -0.1347  2.6181
 4019TIP3   OH233471   4.190   1.326  14.315  0.3344 -0.3378  0.0456
 4019TIP3    H133472   4.194   1.233  14.292  1.4284  0.2153 -2.2715
 4019TIP3    H233473   4.114   1.359  14.268 -0.8920 -0.2766  1.9680
 4020TIP3   OH233474   3.521   4.643   2.191 -0.1148 -0.0180 -0.0349
 4020TIP3    H133475   3.519   4.593   2.109 -1.9694 -1.2388  0.6731
 4020TIP3    H233476   3.431   4.673   2.203  0.2350  0.5788  1.2863
 4021TIP3   OH233477   6.531   2.205  15.842 -0.1778 -0.1722 -0.1691
 4021TIP3    H133478   6.616   2.245  15.824  0.7610 -0.4135  3.0921
 4021TIP3    H233479   6.522   2.210  15.937 -2.3467 -3.0741 -0.0950
 4022TIP3   OH233480   6.256   1.066   2.455 -0.3665  0.0614 -0.2958
 4022TIP3    H133481   6.341   1.088   2.494 -0.8266  0.3005  0.5891
 4022TIP3    H233482   6.207   1.149   2.457 -0.5665 -0.0348 -0.9601
 4023TIP3   OH233483   1.752   2.010  14.582 -0.5346 -0.4488 -0.1335
 4023TIP3    H133484   1.753   1.927  14.534 -0.5093 -0.7808  0.4246
 4023TIP3    H233485   1.830   2.056  14.553 -0.2892 -0.8349 -0.0941
 4024TIP3   OH233486   1.403   3.191  14.580  0.1154  0.2614  0.3132
 4024TIP3    H133487   1.441   3.273  14.611  2.0777 -0.7408  0.6798
 4024TIP3    H233488   1.395   3.202  14.485 -1.4847  1.5571  0.5377
 4025TIP3   OH233489   2.312   4.041   1.448  0.3006  0.3130  0.5536
 4025TIP3    H133490   2.381   4.043   1.381  1.2619  0.2236  1.5165
 4025TIP3    H233491   2.316   3.953   1.484 -0.1654  0.3850  0.7905
 4026TIP3   OH233492   3.609   4.680  11.953 -0.6346 -0.1800  0.5511
 4026TIP3    H133493   3.514   4.687  11.939 -0.5618 -0.5972 -0.2247
 4026TIP3    H233494   3.640   4.770  11.950 -1.0733  0.0070  1.3505
 4027TIP3   OH233495   3.224   3.364   2.438  0.3966 -0.4408 -0.0313
 4027TIP3    H133496   3.183   3.438   2.483 -2.6864 -1.1716 -1.4107
 4027TIP3    H233497   3.296   3.403   2.388 -0.3585  1.4048  0.2484
 4028TIP3   OH233498   3.527   4.585  11.616 -0.1356 -0.0536  0.2030
 4028TIP3    H133499   3.447   4.542  11.648 -0.3779 -0.9125 -1.4430
 4028TIP3    H233500   3.495   4.664  11.571  0.0841  0.3688  0.7698
 4029TIP3   OH233501   4.896   1.042   5.570  0.1497 -0.3102  0.5065
 4029TIP3    H133502   4.921   0.956   5.602 -1.2853 -0.6497  0.8048
 4029TIP3    H233503   4.809   1.028   5.531  1.1231  0.3996 -2.1204
 4030TIP3   OH233504   3.644   4.083   3.351 -0.0002  0.1918 -0.0726
 4030TIP3    H133505   3.675   4.086   3.260  1.4823 -1.4072  0.3295
 4030TIP3    H233506   3.649   4.173   3.381 -0.1654  0.6917 -1.4690
 4031TIP3   OH233507   3.619   6.694   5.782  0.2655  0.4526  0.1753
 4031TIP3    H133508   3.690   6.722   5.840 -0.3620  1.6142  0.4282
 4031TIP3    H233509   3.662   6.650   5.710  1.1644  0.2161  0.8456
 4032TIP3   OH233510   1.660   2.023   2.428 -0.2150 -0.4353 -0.1086
 4032TIP3    H133511   1.568   2.046   2.416 -0.2836  0.2758  1.5491
 4032TIP3    H233512   1.657   1.932   2.458 -0.2183 -1.1368 -2.1091
 4033TIP3   OH233513   1.742   2.526   6.568  0.7056  0.0076 -0.5707
 4033TIP3    H133514   1.705   2.593   6.625 -0.0465 -0.6320 -0.2851
 4033TIP3    H233515   1.797   2.575   6.507  1.9590  0.6576  1.0084
 4034TIP3   OH233516   6.208   4.928  15.715  0.6420  0.1713  0.4056
 4034TIP3    H133517   6.192   5.020  15.697 -2.5513 -0.7861 -2.9901
 4034TIP3    H233518   6.271   4.901  15.648  0.1339 -0.4483  0.1631
 4035TIP3   OH233519   0.153   2.676  15.758 -0.1800 -0.6301 -0.1260
 4035TIP3    H133520   0.238   2.710  15.787  0.6056 -1.7936 -0.9690
 4035TIP3    H233521   0.131   2.610  15.823  0.5541 -1.7421 -0.9782
 4036TIP3   OH233522   6.123   5.511   0.181 -0.0095 -0.5715  0.1718
 4036TIP3    H133523   6.176   5.514   0.101  0.3711  0.9851  0.4634
 4036TIP3    H233524   6.180   5.470   0.246  0.3376 -0.1633  0.1240
 4037TIP3   OH233525   5.351   5.059   0.564 -0.2351 -0.1940 -0.1241
 4037TIP3    H133526   5.265   5.034   0.597 -0.2972  1.0398  0.7082
 4037TIP3    H233527   5.336   5.084   0.473  0.0199 -4.1376 -1.4644
 4038TIP3   OH233528   1.085   5.221   3.206  0.3830 -0.1511 -0.5996
 4038TIP3    H133529   1.025   5.168   3.154  1.0226 -0.5138 -0.9760
 4038TIP3    H233530   1.061   5.312   3.186 -1.7166 -0.2305  1.1779
 4039TIP3   OH233531   0.707   4.915   1.621  0.4741  0.4272 -0.0967
 4039TIP3    H133532   0.789   4.913   1.671  0.8760  2.3602 -0.5743
 4039TIP3    H233533   0.734   4.943   1.533 -0.5868  0.0931 -0.5453
 4040TIP3   OH233534   5.850   3.831  17.028 -0.6353  0.1626 -0.5104
 4040TIP3    H133535   5.929   3.883  17.014  0.7242 -1.8791 -0.9070
 4040TIP3    H233536   5.826   3.848  17.119  0.2320  0.8704 -0.3965
 4041TIP3   OH233537   3.351   4.667   6.133 -0.3680  0.2597  0.2644
 4041TIP3    H133538   3.255   4.671   6.136 -0.3379  0.9165  2.4708
 4041TIP3    H233539   3.375   4.616   6.210  1.0662 -0.6090 -0.7116
 4042TIP3   OH233540   2.523   6.144  11.553 -0.4224 -0.6515  0.6206
 4042TIP3    H133541   2.591   6.099  11.603  2.3987  2.0580 -0.4565
 4042TIP3    H233542   2.520   6.232  11.590 -1.8460 -0.0661 -0.7660
 4043TIP3   OH233543   4.011   2.583   3.839 -0.5295 -0.1052 -0.0238
 4043TIP3    H133544   4.021   2.633   3.920 -0.4819 -0.2344  0.0508
 4043TIP3    H233545   4.066   2.628   3.776 -0.9377  0.2762 -0.1112
 4044TIP3   OH233546   2.887   6.631  13.631  0.5862  0.7627 -0.3754
 4044TIP3    H133547   2.937   6.631  13.550  1.1115  0.8041 -0.0526
 4044TIP3    H233548   2.874   6.724  13.651 -0.5971  0.7602 -1.0516
 4045TIP3   OH233549   5.330   3.331   1.059 -0.2665 -0.1755 -0.4721
 4045TIP3    H133550   5.424   3.345   1.073 -0.2486  0.1772 -0.9178
 4045TIP3    H233551   5.298   3.417   1.032 -0.5013 -0.5754 -1.5052
 4046TIP3   OH233552   3.998   0.876   4.115  0.1499 -0.0762 -0.3292
 4046TIP3    H133553   3.963   0.847   4.031  0.7823 -2.2261  0.0760
 4046TIP3    H233554   4.016   0.795   4.162  0.7223  1.0589  1.5144
 4047TIP3   OH233555   3.686   1.382   5.782  0.2410 -0.3704  0.2676
 4047TIP3    H133556   3.677   1.469   5.821  0.5672 -0.7312  1.1782
 4047TIP3    H233557   3.630   1.384   5.705  0.7243  0.8438 -0.0703
 4048TIP3   OH233558   1.378   5.616  13.579  0.3482  0.0105 -0.3711
 4048TIP3    H133559   1.377   5.711  13.594  2.5168  0.1138 -0.6039
 4048TIP3    H233560   1.326   5.605  13.499 -2.6736  0.5627  1.3495
 4049TIP3   OH233561   5.693   1.101  15.311 -0.4060  0.3691  0.5073
 4049TIP3    H133562   5.652   1.155  15.378 -0.6363  1.2408 -0.3103
 4049TIP3    H233563   5.685   1.153  15.231 -0.9295 -1.0274 -0.3743
 4050TIP3   OH233564   4.599   1.351   1.124 -0.0104 -0.0717 -0.1181
 4050TIP3    H133565   4.507   1.348   1.150 -0.1163 -0.8834 -0.5442
 4050TIP3    H233566   4.642   1.406   1.190 -0.8973  0.7676 -0.2226
 4051TIP3   OH233567   1.353   3.030   2.419  0.6828  0.8660 -0.2254
 4051TIP3    H133568   1.286   3.010   2.353  0.9503  1.7827 -0.7974
 4051TIP3    H233569   1.358   3.125   2.419  0.6733  0.8752  1.1575
 4052TIP3   OH233570   5.007   1.453   1.382 -0.5788 -0.2714 -0.2741
 4052TIP3    H133571   4.974   1.522   1.440 -1.1978 -1.0600  0.3400
 4052TIP3    H233572   4.960   1.466   1.300  1.0623  1.4948 -0.9920
 4053TIP3   OH233573   3.908   6.265  12.531  0.0343 -0.1671  0.3435
 4053TIP3    H133574   3.859   6.183  12.528  1.1046 -0.8655  1.3888
 4053TIP3    H233575   3.875   6.310  12.609  0.5922 -0.3367  0.6762
 4054TIP3   OH233576   5.259   2.334   0.350 -0.5067  1.0146  0.1916
 4054TIP3    H133577   5.302   2.249   0.362  3.2762  2.9144  2.0929
 4054TIP3    H233578   5.173   2.313   0.315 -1.1106 -3.8105  3.6077
 4055TIP3   OH233579   5.526   1.048  12.273 -0.0309 -0.4303 -0.1571
 4055TIP3    H133580   5.544   1.130  12.318 -0.0743  0.2239 -1.3007
 4055TIP3    H233581   5.547   0.980  12.337 -0.1403  0.4682  0.8548
 4056TIP3   OH233582   1.444   4.893  13.512  0.1401 -0.1183 -0.4426
 4056TIP3    H133583   1.428   4.966  13.452 -0.4031  0.5647  0.5234
 4056TIP3    H233584   1.511   4.840  13.467 -1.3445 -0.4733 -2.3754
 4057TIP3   OH233585   6.559   1.729   2.937 -0.1549 -0.5573  0.1958
 4057TIP3    H133586   6.607   1.794   2.988 -0.5054 -1.1728  1.3438
 4057TIP3    H233587   6.467   1.754   2.945 -0.2068 -0.5998 -0.2251
 4058TIP3   OH233588   4.318   5.636  15.751 -0.4222  0.0676 -0.7650
 4058TIP3    H133589   4.284   5.667  15.834  0.2617 -0.8914 -0.1011
 4058TIP3    H233590   4.406   5.603  15.772 -0.4300 -0.6418 -1.7589
 4059TIP3   OH233591   3.518   0.193  13.766 -0.3022 -0.4769 -0.0062
 4059TIP3    H133592   3.539   0.148  13.848 -0.1612 -0.4294 -0.0153
 4059TIP3    H233593   3.481   0.125  13.709 -0.9502 -0.3898  0.2999
 4060TIP3   OH233594   3.902   1.179   0.118 -1.0327 -0.1361  0.0702
 4060TIP3    H133595   3.809   1.185   0.138 -0.8771  1.2584  0.5128
 4060TIP3    H233596   3.945   1.219   0.194 -0.1932  1.2181 -1.0815
 4061TIP3   OH233597   3.334   0.056   2.929 -0.9282 -0.2349  0.3175
 4061TIP3    H133598   3.249   0.066   2.971 -1.9747 -1.3086 -1.4280
 4061TIP3    H233599   3.365  -0.030   2.958 -1.0050 -0.3633  0.0266
 4062TIP3   OH233600   4.374   2.929  11.943 -0.1281  0.4977 -0.5729
 4062TIP3    H133601   4.335   2.999  11.996  0.6096  0.5596 -0.1068
 4062TIP3    H233602   4.421   2.975  11.873  2.7974  0.6685  1.3337
 4063TIP3   OH233603   6.484   1.725  13.803  0.2930 -0.3792  0.2219
 4063TIP3    H133604   6.567   1.705  13.759  1.1844 -0.2626  1.7869
 4063TIP3    H233605   6.489   1.819  13.820 -1.4407  0.2302 -2.1608
 4064TIP3   OH233606   4.899   6.510   3.833 -0.7370  0.2873 -0.1715
 4064TIP3    H133607   4.875   6.498   3.741 -2.8533  1.5749  0.1443
 4064TIP3    H233608   4.945   6.594   3.836 -0.0892 -0.0692 -0.1526
 4065TIP3   OH233609   4.244   2.061  12.208 -1.1101  0.5088  0.3824
 4065TIP3    H133610   4.288   2.076  12.124 -0.3180 -0.0354  0.6973
 4065TIP3    H233611   4.180   2.132  12.214 -0.0687  1.5002  0.0544
 4066TIP3   OH233612   2.152   2.557   0.718 -0.5048 -0.4335 -0.4759
 4066TIP3    H133613   2.233   2.607   0.706 -0.9118  0.3130 -0.1468
 4066TIP3    H233614   2.181   2.468   0.734  0.2756 -0.0601  0.2345
 4067TIP3   OH233615   2.393   3.850   1.948  0.5135 -0.2546  0.1544
 4067TIP3    H133616   2.318   3.903   1.921  0.6542 -0.4009 -0.5389
 4067TIP3    H233617   2.354   3.772   1.986  0.2596 -1.4008 -2.2589
 4068TIP3   OH233618   4.507   3.254  13.020 -0.1324 -0.3202 -0.3000
 4068TIP3    H133619   4.481   3.163  13.007 -0.3522 -0.3851  0.5178
 4068TIP3    H233620   4.537   3.257  13.111 -1.4322  0.7110  0.1262
 4069TIP3   OH233621   2.057   5.222   2.067  0.1660  0.1025 -0.7600
 4069TIP3    H133622   2.104   5.292   2.112  0.5356 -0.2615 -0.5691
 4069TIP3    H233623   1.965   5.236   2.089 -0.1094  2.0872 -2.8381
 4070TIP3   OH233624   2.121   6.634   0.739  0.0128 -0.2597 -0.2238
 4070TIP3    H133625   2.065   6.693   0.789 -0.0782 -0.6772  0.1703
 4070TIP3    H233626   2.102   6.656   0.647 -0.8713 -0.4597 -0.0994
 4071TIP3   OH233627   4.171   0.802   2.615  0.1984 -0.2918  0.3463
 4071TIP3    H133628   4.203   0.880   2.570 -1.2240 -0.2359 -0.6490
 4071TIP3    H233629   4.250   0.753   2.636  0.9986  0.1527 -1.3762
 4072TIP3   OH233630   6.303   6.587   1.757 -0.0312  0.2674  0.0955
 4072TIP3    H133631   6.326   6.511   1.811  0.3575  0.6853  0.5248
 4072TIP3    H233632   6.278   6.549   1.673  1.7330 -0.2535 -0.2363
 4073TIP3   OH233633   0.656   3.650  14.309  0.3776  0.1835  0.0398
 4073TIP3    H133634   0.687   3.574  14.259 -0.6516 -0.4886  0.3945
 4073TIP3    H233635   0.725   3.667  14.372  1.0230  0.1084 -0.6369
 4074TIP3   OH233636   4.103   1.603  15.586 -0.5597 -0.1908  0.1743
 4074TIP3    H133637   4.156   1.581  15.509 -0.6096 -1.9879  0.6145
 4074TIP3    H233638   4.161   1.653  15.642 -0.6736  1.6102 -1.2299
 4075TIP3   OH233639   2.413   6.317  15.620 -0.3668  0.5293 -0.5475
 4075TIP3    H133640   2.441   6.309  15.711  2.3939 -0.4766 -1.3790
 4075TIP3    H233641   2.409   6.411  15.604 -0.3651  0.7087  0.4591
 4076TIP3   OH233642   0.210   3.622  12.277 -0.1877  0.0158  0.0416
 4076TIP3    H133643   0.240   3.541  12.236 -1.0062 -0.6653  0.7572
 4076TIP3    H233644   0.126   3.600  12.317 -0.7518  1.3959 -0.3177
 4077TIP3   OH233645   5.476   5.604  12.948  0.4074 -0.5382 -0.4218
 4077TIP3    H133646   5.426   5.589  12.868 -0.6079 -0.7517  0.2383
 4077TIP3    H233647   5.435   5.681  12.988  0.1433 -1.1224  0.4711
 4078TIP3   OH233648   6.380   5.023  12.667  0.3418  0.5061  0.0899
 4078TIP3    H133649   6.424   4.960  12.725  1.3613 -0.1085 -1.2888
 4078TIP3    H233650   6.439   5.098  12.665  0.1038  0.6941  0.1757
 4079TIP3   OH233651   0.694   3.449   0.931  0.2597  0.0908  0.2328
 4079TIP3    H133652   0.637   3.372   0.937  0.3862 -0.0328 -0.1184
 4079TIP3    H233653   0.671   3.489   0.847 -0.4956  0.9933  0.8458
 4080TIP3   OH233654   3.741   3.252  17.206  0.0065  0.5123  0.0846
 4080TIP3    H133655   3.821   3.212  17.240 -0.5968  0.4343  1.5178
 4080TIP3    H233656   3.771   3.314  17.139  1.0174 -1.8501 -1.8017
 4081TIP3   OH233657   1.907   1.062  11.630 -0.2181 -0.8967 -0.6486
 4081TIP3    H133658   1.876   1.063  11.720  0.0558  1.8974 -0.5069
 4081TIP3    H233659   1.831   1.033  11.579 -1.4449  0.7039  0.2014
 4082TIP3   OH233660   1.963   4.620   1.778 -0.4287 -0.0320 -0.0204
 4082TIP3    H133661   2.057   4.608   1.766  0.0304  1.3359  1.8651
 4082TIP3    H233662   1.945   4.587   1.866 -1.5969  0.2819 -0.1224
 4083TIP3   OH233663   5.414   0.851  12.079 -0.1563  0.5930  0.2629
 4083TIP3    H133664   5.469   0.876  12.153 -0.5778  3.1056 -0.1801
 4083TIP3    H233665   5.476   0.830  12.009  0.2275  0.8229  0.5325
 4084TIP3   OH233666   1.438   3.277  13.041 -0.0449 -0.6116  0.4785
 4084TIP3    H133667   1.443   3.223  12.963  2.5723 -0.3120  0.3476
 4084TIP3    H233668   1.405   3.362  13.010  0.9496 -0.5008 -0.3276
 4085TIP3   OH233669   1.267   5.050  12.263  0.0725  0.1627 -0.1164
 4085TIP3    H133670   1.317   5.083  12.338  0.7941  2.3377 -1.4654
 4085TIP3    H233671   1.184   5.098  12.267 -0.1402 -0.1811 -0.3621
 4086TIP3   OH233672   3.953   1.300  14.136  0.0515  1.0059  0.2174
 4086TIP3    H133673   3.880   1.276  14.194 -2.4165  0.5969 -2.8164
 4086TIP3    H233674   4.010   1.223  14.136 -0.9277  0.2614  0.5918
 4087TIP3   OH233675   6.003   3.026  14.068  0.0679  0.3308 -0.7046
 4087TIP3    H133676   6.005   3.104  14.123  1.1764  1.3622 -2.1232
 4087TIP3    H233677   5.974   3.058  13.983  0.8253 -0.7436 -1.3869
 4088TIP3   OH233678   6.666   4.007  12.191 -0.1398 -0.1951 -0.1006
 4088TIP3    H133679   6.690   4.096  12.167  0.0871 -0.2806 -0.1963
 4088TIP3    H233680   6.572   4.001  12.173  0.3265 -0.8097 -2.7837
 4089TIP3   OH233681   1.629   2.970  15.807  0.0476 -0.3190 -0.3152
 4089TIP3    H133682   1.674   2.957  15.891  1.1930 -0.6271 -0.9579
 4089TIP3    H233683   1.572   2.894  15.798 -0.2949 -0.1440  0.3039
 4090TIP3   OH233684   3.278   5.736  15.991 -0.5351 -0.3413 -0.1968
 4090TIP3    H133685   3.332   5.733  15.912 -0.7683 -0.0912 -0.3680
 4090TIP3    H233686   3.199   5.783  15.964 -0.8879 -0.7994  0.0208
 4091TIP3   OH233687   2.164   2.115  11.221 -0.0090 -0.3607  0.1400
 4091TIP3    H133688   2.251   2.108  11.183 -0.2571  0.6388 -0.6536
 4091TIP3    H233689   2.107   2.068  11.160 -0.3086  0.6842 -0.4108
 4092TIP3   OH233690   6.419   4.399  13.601  0.1469  0.3186 -0.6700
 4092TIP3    H133691   6.445   4.359  13.684 -0.1895 -0.0808 -0.7538
 4092TIP3    H233692   6.349   4.460  13.625 -1.3718 -1.2676 -0.8992
 4093TIP3   OH233693   3.147   6.547   2.021 -0.2684 -0.4169 -0.2533
 4093TIP3    H133694   3.097   6.582   1.947 -0.5590 -0.7511 -0.2184
 4093TIP3    H233695   3.238   6.548   1.991 -0.3417 -0.1702 -0.4641
 4094TIP3   OH233696   4.660   5.298   0.158  0.1900  0.1168  0.2286
 4094TIP3    H133697   4.649   5.292   0.063  0.9076 -0.0096  0.1523
 4094TIP3    H233698   4.687   5.389   0.173 -0.5397  0.3168  0.3793
 4095TIP3   OH233699   4.938   3.544  12.832 -0.1030  0.6816 -0.6729
 4095TIP3    H133700   4.899   3.460  12.857  0.4309  0.1508 -1.5743
 4095TIP3    H233701   4.936   3.596  12.912  0.1058 -0.4038  0.0532
 4096TIP3   OH233702   0.310   2.472   6.618  0.5597 -0.3318 -0.9251
 4096TIP3    H133703   0.303   2.520   6.535  0.5470 -2.3126 -2.1170
 4096TIP3    H233704   0.391   2.422   6.610  0.9198 -0.0321  0.5763
 4097TIP3   OH233705   4.101   0.728   5.891  0.2940  0.3159 -0.0114
 4097TIP3    H133706   4.192   0.700   5.889  0.6390  1.3887 -0.0942
 4097TIP3    H233707   4.097   0.794   5.960 -1.2077 -2.2007  2.5087
 4098TIP3   OH233708   1.744   1.383   0.518 -0.3968 -0.1036  0.8381
 4098TIP3    H133709   1.682   1.319   0.553 -1.3339  1.0601  1.3835
 4098TIP3    H233710   1.703   1.417   0.439  0.7125 -1.1231 -0.2084
 4099TIP3   OH233711   1.607   3.915   2.424  0.3267 -0.2701  0.4093
 4099TIP3    H133712   1.676   3.869   2.472  2.1189 -0.4106 -2.0674
 4099TIP3    H233713   1.629   4.008   2.435  1.1272 -0.3221 -0.5859
 4100TIP3   OH233714   4.197   2.752   2.807 -0.3410  0.2420 -0.2586
 4100TIP3    H133715   4.102   2.744   2.816 -0.4552  1.7863  0.1542
 4100TIP3    H233716   4.229   2.754   2.897  0.0487  0.1909 -0.3956
 4101TIP3   OH233717   3.748   5.169  14.147 -0.1871  0.2392  0.2550
 4101TIP3    H133718   3.668   5.122  14.171 -1.8603  1.4964 -2.3460
 4101TIP3    H233719   3.753   5.160  14.052  3.8347 -1.2788  0.4333
 4102TIP3   OH233720   1.272   4.933  12.003 -0.0689 -0.3258  0.5493
 4102TIP3    H133721   1.295   4.841  12.014  0.8841 -0.0295  1.2227
 4102TIP3    H233722   1.279   4.970  12.091 -0.2585  0.4391  0.2560
 4103TIP3   OH233723   4.156   1.902   4.600 -0.2472  0.2823 -0.2144
 4103TIP3    H133724   4.186   1.823   4.554  1.5323  0.9103 -0.2051
 4103TIP3    H233725   4.080   1.931   4.550 -0.2954 -0.8533 -0.8409
 4104TIP3   OH233726   4.938   4.470  16.238  0.2320 -0.5852 -0.1907
 4104TIP3    H133727   4.996   4.435  16.305  0.3920 -1.1854 -0.6371
 4104TIP3    H233728   4.975   4.555  16.216 -0.8206  0.4434  1.7502
 4105TIP3   OH233729   4.631   2.588  13.239  0.0390  0.1169 -0.3882
 4105TIP3    H133730   4.671   2.538  13.310  1.6630 -1.2817 -2.2088
 4105TIP3    H233731   4.686   2.666  13.231 -0.9138  0.9412  0.6743
 4106TIP3   OH233732   1.945   0.843   3.172  0.0630 -0.2010 -0.2908
 4106TIP3    H133733   1.861   0.841   3.127 -0.0297 -1.3997 -0.0996
 4106TIP3    H233734   1.933   0.908   3.241 -0.5799 -0.0689 -0.5163
 4107TIP3   OH233735   5.605   6.753   1.896 -0.0546 -0.0178 -0.7947
 4107TIP3    H133736   5.575   6.727   1.809  2.2433 -2.0487 -1.0639
 4107TIP3    H233737   5.666   6.685   1.922  1.0478  1.7045  1.4781
 4108TIP3   OH233738   0.662   1.376   3.121  0.0515  0.4119 -0.7758
 4108TIP3    H133739   0.700   1.450   3.169  0.6863 -0.0668 -0.5223
 4108TIP3    H233740   0.596   1.340   3.180  0.7172 -0.0759 -0.3210
 4109TIP3   OH233741   4.669   1.986  16.357  0.3000  0.5425 -0.0053
 4109TIP3    H133742   4.662   1.894  16.332 -2.6906  0.4391  0.8294
 4109TIP3    H233743   4.701   1.984  16.447  0.1116  0.3017  0.0581
 4110TIP3   OH233744   6.022   5.655  11.373  0.1275 -0.4030  0.7362
 4110TIP3    H133745   5.956   5.620  11.313  0.3070  0.1263  0.2267
 4110TIP3    H233746   5.974   5.719  11.426  1.0557  3.6190 -2.7504
 4111TIP3   OH233747   2.369   5.001   5.053  0.3823 -0.0944 -0.2907
 4111TIP3    H133748   2.446   4.949   5.075 -0.5049 -1.5872 -0.5949
 4111TIP3    H233749   2.372   5.076   5.113  0.6798 -1.4617  1.4531
 4112TIP3   OH233750   5.892   0.879  13.894 -0.2955 -0.1496  0.2222
 4112TIP3    H133751   5.884   0.790  13.859  1.3519 -1.0393  1.8520
 4112TIP3    H233752   5.870   0.936  13.821  1.4350 -1.8709 -1.8062
 4113TIP3   OH233753   1.046   0.569   0.378  0.2443 -0.1355 -0.8913
 4113TIP3    H133754   1.131   0.532   0.353  0.7098 -1.0725  1.7406
 4113TIP3    H233755   1.044   0.654   0.335  2.3037 -0.2915 -1.4326
 4114TIP3   OH233756   5.044   3.873  16.999 -0.2196  0.3981  0.0877
 4114TIP3    H133757   5.064   3.923  16.919 -0.1313  0.8350  0.3779
 4114TIP3    H233758   5.128   3.833  17.023 -0.4618 -0.5308 -0.5772
 4115TIP3   OH233759   3.702   0.313   3.304  0.1530 -0.1595 -0.3452
 4115TIP3    H133760   3.659   0.283   3.225 -0.4304 -1.9931  0.6181
 4115TIP3    H233761   3.648   0.280   3.376  1.8933 -0.5440  0.8612
 4116TIP3   OH233762   1.225   2.348   2.002  0.0919  0.1155  0.4036
 4116TIP3    H133763   1.306   2.391   1.976 -0.3351  0.8758  0.3266
 4116TIP3    H233764   1.156   2.412   1.985 -1.0581 -1.7575 -3.1371
 4117TIP3   OH233765   0.932   2.240  13.323 -0.6095  0.3645  0.0868
 4117TIP3    H133766   1.026   2.222  13.317 -0.6140 -0.6022  2.1825
 4117TIP3    H233767   0.893   2.189  13.251  0.2695 -0.9667  0.5208
 4118TIP3   OH233768   5.954   5.167  12.366 -0.7127  0.8339  0.5369
 4118TIP3    H133769   6.016   5.136  12.431  0.5322 -0.7867 -1.2893
 4118TIP3    H233770   5.891   5.095  12.356 -0.7124  0.9259 -0.2327
 4119TIP3   OH233771   5.918   5.815   4.764  0.0248  0.6267 -0.1645
 4119TIP3    H133772   5.996   5.870   4.773 -0.0902  0.5701  1.4336
 4119TIP3    H233773   5.845   5.877   4.755 -0.0553  0.7457  1.2059
 4120TIP3   OH233774   6.625   5.190  12.743 -0.1566 -0.9281 -0.2164
 4120TIP3    H133775   6.712   5.221  12.769 -0.5367  0.0445 -0.0659
 4120TIP3    H233776   6.577   5.181  12.825 -0.9721  0.9665 -0.4244
 4121TIP3   OH233777   2.648   6.229   3.168 -0.0921 -0.1653  0.2575
 4121TIP3    H133778   2.629   6.276   3.249  0.3233  0.6652 -0.1103
 4121TIP3    H233779   2.715   6.166   3.193 -0.8645 -0.7813  0.8215
 4122TIP3   OH233780   5.741   2.951   3.057 -0.1941  0.3450 -0.1026
 4122TIP3    H133781   5.658   2.993   3.032 -0.1639  1.3525  1.3465
 4122TIP3    H233782   5.716   2.863   3.084 -0.7430  0.5003 -0.0867
 4123TIP3   OH233783   2.888   1.560  11.332 -0.0480  0.2503 -0.5598
 4123TIP3    H133784   2.931   1.484  11.293 -1.4327 -0.6933 -0.3155
 4123TIP3    H233785   2.880   1.622  11.260 -0.6474 -0.6224 -1.2686
 4124TIP3   OH233786   0.878   5.467   0.418  0.1751 -0.3715 -0.2869
 4124TIP3    H133787   0.931   5.389   0.407 -0.0093 -0.3174 -1.7563
 4124TIP3    H233788   0.800   5.451   0.364 -1.2559 -0.3860  1.6790
 4125TIP3   OH233789   3.575   2.328   3.589 -0.1132  0.1190 -0.0524
 4125TIP3    H133790   3.548   2.340   3.498 -0.3680  0.6851  0.0945
 4125TIP3    H233791   3.640   2.397   3.604 -0.1442  0.0872  0.2233
 4126TIP3   OH233792   3.976   3.806  14.069 -0.0536  0.5075  0.1454
 4126TIP3    H133793   4.009   3.778  13.984 -0.2102  0.7643 -0.0035
 4126TIP3    H233794   3.881   3.812  14.057 -0.2853 -1.2085  0.8549
 4127TIP3   OH233795   5.796   5.146   1.848  0.2309 -0.1466  0.0280
 4127TIP3    H133796   5.780   5.055   1.824 -0.3803 -0.3224  1.0402
 4127TIP3    H233797   5.722   5.170   1.904  0.1214  1.1313 -0.6153
 4128TIP3   OH233798   5.190   2.769   5.294  0.0010 -0.0688  0.2827
 4128TIP3    H133799   5.252   2.755   5.222 -0.1819  0.2764  0.0537
 4128TIP3    H233800   5.210   2.700   5.357 -0.6372 -1.0984 -0.6324
 4129TIP3   OH233801   3.947   1.627   5.067 -0.2157 -0.3647  0.2303
 4129TIP3    H133802   3.853   1.622   5.047 -0.2769 -0.2457  0.4867
 4129TIP3    H233803   3.953   1.693   5.136  0.2730  1.1838 -1.2187
 4130TIP3   OH233804   4.700   3.957   1.747  0.2573  0.0807 -0.1095
 4130TIP3    H133805   4.719   4.027   1.809  1.8133 -0.2499 -0.1821
 4130TIP3    H233806   4.767   3.966   1.679  0.1323 -1.1209 -0.4126
 4131TIP3   OH233807   3.947   5.307   5.099 -0.0980  0.1927 -0.0815
 4131TIP3    H133808   3.922   5.216   5.081 -0.0219  0.3733 -1.1826
 4131TIP3    H233809   3.945   5.349   5.013 -2.5169  1.8288  0.6626
 4132TIP3   OH233810   0.539   1.078   2.010 -0.7826  0.8726 -0.3001
 4132TIP3    H133811   0.492   1.102   2.090 -2.6302  0.9130 -1.3328
 4132TIP3    H233812   0.623   1.123   2.017 -0.5595  0.2314  1.9604
 4133TIP3   OH233813   3.407   4.908  14.423 -0.4305 -0.6278 -0.1007
 4133TIP3    H133814   3.463   4.933  14.497  0.0840  2.2891 -1.3411
 4133TIP3    H233815   3.318   4.915  14.457 -0.1782 -1.4685  0.7985
 4134TIP3   OH233816   0.786   2.901   1.056  0.6414 -0.0186 -0.2636
 4134TIP3    H133817   0.699   2.878   1.023 -0.1505  1.4067  0.7327
 4134TIP3    H233818   0.804   2.988   1.020  0.3082  1.0095  1.9178
 4135TIP3   OH233819   4.433   5.033   4.847  0.7408  0.6221  0.2465
 4135TIP3    H133820   4.526   5.022   4.867  0.5986 -0.6521  0.2288
 4135TIP3    H233821   4.388   5.008   4.928  0.3425 -0.6308 -0.3440
 4136TIP3   OH233822   3.106   2.344   1.884 -0.5706 -0.6257  0.2470
 4136TIP3    H133823   3.040   2.347   1.954  2.0950 -0.6104  2.9914
 4136TIP3    H233824   3.172   2.409   1.911  0.0777  0.1872 -2.9462
 4137TIP3   OH233825   2.755   5.076   3.146 -0.2773 -0.0441 -0.5933
 4137TIP3    H133826   2.690   5.142   3.169 -1.3227 -1.1303 -0.3577
 4137TIP3    H233827   2.741   5.059   3.053 -1.3885 -1.3824 -0.2071
 4138TIP3   OH233828   0.976   3.302  12.458  0.6246 -0.6219 -0.0506
 4138TIP3    H133829   0.985   3.394  12.433 -2.3471 -0.9677 -3.1125
 4138TIP3    H233830   0.926   3.304  12.539 -1.7085  0.5634 -1.4109
 4139TIP3   OH233831   1.317   1.355  14.664  0.0817 -0.1701  0.1576
 4139TIP3    H133832   1.287   1.267  14.689  0.0102 -0.4576 -0.8937
 4139TIP3    H233833   1.242   1.393  14.619  0.4567  0.0471 -0.2850
 4140TIP3   OH233834   5.560   5.018  16.585  0.0329  0.4666 -0.5240
 4140TIP3    H133835   5.481   5.039  16.536 -0.0114 -0.2340 -0.7690
 4140TIP3    H233836   5.614   4.969  16.523 -0.0580 -0.5000  0.1354
 4141TIP3   OH233837   0.407   3.426   6.684  0.0976  0.2196 -0.2740
 4141TIP3    H133838   0.503   3.422   6.694  0.1437 -1.7160 -0.9944
 4141TIP3    H233839   0.376   3.345   6.724 -1.3042  1.0441  0.3407
 4142TIP3   OH233840   2.702   5.023   2.271  0.2261  0.1385 -1.1219
 4142TIP3    H133841   2.738   5.098   2.225  0.0446  0.5286 -0.6395
 4142TIP3    H233842   2.620   5.004   2.227  0.2328  0.2776 -1.1949
 4143TIP3   OH233843   1.625   0.774  13.850 -0.1321  0.2392 -0.1584
 4143TIP3    H133844   1.701   0.830  13.833 -0.2131  0.3375 -0.1943
 4143TIP3    H233845   1.659   0.685  13.843  0.2638  0.2777  1.0902
 4144TIP3   OH233846   0.762   2.406   5.012 -0.0723  0.1545  0.0536
 4144TIP3    H133847   0.805   2.387   5.096  2.0769  1.6483 -0.6098
 4144TIP3    H233848   0.799   2.342   4.951 -0.5632 -0.0238 -0.0619
 4145TIP3   OH233849   0.986   0.963  13.122 -0.1779 -0.5144  0.1919
 4145TIP3    H133850   1.048   0.984  13.053 -1.1734  1.7347 -0.1132
 4145TIP3    H233851   1.040   0.949  13.200  0.8206 -0.8217 -0.5353
 4146TIP3   OH233852   3.692   1.150  14.971  0.1916 -0.7179  0.7281
 4146TIP3    H133853   3.748   1.187  15.039 -0.1582 -2.2468  1.8961
 4146TIP3    H233854   3.613   1.121  15.017  0.2853 -2.5530 -0.1568
 4147TIP3   OH233855   1.211   6.542   3.121 -0.7080 -0.5605  0.4384
 4147TIP3    H133856   1.191   6.470   3.061  1.0298  0.2500 -1.2086
 4147TIP3    H233857   1.214   6.620   3.066 -2.2876  0.8139  2.1312
 4148TIP3   OH233858   5.776   2.021  14.725  0.5380 -0.2362 -0.3090
 4148TIP3    H133859   5.742   1.989  14.642 -0.8354  0.5007 -0.0574
 4148TIP3    H233860   5.833   2.095  14.702 -0.8477  0.7933 -0.5449
 4149TIP3   OH233861   2.123   3.262  13.875 -0.3885  0.2031 -0.3067
 4149TIP3    H133862   2.095   3.187  13.929  0.1072 -0.2042 -0.6014
 4149TIP3    H233863   2.199   3.229  13.827 -0.5850  0.6896 -0.9596
 4150TIP3   OH233864   2.698   3.415  15.786  0.0874 -0.1744  0.1557
 4150TIP3    H133865   2.611   3.444  15.814 -0.5812  0.0793 -2.0375
 4150TIP3    H233866   2.738   3.380  15.866 -1.6456  0.5966  1.4196
 4151TIP3   OH233867   0.375   0.269   2.682  0.2225  0.4793  0.2555
 4151TIP3    H133868   0.457   0.319   2.687  0.7225 -0.3736  0.6188
 4151TIP3    H233869   0.360   0.257   2.588  1.6912 -1.2432  0.1953
 4152TIP3   OH233870   4.548   1.312   0.710 -0.2011 -0.1000 -0.0562
 4152TIP3    H133871   4.633   1.291   0.672 -0.0961 -0.8356  0.5598
 4152TIP3    H233872   4.508   1.372   0.647  1.1416  1.0204  0.0911
 4153TIP3   OH233873   1.337   2.824  16.736 -0.1857 -0.1257  0.1674
 4153TIP3    H133874   1.410   2.771  16.770 -1.4404 -3.2009 -1.5514
 4153TIP3    H233875   1.368   2.855  16.651 -0.7357 -1.1951 -0.4372
 4154TIP3   OH233876   6.506   6.225  14.444  0.4277 -0.3680 -0.3496
 4154TIP3    H133877   6.562   6.154  14.478  0.6511 -0.5840 -1.1453
 4154TIP3    H233878   6.565   6.299  14.435  0.7453 -0.7770 -1.7915
 4155TIP3   OH233879   4.348   0.754  17.058  0.1033 -0.0550  0.0924
 4155TIP3    H133880   4.421   0.695  17.080 -0.0064 -0.4101 -0.4752
 4155TIP3    H233881   4.337   0.744  16.964  2.7825  3.9282 -0.8808
 4156TIP3   OH233882   0.811   5.275  12.104 -0.0194 -0.2229  0.0188
 4156TIP3    H133883   0.819   5.230  12.020  0.5678  0.9271 -0.5588
 4156TIP3    H233884   0.719   5.263  12.128 -0.3778  0.0295 -1.1464
 4157TIP3   OH233885   5.832   3.834   1.537  0.0695 -0.1019  0.2452
 4157TIP3    H133886   5.744   3.800   1.523  0.4718 -0.7088 -0.8460
 4157TIP3    H233887   5.890   3.768   1.501  0.9835  0.3434  0.8545
 4158TIP3   OH233888   2.230   3.486   1.788 -0.3663 -0.2789 -0.2691
 4158TIP3    H133889   2.153   3.533   1.817  0.0339 -0.0797  0.4890
 4158TIP3    H233890   2.291   3.492   1.861  1.1474  1.2822 -1.5667
 4159TIP3   OH233891   6.612   4.453  13.375 -0.6078 -0.3080 -0.2044
 4159TIP3    H133892   6.556   4.469  13.451 -1.5762 -1.8243 -0.5660
 4159TIP3    H233893   6.553   4.419  13.308  0.4666 -0.3216 -1.1825
 4160TIP3   OH233894   3.527   4.872   5.517  0.0140  0.4833  0.7841
 4160TIP3    H133895   3.521   4.902   5.607 -1.8702 -1.3078  1.3261
 4160TIP3    H233896   3.471   4.795   5.513 -1.4302  1.5035 -2.3130
 4161TIP3   OH233897   2.756   4.243  14.408 -0.1793  0.3552  0.0622
 4161TIP3    H133898   2.792   4.158  14.435 -1.9086 -0.3296  0.3464
 4161TIP3    H233899   2.788   4.304  14.474  0.1506 -0.2879  0.5178
 4162TIP3   OH233900   1.752   1.091  11.867  0.4249  0.0792 -0.0149
 4162TIP3    H133901   1.664   1.053  11.860  0.8215 -1.1145  1.2047
 4162TIP3    H233902   1.736   1.185  11.873 -0.8295 -0.1595  0.9257
 4163TIP3   OH233903   3.161   5.965  16.299 -0.1904 -0.0729  0.3680
 4163TIP3    H133904   3.217   5.999  16.229 -0.5690  1.8442  0.9193
 4163TIP3    H233905   3.167   6.031  16.368 -3.3304  0.4110  0.3347
 4164TIP3   OH233906   6.572   2.600  15.984 -0.1561  0.4523 -0.3771
 4164TIP3    H133907   6.548   2.604  15.892 -0.2956 -1.3758 -0.4554
 4164TIP3    H233908   6.608   2.512  15.996  0.5269  0.9046  1.1626
 4165TIP3   OH233909   1.985   5.215  15.057  0.1769  0.2879 -0.4364
 4165TIP3    H133910   1.962   5.148  15.120 -0.5900  1.7386  0.9017
 4165TIP3    H233911   1.963   5.177  14.972 -0.9169 -0.8665  0.3337
 4166TIP3   OH233912   0.574   6.447   3.022  0.3091  0.1555  0.0082
 4166TIP3    H133913   0.634   6.434   3.096  0.6742  0.3575 -0.2462
 4166TIP3    H233914   0.578   6.541   3.005 -2.0059  0.6347  1.5951
 4167TIP3   OH233915   5.405   4.557  13.465  0.2116  0.1341  0.1882
 4167TIP3    H133916   5.444   4.527  13.383  4.3539 -1.5909  2.4848
 4167TIP3    H233917   5.345   4.487  13.490 -0.3299  0.2026 -0.8784
 4168TIP3   OH233918   6.428   0.906  11.998 -0.0977  0.0709 -0.7066
 4168TIP3    H133919   6.452   0.877  12.086  1.3738 -2.1274 -1.7535
 4168TIP3    H233920   6.353   0.853  11.974  1.4183 -1.6742 -1.8935
 4169TIP3   OH233921   0.921   4.008  14.162 -0.1450 -0.2312  0.3564
 4169TIP3    H133922   0.844   3.994  14.106 -0.3124  1.4452  0.1323
 4169TIP3    H233923   0.987   3.949  14.127 -1.1523 -1.3097  0.2154
 4170TIP3   OH233924   1.993   2.727  16.559  0.3569  0.1268  0.0568
 4170TIP3    H133925   1.968   2.649  16.509  0.4270  1.0801 -1.5154
 4170TIP3    H233926   2.053   2.774  16.502 -0.9466  2.1593  0.2631
 4171TIP3   OH233927   5.096   5.441   4.457  0.4562 -0.1346 -0.6107
 4171TIP3    H133928   5.080   5.519   4.510  1.4668 -0.5618  0.3730
 4171TIP3    H233929   5.179   5.406   4.490  0.3377 -1.2743 -1.4528
 4172TIP3   OH233930   4.459   2.307   1.388  0.5942 -0.0581  0.1489
 4172TIP3    H133931   4.459   2.356   1.306 -1.1366  0.4342  0.4192
 4172TIP3    H233932   4.462   2.374   1.456  1.1697 -0.4376  0.5094
 4173TIP3   OH233933   4.226   4.674  12.397  0.0947  0.1020  0.2172
 4173TIP3    H133934   4.265   4.729  12.465  0.6563  0.0904 -0.0849
 4173TIP3    H233935   4.203   4.593  12.443 -0.7875  0.6020  0.6707
 4174TIP3   OH233936   2.092   6.475  15.003  0.2849  0.6204 -0.0899
 4174TIP3    H133937   2.099   6.550  14.945  1.2641  1.4645  1.0807
 4174TIP3    H233938   2.011   6.490  15.052  0.2351  0.6546 -0.1804
 4175TIP3   OH233939   5.482   1.970  11.877 -0.5095  0.0399 -0.2011
 4175TIP3    H133940   5.395   1.934  11.896 -0.1429 -0.5782  0.3227
 4175TIP3    H233941   5.471   2.065  11.883 -0.5705 -0.0676  2.5131
 4176TIP3   OH233942   5.371   4.942  13.737  0.5331 -0.0537 -0.2402
 4176TIP3    H133943   5.324   4.867  13.773  0.1377  0.3316  0.0589
 4176TIP3    H233944   5.374   4.925  13.643  1.4208 -0.9823 -0.0666
 4177TIP3   OH233945   3.995   0.302  11.394 -0.0295  0.2092 -0.0960
 4177TIP3    H133946   4.006   0.223  11.341  1.8920  1.6517 -2.0200
 4177TIP3    H233947   3.954   0.271  11.475  0.3602 -2.6901 -0.8941
 4178TIP3   OH233948   1.463   2.174  10.982  0.0936  0.2662  0.8871
 4178TIP3    H133949   1.534   2.238  10.988  1.8080 -1.2436 -1.5986
 4178TIP3    H233950   1.407   2.207  10.912  0.2036 -0.2342  0.5598
 4179TIP3   OH233951   5.752   5.513  15.687  0.6144 -0.2012  0.0550
 4179TIP3    H133952   5.839   5.525  15.651  0.8786  1.2678  1.1262
 4179TIP3    H233953   5.720   5.601  15.706 -2.3003 -0.3943 -2.9208
 4180TIP3   OH233954   2.469   0.084   5.399 -0.5002 -0.4338  0.2934
 4180TIP3    H133955   2.492   0.177   5.408 -0.8527 -0.2756 -0.4412
 4180TIP3    H233956   2.374   0.082   5.402 -0.4918 -0.7884  0.3887
 4181TIP3   OH233957   2.024   4.935  14.611 -0.9567 -0.3391 -0.4156
 4181TIP3    H133958   1.943   4.906  14.570 -1.6469 -1.1761  1.4139
 4181TIP3    H233959   2.054   4.859  14.662 -0.8447  0.9731  1.5936
 4182TIP3   OH233960   1.798   3.003  12.891 -0.1413  0.1095  0.0179
 4182TIP3    H133961   1.890   3.025  12.904 -0.4622  0.7022  1.4633
 4182TIP3    H233962   1.772   2.959  12.972 -0.9204 -0.8118 -0.7085
 4183TIP3   OH233963   1.117   6.010  16.856  0.2921 -0.7281  0.7442
 4183TIP3    H133964   1.142   6.102  16.862 -1.8587  0.0122 -0.4630
 4183TIP3    H233965   1.099   5.995  16.763 -0.3114 -2.0865  1.0438
 4184TIP3   OH233966   6.553   3.249  15.799 -0.0479  0.3501  1.0269
 4184TIP3    H133967   6.464   3.215  15.808  0.4256 -0.7678  1.7133
 4184TIP3    H233968   6.608   3.182  15.840  1.2541  0.3273 -0.6617
 4185TIP3   OH233969   3.762   6.459  16.161  0.0198  0.3429  0.3477
 4185TIP3    H133970   3.705   6.529  16.130  0.2592 -0.0291 -0.9937
 4185TIP3    H233971   3.710   6.414  16.228 -0.6508  0.9580  0.2519
 4186TIP3   OH233972   2.551   6.688  15.886 -0.2456  0.0520  0.0142
 4186TIP3    H133973   2.597   6.608  15.864 -0.7084  0.3359 -2.2189
 4186TIP3    H233974   2.602   6.727  15.957  2.3783 -0.1694 -1.6148
 4187TIP3   OH233975   4.308   1.055   3.998 -0.1637  0.1868 -0.5505
 4187TIP3    H133976   4.213   1.047   3.990 -0.3342  1.8368 -0.5713
 4187TIP3    H233977   4.336   1.088   3.913  0.5568 -1.0827 -0.8283
 4188TIP3   OH233978   5.827   2.103   1.698  0.6781 -0.2284  0.1134
 4188TIP3    H133979   5.792   2.034   1.641  1.4379 -0.4649 -0.0842
 4188TIP3    H233980   5.868   2.165   1.637  2.4809 -1.0452  0.4371
 4189TIP3   OH233981   0.287   1.515   0.873 -0.4136  0.0846  0.2848
 4189TIP3    H133982   0.207   1.567   0.880 -1.4893 -1.5631  0.6970
 4189TIP3    H233983   0.331   1.526   0.957 -0.7914  0.0833  0.4809
 4190TIP3   OH233984   6.724   2.792  15.570 -0.3582 -0.8734  0.2411
 4190TIP3    H133985   6.766   2.725  15.625  0.4159 -1.3616 -0.9135
 4190TIP3    H233986   6.740   2.764  15.480  3.1794  2.5692 -0.5327
 4191TIP3   OH233987   3.152   6.332  12.483 -0.3456 -0.6022 -0.1084
 4191TIP3    H133988   3.230   6.357  12.433  0.4844  0.5334  1.6538
 4191TIP3    H233989   3.081   6.381  12.441  0.1124 -0.6131 -0.9210
 4192TIP3   OH233990   5.865   1.515   6.182  0.3001  0.1179 -0.0754
 4192TIP3    H133991   5.909   1.578   6.240 -2.9205  1.3041  1.2740
 4192TIP3    H233992   5.920   1.436   6.186  2.1231  1.3846  1.6455
 4193TIP3   OH233993   3.466   2.812  16.286 -0.3660  1.0242  0.2152
 4193TIP3    H133994   3.466   2.841  16.195 -2.9913 -0.6802 -0.4452
 4193TIP3    H233995   3.520   2.733  16.287 -1.4329  0.2649 -0.2124
 4194TIP3   OH233996   4.859   6.063  13.520 -0.6191 -0.2503 -0.1348
 4194TIP3    H133997   4.861   6.095  13.610 -0.8271 -0.9237  0.1202
 4194TIP3    H233998   4.945   6.083  13.485  0.3903 -2.2005  1.0337
 4195TIP3   OH233999   1.702   1.264  14.396  0.0471  0.0931 -0.2856
 4195TIP3    H134000   1.796   1.283  14.387  0.2535 -0.3703  0.6866
 4195TIP3    H234001   1.666   1.341  14.439 -0.3139  0.8931 -1.9399
 4196TIP3   OH234002   0.549   2.802   5.071  0.9340  0.5513 -0.2912
 4196TIP3    H134003   0.600   2.741   5.019  0.9490  0.9315 -0.7268
 4196TIP3    H234004   0.458   2.784   5.048  0.7115 -1.2823  1.7253
 4197TIP3   OH234005   5.815   6.679  13.664  0.2309 -0.5982 -0.4623
 4197TIP3    H134006   5.820   6.626  13.584 -1.4122  0.8000 -1.5996
 4197TIP3    H234007   5.757   6.630  13.722 -1.3320 -0.1231 -1.5312
 4198TIP3   OH234008   2.890   4.408   5.679  0.0064 -0.1879 -0.7347
 4198TIP3    H134009   2.915   4.499   5.693 -0.9521 -0.0924  0.5468
 4198TIP3    H234010   2.808   4.413   5.629 -0.7675 -0.2754  0.4823
 4199TIP3   OH234011   5.863   1.358  14.260 -0.4439  0.4341  0.1790
 4199TIP3    H134012   5.822   1.279  14.295 -1.1718  0.0237 -1.5392
 4199TIP3    H234013   5.796   1.399  14.207 -0.2571  2.5374  1.4292
 4200TIP3   OH234014   5.114   1.827   4.990 -0.5820 -0.3594 -0.2958
 4200TIP3    H134015   5.147   1.847   4.902  0.9175 -0.7403  0.1497
 4200TIP3    H234016   5.144   1.738   5.007 -3.9254 -1.7441 -0.7604
 4201TIP3   OH234017   5.717   6.168   5.772 -0.5381  0.0989 -0.4926
 4201TIP3    H134018   5.641   6.116   5.797 -1.3134  1.8998  1.1303
 4201TIP3    H234019   5.740   6.216   5.851  1.6825  0.3721 -1.2364
 4202TIP3   OH234020   6.717   4.200  13.764 -0.6502  0.7578 -0.1377
 4202TIP3    H134021   6.633   4.154  13.757 -1.4362  1.8763  1.3655
 4202TIP3    H234022   6.782   4.129  13.771 -1.6559 -0.1369  0.5465
 4203TIP3   OH234023   6.084   3.659  10.916 -0.3390  0.0621 -0.5244
 4203TIP3    H134024   6.049   3.600  10.850  0.5803  1.9533 -2.8472
 4203TIP3    H234025   6.039   3.742  10.899 -1.1636  0.2900  2.2566
 4204TIP3   OH234026   5.041   2.306  15.758  0.2043 -0.1727  0.1650
 4204TIP3    H134027   5.064   2.369  15.689  2.5947 -0.7971  0.3029
 4204TIP3    H234028   5.090   2.227  15.736 -0.7613 -1.1442  1.3677
 4205TIP3   OH234029   2.735   1.988   5.142  0.2044  0.3867  0.0216
 4205TIP3    H134030   2.719   1.920   5.208  0.6917  0.6191  0.3913
 4205TIP3    H234031   2.828   1.981   5.123  0.3499  1.2231  0.3780
 4206TIP3   OH234032   0.090   5.029  12.870  0.1864  0.0076  0.3921
 4206TIP3    H134033   0.105   5.025  12.965 -1.3502  1.2104  0.7261
 4206TIP3    H234034   0.158   5.087  12.837  0.3159  0.1337  0.8741
 4207TIP3   OH234035   4.250   2.882   4.905 -0.2615 -0.2526  0.5378
 4207TIP3    H134036   4.344   2.894   4.914 -0.5736  1.4320  2.1860
 4207TIP3    H234037   4.235   2.880   4.810  1.3516  0.0786  0.2486
 4208TIP3   OH234038   1.664   2.510  12.163  0.0308  0.0622 -0.2578
 4208TIP3    H134039   1.615   2.527  12.243  0.8347 -0.7840  0.4376
 4208TIP3    H234040   1.665   2.595  12.117  1.1779  1.0891  1.5391
 4209TIP3   OH234041   1.898   2.137   4.407 -0.2329 -0.0711  0.5064
 4209TIP3    H134042   1.932   2.094   4.328 -2.0826 -1.2536  0.2925
 4209TIP3    H234043   1.841   2.071   4.447 -0.0773  0.8497  2.3359
 4210TIP3   OH234044   6.241   6.461   5.661  0.1066 -0.2011  0.1882
 4210TIP3    H134045   6.266   6.369   5.656  0.5363 -0.0953  0.3384
 4210TIP3    H234046   6.249   6.482   5.754 -0.1436 -0.0530  0.1771
 4211TIP3   OH234047   1.654   0.057  11.247 -0.1769  0.4358 -0.1393
 4211TIP3    H134048   1.717   0.035  11.316  0.6165  0.8767 -0.7116
 4211TIP3    H234049   1.707   0.085  11.174 -1.0125 -0.0196 -0.9480
 4212TIP3   OH234050   1.158   6.008  12.139 -0.7015  0.5702 -0.1723
 4212TIP3    H134051   1.078   5.963  12.112 -0.0911 -0.2511 -0.6557
 4212TIP3    H234052   1.132   6.099  12.151 -1.6132  0.3884 -0.7284
 4213TIP3   OH234053   1.569   6.002  11.750  0.1392  0.1394 -1.0719
 4213TIP3    H134054   1.657   6.028  11.777  0.0591 -0.5362 -0.0972
 4213TIP3    H234055   1.516   6.014  11.829 -1.0095  2.0793 -2.0502
 4214TIP3   OH234056   4.731   0.435   4.463  0.0082  0.4880 -0.2188
 4214TIP3    H134057   4.642   0.428   4.430 -0.5657 -0.9388  1.4817
 4214TIP3    H234058   4.786   0.415   4.387 -1.1857 -0.6555 -0.8262
 4215TIP3   OH234059   6.367   4.842  16.151 -0.4668 -0.5965 -0.0291
 4215TIP3    H134060   6.332   4.930  16.165 -2.2354 -1.6416  3.2254
 4215TIP3    H234061   6.329   4.814  16.068 -1.3845  1.0318 -0.1943
 4216TIP3   OH234062   5.187   0.675  12.876 -0.0802 -0.1959  0.3022
 4216TIP3    H134063   5.163   0.760  12.913  0.3938 -0.3025  0.8684
 4216TIP3    H234064   5.124   0.660  12.806  1.4648  1.8740 -1.6480
 4217TIP3   OH234065   0.143   5.349  12.388  0.4931 -0.1112 -0.0821
 4217TIP3    H134066   0.096   5.424  12.426 -0.7800  0.5359 -2.6977
 4217TIP3    H234067   0.232   5.357  12.422  0.0078  1.7355  0.9008
 4218TIP3   OH234068   4.107   1.337   4.465 -0.4673 -0.4290  0.0760
 4218TIP3    H134069   4.195   1.314   4.436 -0.8532 -0.4464 -1.1605
 4218TIP3    H234070   4.096   1.291   4.548  0.9331  0.1497  0.6048
 4219TIP3   OH234071   2.359   1.460  11.329 -0.3905 -0.1639 -0.0613
 4219TIP3    H134072   2.432   1.432  11.274 -0.1496  2.0757 -1.0173
 4219TIP3    H234073   2.374   1.554  11.342 -1.4432 -0.2428  2.3482
 4220TIP3   OH234074   4.130   2.445  11.849  0.1552  0.7431 -0.2629
 4220TIP3    H134075   4.151   2.409  11.762  0.3962  0.6646 -0.1757
 4220TIP3    H234076   4.180   2.526  11.854  1.2799  0.0423  0.3489
 4221TIP3   OH234077   2.922   3.036  11.397  0.7454 -0.3141 -0.3272
 4221TIP3    H134078   2.913   3.037  11.301 -1.2524  2.3476 -0.2298
 4221TIP3    H234079   2.921   2.944  11.420  1.5756 -1.0588 -2.8754
 4222TIP3   OH234080   6.306   2.585  16.926 -0.1942  0.3687  0.2687
 4222TIP3    H134081   6.400   2.575  16.913 -0.2180 -1.7045  1.1752
 4222TIP3    H234082   6.268   2.566  16.840  0.1817  0.3328  0.1073
 4223TIP3   OH234083   3.938   0.121   0.926  0.0144  0.0138 -0.2646
 4223TIP3    H134084   3.880   0.060   0.971  0.2366 -0.2038 -0.2721
 4223TIP3    H234085   3.926   0.101   0.833 -0.1033  0.1559 -0.2812
 4224TIP3   OH234086   6.106   0.465  13.773 -0.2524 -0.3130 -0.0859
 4224TIP3    H134087   6.159   0.543  13.793 -2.7056  0.8724  2.4123
 4224TIP3    H234088   6.136   0.400  13.836  1.0574 -1.1258 -1.4775
 4225TIP3   OH234089   6.288   2.234   5.441 -0.0916  0.2539  0.1865
 4225TIP3    H134090   6.312   2.324   5.418 -0.4444  0.2877 -0.0471
 4225TIP3    H234091   6.249   2.242   5.528  0.6606  0.2077  0.5417
 4226TIP3   OH234092   5.487   0.035   2.551  0.0012 -0.1473  0.2006
 4226TIP3    H134093   5.486   0.011   2.458  0.7088 -0.1341  0.1889
 4226TIP3    H234094   5.399   0.011   2.582 -0.4204  0.3302 -0.5842
 4227TIP3   OH234095   5.812   3.955   2.824  0.2061 -0.0342 -1.0398
 4227TIP3    H134096   5.787   3.862   2.826  0.0552 -0.0045 -1.4023
 4227TIP3    H234097   5.741   3.998   2.777 -0.1198  0.3987 -0.1756
 4228TIP3   OH234098   4.508   5.394  11.204 -0.1756  0.3713 -0.1258
 4228TIP3    H134099   4.427   5.395  11.155 -0.1940  1.7826 -0.0868
 4228TIP3    H234100   4.561   5.465  11.167  0.7956 -0.1281  0.2520
 4229TIP3   OH234101   5.595   2.908   6.030  0.7209  0.3322 -0.0959
 4229TIP3    H134102   5.543   2.968   6.083 -0.5112 -1.0638  0.3561
 4229TIP3    H234103   5.657   2.869   6.092  1.9146  1.5317 -0.5065
 4230TIP3   OH234104   2.716   1.056  13.160 -0.0687  0.7616 -0.0463
 4230TIP3    H134105   2.703   0.994  13.231  0.6650 -0.7349 -1.1553
 4230TIP3    H234106   2.796   1.026  13.116  0.2305  2.4108 -0.7199
 4231TIP3   OH234107   1.416   3.698  11.535 -0.6496 -0.0464  0.1706
 4231TIP3    H134108   1.395   3.636  11.605  0.4778  0.3783  0.9189
 4231TIP3    H234109   1.463   3.646  11.470 -0.5111 -0.1561  0.3602
 4232TIP3   OH234110   0.440   4.441  11.753 -0.0112  0.1641 -0.2378
 4232TIP3    H134111   0.409   4.523  11.713  0.8576  0.3976 -0.4568
 4232TIP3    H234112   0.502   4.406  11.689 -1.1666 -1.2347 -0.6388
 4233TIP3   OH234113   4.533   3.868  14.487  0.3362 -0.8247  0.4877
 4233TIP3    H134114   4.446   3.870  14.449  0.1380  1.6030  0.8977
 4233TIP3    H234115   4.518   3.848  14.580  0.2677 -0.8545  0.4702
 4234TIP3   OH234116   4.100   2.898   5.204 -0.1214 -0.4260 -0.1040
 4234TIP3    H134117   4.106   2.839   5.129  0.4823 -0.9598  0.3532
 4234TIP3    H234118   4.122   2.843   5.280 -0.1167  0.2489  0.3980
 4235TIP3   OH234119   5.882   3.372   5.745 -0.0447  0.0952 -0.0975
 4235TIP3    H134120   5.906   3.431   5.816  0.5400 -0.3129  0.0496
 4235TIP3    H234121   5.905   3.420   5.665 -0.7677  0.5824 -0.0215
 4236TIP3   OH234122   0.984   5.022  13.977 -0.6844 -0.2578  0.6302
 4236TIP3    H134123   1.001   5.108  13.940 -2.5021  0.8582  2.1565
 4236TIP3    H234124   0.985   4.962  13.903 -0.5679  1.2728 -0.6441
 4237TIP3   OH234125   4.749   5.331  15.781 -0.0366  0.1271 -0.6532
 4237TIP3    H134126   4.740   5.256  15.841  0.5894  1.7229  1.5546
 4237TIP3    H234127   4.781   5.292  15.700  0.2871 -2.0159  0.4144
 4238TIP3   OH234128   4.559   3.298  13.513 -0.1146  0.3549  0.5772
 4238TIP3    H134129   4.616   3.246  13.570  0.6116  1.4454  0.8798
 4238TIP3    H234130   4.498   3.341  13.572 -0.9666 -0.4316  0.2933
 4239TIP3   OH234131   6.446   3.077   0.913  0.4868 -0.7092 -0.3627
 4239TIP3    H134132   6.377   3.012   0.900 -0.9860  0.6910  0.1693
 4239TIP3    H234133   6.440   3.100   1.006  0.2731  0.9349 -0.7553
 4240TIP3   OH234134   3.596   0.952   4.562 -0.0682 -0.4550 -0.4295
 4240TIP3    H134135   3.635   1.037   4.583  0.2718 -0.4413 -1.0771
 4240TIP3    H234136   3.507   0.958   4.597  0.0478  0.0552 -0.2041
 4241TIP3   OH234137   0.376   2.996   3.386  0.8173 -0.2538  0.0845
 4241TIP3    H134138   0.406   2.952   3.307 -0.3981 -0.4342 -0.2975
 4241TIP3    H234139   0.316   3.064   3.354  0.7839  0.0715  0.8141
 4242TIP3   OH234140   6.649   0.900  14.143 -0.1121 -0.3770  0.0775
 4242TIP3    H134141   6.643   0.830  14.208 -2.7036 -1.3421 -1.0927
 4242TIP3    H234142   6.703   0.864  14.073 -0.0640 -0.5693  0.2137
 4243TIP3   OH234143   6.490   4.594  16.161 -0.2328 -0.1812 -0.3950
 4243TIP3    H134144   6.443   4.533  16.218  0.1080  0.3455  0.4792
 4243TIP3    H234145   6.445   4.678  16.174  0.7170  0.2574  0.2057
 4244TIP3   OH234146   0.541   5.100   4.538 -0.2118  0.4283 -0.5517
 4244TIP3    H134147   0.517   5.049   4.460 -0.7441 -1.4909  0.7900
 4244TIP3    H234148   0.627   5.136   4.518 -0.7849  0.8519 -2.4108
 4245TIP3   OH234149   1.066   4.935  11.796  0.4189  0.5099 -0.7683
 4245TIP3    H134150   1.093   4.962  11.883 -1.0484  0.4545 -0.2632
 4245TIP3    H234151   1.142   4.890  11.759  0.4989 -1.0860  1.1805
 4246TIP3   OH234152   1.871   6.644   1.700 -0.4593 -0.4350 -0.5453
 4246TIP3    H134153   1.855   6.728   1.743 -1.8486 -0.4652 -0.9359
 4246TIP3    H234154   1.900   6.666   1.612  1.7761 -0.3769  0.1589
 4247TIP3   OH234155   1.674   3.066   0.424  0.2931 -0.0138  0.2674
 4247TIP3    H134156   1.708   3.018   0.349 -0.1115  0.8366 -0.4832
 4247TIP3    H234157   1.621   3.002   0.472  0.3724 -0.5077 -0.2960
 4248TIP3   OH234158   1.767   4.793   1.751  0.5900 -0.1756  0.1376
 4248TIP3    H134159   1.842   4.735   1.737  0.4930 -0.3107  0.1782
 4248TIP3    H234160   1.695   4.735   1.774  0.7022  0.0184  1.0412
 4249TIP3   OH234161   2.514   5.495  15.661 -0.2773 -0.0399  0.3032
 4249TIP3    H134162   2.507   5.435  15.587 -0.4805  0.7417 -0.3234
 4249TIP3    H234163   2.528   5.581  15.621 -1.4179  0.5517  1.1187
 4250TIP3   OH234164   1.785   6.695   1.061 -0.2376 -0.0214 -0.3384
 4250TIP3    H134165   1.743   6.613   1.034 -1.4486  0.4648 -0.0353
 4250TIP3    H234166   1.846   6.715   0.991 -1.1759 -0.3100 -1.2626
 4251TIP3   OH234167   4.515   0.406  12.598 -0.0412 -0.3891  0.3567
 4251TIP3    H134168   4.478   0.436  12.681 -0.3047 -2.0845  0.8886
 4251TIP3    H234169   4.571   0.333  12.621  0.0392 -0.7694 -0.9354
 4252TIP3   OH234170   1.180   1.553  11.885  0.2736 -0.1350  0.4340
 4252TIP3    H134171   1.217   1.628  11.838  0.5138 -1.0509 -0.9029
 4252TIP3    H234172   1.089   1.577  11.901 -1.3176 -1.4782 -4.7056
 4253TIP3   OH234173   4.549   3.709  13.331 -0.2927  0.3903 -0.4979
 4253TIP3    H134174   4.497   3.739  13.405  0.8428  0.6878  0.2026
 4253TIP3    H234175   4.501   3.633  13.297 -1.4433  0.9605 -0.2109
 4254TIP3   OH234176   0.433   0.388  15.745 -0.6456  0.0241  0.1531
 4254TIP3    H134177   0.356   0.333  15.761 -0.1217 -0.3076  1.6523
 4254TIP3    H234178   0.506   0.339  15.783  0.1530  0.8032 -0.3452
 4255TIP3   OH234179   3.702   0.946  13.506  0.1657 -0.2813  0.2477
 4255TIP3    H134180   3.755   1.016  13.546  0.4771 -1.8541  2.7928
 4255TIP3    H234181   3.638   0.993  13.452  0.0615  2.0305  2.1938
 4256TIP3   OH234182   0.065   4.363   2.103 -0.3254 -0.4645  0.0180
 4256TIP3    H134183   0.012   4.423   2.051 -0.5916 -0.8780 -0.1963
 4256TIP3    H234184   0.140   4.343   2.047 -0.1041 -0.1341  0.1919
 4257TIP3   OH234185   3.358   1.028   1.828  0.7212  0.3235 -0.2658
 4257TIP3    H134186   3.285   1.014   1.769  2.5745 -2.1087 -2.2045
 4257TIP3    H234187   3.337   0.976   1.906 -0.8260  1.9518  0.4688
 4258TIP3   OH234188   3.418   4.965   1.488 -0.4955 -0.8045 -0.2262
 4258TIP3    H134189   3.420   5.060   1.484 -2.0010 -0.7142  0.4803
 4258TIP3    H234190   3.423   4.937   1.397 -2.2958  0.0353 -0.6137
 4259TIP3   OH234191   1.754   2.193   1.321 -0.0032 -0.4114 -0.4767
 4259TIP3    H134192   1.737   2.282   1.290  1.7930  0.4515  0.8746
 4259TIP3    H234193   1.667   2.154   1.331 -0.8116  1.0588 -1.3958
 4260TIP3   OH234194   5.122   6.676  14.255 -0.2789  0.1513  0.3503
 4260TIP3    H134195   5.163   6.591  14.242 -1.6603 -0.4317 -0.3694
 4260TIP3    H234196   5.053   6.680  14.189 -1.7703  0.8400  1.8657
 4261TIP3   OH234197   3.828   2.798  14.733  0.2091 -0.4548  0.1046
 4261TIP3    H134198   3.858   2.798  14.824 -0.7486 -0.0997  0.4267
 4261TIP3    H234199   3.754   2.858  14.731 -1.1519 -2.0529 -0.4541
 4262TIP3   OH234200   1.058   6.450  12.482  0.4173 -0.3555  0.3663
 4262TIP3    H134201   1.046   6.438  12.388  0.6558  0.2122  0.2576
 4262TIP3    H234202   1.146   6.414  12.500  0.6515  0.1489  0.2479
 4263TIP3   OH234203   4.858   1.790   3.713  0.0155  0.2919  0.1505
 4263TIP3    H134204   4.882   1.876   3.678  0.0669 -0.2366 -1.1695
 4263TIP3    H234205   4.778   1.806   3.763 -0.3170  1.0123 -0.5795
 4264TIP3   OH234206   5.558   6.403  15.170 -0.0806 -0.4852 -0.0603
 4264TIP3    H134207   5.519   6.468  15.111  1.8092  1.7840  1.0334
 4264TIP3    H234208   5.516   6.419  15.255  0.9136 -0.1578  0.3870
 4265TIP3   OH234209   4.351   6.623  15.887 -0.9061 -0.0224  0.1776
 4265TIP3    H134210   4.307   6.675  15.954 -0.6709 -0.6645  0.8331
 4265TIP3    H234211   4.302   6.643  15.807 -1.0872  0.8730  0.4949
 4266TIP3   OH234212   0.273   3.604  14.143 -0.6441  0.2288  0.7345
 4266TIP3    H134213   0.339   3.537  14.157 -0.9040 -0.0202  0.7903
 4266TIP3    H234214   0.256   3.640  14.230 -1.8479 -0.9264  1.0271
 4267TIP3   OH234215   1.239   3.466  16.356  0.1580  0.1051 -0.3845
 4267TIP3    H134216   1.174   3.463  16.426  1.2897 -2.5381  0.7080
 4267TIP3    H234217   1.194   3.430  16.279  0.1055 -1.1050  0.1945
 4268TIP3   OH234218   2.048   5.284  14.389 -0.1211  0.0179  0.1399
 4268TIP3    H134219   2.031   5.232  14.310  0.6621  0.2809 -0.2111
 4268TIP3    H234220   2.100   5.226  14.445 -0.6625 -0.1628  0.4628
 4269TIP3   OH234221   2.572   6.637  17.062  0.3154  0.3492  0.1626
 4269TIP3    H134222   2.639   6.617  16.996  0.2386  0.2432  0.1167
 4269TIP3    H234223   2.518   6.559  17.065 -0.2780  0.7308 -0.3648
 4270TIP3   OH234224   1.142   5.276   5.732  0.0294  0.0053 -0.1854
 4270TIP3    H134225   1.197   5.353   5.716 -0.2584  0.2745  0.1007
 4270TIP3    H234226   1.079   5.275   5.660 -0.2301  0.2756  0.0385
 4271TIP3   OH234227   5.263   4.004  10.204 -0.2038  0.0247 -0.0533
 4271TIP3    H134228   5.178   4.046  10.191  0.2355  0.8606 -0.2606
 4271TIP3    H234229   5.254   3.957  10.288 -0.6989  0.5453  0.1870
 4272TIP3   OH234230   5.551   5.209   1.683 -0.1184 -0.0236  0.7571
 4272TIP3    H134231   5.481   5.209   1.618 -1.2907 -0.2768  1.9610
 4272TIP3    H234232   5.510   5.244   1.762  0.9761 -0.6861  1.6545
 4273TIP3   OH234233   2.165   2.690   2.877 -0.0020  0.2581 -0.0495
 4273TIP3    H134234   2.142   2.632   2.804 -0.4111 -0.8635  0.9324
 4273TIP3    H234235   2.252   2.722   2.855  0.1597 -0.5985 -0.7300
 4274TIP3   OH234236   6.204   4.272   5.510 -0.2795  0.1375  0.5579
 4274TIP3    H134237   6.148   4.271   5.432 -0.5964  0.6685  0.7691
 4274TIP3    H234238   6.261   4.196   5.501  0.5678  0.8910 -0.8442
 4275TIP3   OH234239   0.824   4.086   0.705 -0.4831 -0.1283  0.1350
 4275TIP3    H134240   0.801   4.064   0.795 -2.4872  0.2626 -0.2314
 4275TIP3    H234241   0.805   4.006   0.656  2.0535 -0.8644  0.2026
 4276TIP3   OH234242   6.379   3.366  15.557 -0.1057  0.3452 -0.1591
 4276TIP3    H134243   6.340   3.317  15.629  0.4967  1.0647  0.6789
 4276TIP3    H234244   6.432   3.433  15.600  2.0291 -0.5505 -1.2236
 4277TIP3   OH234245   2.514   1.662   0.609 -0.3926 -0.1296 -0.1697
 4277TIP3    H134246   2.534   1.735   0.551 -0.8327 -1.6309 -2.3309
 4277TIP3    H234247   2.537   1.584   0.558 -0.7910 -1.5458  1.6978
 4278TIP3   OH234248   6.263   2.729   4.064 -0.0667 -0.4697  0.4961
 4278TIP3    H134249   6.312   2.798   4.109 -1.8474  1.5531 -0.4668
 4278TIP3    H234250   6.226   2.675   4.134  0.3259  0.2994  1.3119
 4279TIP3   OH234251   3.343   1.623   2.116  0.2250 -0.0830  0.6876
 4279TIP3    H134252   3.415   1.672   2.075 -1.8702  0.5439 -2.5694
 4279TIP3    H234253   3.276   1.688   2.133 -0.0478 -0.8261  2.7248
 4280TIP3   OH234254   6.561   0.245  12.351 -0.5409  0.5069  0.3205
 4280TIP3    H134255   6.618   0.259  12.427 -0.1352 -1.4725  0.4263
 4280TIP3    H234256   6.473   0.256  12.385 -0.4474 -1.9051  1.5120
 4281TIP3   OH234257   1.684   2.435  15.055 -0.4025  0.9407 -0.1160
 4281TIP3    H134258   1.717   2.516  15.019 -0.8667  0.2027 -2.3581
 4281TIP3    H234259   1.712   2.367  14.993 -0.0732 -0.6432  1.6355
 4282TIP3   OH234260   2.691   2.219  14.648 -0.0003 -0.9292  0.7984
 4282TIP3    H134261   2.718   2.206  14.739  0.5635 -0.5750  0.6868
 4282TIP3    H234262   2.773   2.236  14.601 -0.2896 -1.0776  0.2296
 4283TIP3   OH234263   4.984   4.106  12.020  0.5854  0.3595 -0.2927
 4283TIP3    H134264   5.052   4.154  11.971  0.3358  1.1920  0.1474
 4283TIP3    H234265   5.000   4.131  12.111 -0.4387  0.7251 -0.2096
 4284TIP3   OH234266   4.498   4.385  12.358 -0.3289 -0.7198  0.0990
 4284TIP3    H134267   4.471   4.463  12.405  1.8586  0.4456 -0.4432
 4284TIP3    H234268   4.482   4.405  12.266 -0.2831 -1.1470 -0.0041
 4285TIP3   OH234269   0.714   1.602   1.394 -0.1444  0.4427  0.2212
 4285TIP3    H134270   0.768   1.588   1.472 -0.9705  2.9420  1.3074
 4285TIP3    H234271   0.727   1.522   1.342  1.6367 -0.6284  2.1665
 4286TIP3   OH234272   0.142   0.435   0.273  0.6993  0.1298  0.3291
 4286TIP3    H134273   0.072   0.482   0.227 -0.2968 -1.7926 -0.1932
 4286TIP3    H234274   0.144   0.475   0.360 -0.3781  0.8560  0.0453
 4287TIP3   OH234275   1.163   1.889  11.395 -0.0570  0.1496  0.1281
 4287TIP3    H134276   1.085   1.886  11.451 -0.3105  1.0948 -0.1539
 4287TIP3    H234277   1.236   1.872  11.455 -0.4963 -1.2239  0.3111
 4288TIP3   OH234278   4.734   6.108  14.663 -0.0768  0.5048 -0.0728
 4288TIP3    H134279   4.655   6.076  14.708  0.3677 -0.9494 -0.2869
 4288TIP3    H234280   4.701   6.142  14.580 -0.6724  1.4521  0.5329
 4289TIP3   OH234281   6.085   1.045  13.973  0.0769 -0.2190  0.1060
 4289TIP3    H134282   6.018   0.978  13.983  0.7663 -0.7602  1.4316
 4289TIP3    H234283   6.044   1.125  14.006 -0.3952 -0.2163 -0.4755
 4290TIP3   OH234284   0.245   5.700  16.953 -0.1879  0.2069  0.0180
 4290TIP3    H134285   0.221   5.743  16.871 -0.0102 -1.0667 -0.7262
 4290TIP3    H234286   0.339   5.718  16.963  0.7104 -2.6634 -2.0373
 4291TIP3   OH234287   6.218   3.295  12.419  0.2690 -0.0257 -0.3197
 4291TIP3    H134288   6.165   3.317  12.496  0.6206 -1.6534  0.4280
 4291TIP3    H234289   6.165   3.231  12.371  0.3785  0.4206 -1.0529
 4292TIP3   OH234290   0.269   6.011  15.820  0.2898  0.1771 -0.1566
 4292TIP3    H134291   0.295   5.968  15.901  0.1733 -1.8057 -1.1007
 4292TIP3    H234292   0.351   6.020  15.771 -0.0616 -2.0288 -1.2912
 4293TIP3   OH234293   4.599   5.482  12.095 -0.0056 -0.6866  0.4436
 4293TIP3    H134294   4.619   5.396  12.058  2.1758  0.4427 -1.2107
 4293TIP3    H234295   4.657   5.491  12.170  1.4177  0.1579 -0.7061
 4294TIP3   OH234296   2.074   1.835   2.411 -0.1349  0.0230 -1.0813
 4294TIP3    H134297   2.010   1.801   2.473  0.7063  0.2873 -0.0491
 4294TIP3    H234298   2.057   1.929   2.407 -0.3239 -0.0227 -1.4275
 4295TIP3   OH234299   2.349   2.022  11.902 -0.0420  0.1579  0.5594
 4295TIP3    H134300   2.426   2.012  11.958 -0.1626  2.4498  1.2096
 4295TIP3    H234301   2.279   1.978  11.950  0.1305  1.0348  1.6448
 4296TIP3   OH234302   2.755   0.317  14.201  0.2829  0.9296 -0.0869
 4296TIP3    H134303   2.716   0.248  14.148 -0.2110  0.5078  0.8129
 4296TIP3    H234304   2.836   0.279  14.235  0.1624  0.8923  0.1628
 4297TIP3   OH234305   5.766   0.452   3.203  0.1024 -0.5894  0.0286
 4297TIP3    H134306   5.821   0.450   3.281  0.1601 -0.8963 -0.0204
 4297TIP3    H234307   5.699   0.386   3.218 -0.7845  0.3853  0.4629
 4298TIP3   OH234308   4.906   2.403  16.109  0.2019 -0.3639  0.0711
 4298TIP3    H134309   4.869   2.315  16.117 -0.5475  0.0643  1.4824
 4298TIP3    H234310   4.831   2.458  16.085  0.0249  0.3669  2.1266
 4299TIP3   OH234311   0.470   1.925  16.974 -0.4157  0.0872  0.4393
 4299TIP3    H134312   0.463   2.015  16.942  0.7311 -0.2900 -1.0191
 4299TIP3    H234313   0.473   1.872  16.894 -0.6764 -1.2102  1.2696
 4300TIP3   OH234314   1.217   3.203  17.345 -0.2907  0.4287 -0.1611
 4300TIP3    H134315   1.196   3.292  17.375 -1.4284  0.1194  0.0133
 4300TIP3    H234316   1.288   3.174  17.403 -0.0254  1.1522 -0.1104
 4301TIP3   OH234317   3.388   5.533   3.104 -0.0524  0.0899  0.4590
 4301TIP3    H134318   3.433   5.520   3.187 -1.4893  1.8296  1.5852
 4301TIP3    H234319   3.427   5.612   3.067  0.5419 -0.6428 -0.5368
 4302TIP3   OH234320   2.162   5.848  15.868  0.3805  0.5214  0.2189
 4302TIP3    H134321   2.199   5.837  15.780 -0.5217  1.1643 -0.2545
 4302TIP3    H234322   2.121   5.764  15.887  1.8210 -0.1124  0.6396
 4303TIP3   OH234323   5.800   3.781   0.303  0.0572 -0.2620  0.5308
 4303TIP3    H134324   5.724   3.743   0.259  1.0349 -0.6334 -0.8963
 4303TIP3    H234325   5.817   3.723   0.378  0.3053 -1.5034 -0.4616
 4304TIP3   OH234326   6.163   0.924   5.936 -0.6505 -0.2646  0.0645
 4304TIP3    H134327   6.192   0.932   6.027 -1.6232 -2.0662  0.5634
 4304TIP3    H234328   6.242   0.944   5.885 -0.4905  2.5164  1.1885
 4305TIP3   OH234329   5.563   4.877   3.959 -0.1268 -0.3543  0.0449
 4305TIP3    H134330   5.620   4.805   3.935 -0.8817 -0.0349 -3.1580
 4305TIP3    H234331   5.621   4.943   3.998  1.1930 -1.1861 -0.4681
 4306TIP3   OH234332   0.295   4.102  11.647 -0.1897  0.5418  0.3150
 4306TIP3    H134333   0.379   4.148  11.654 -0.0989  0.3189  0.7246
 4306TIP3    H234334   0.316   4.011  11.666 -0.1870  0.1229 -1.4873
 4307TIP3   OH234335   5.887   1.002  12.378 -0.3287 -0.4097 -0.4176
 4307TIP3    H134336   5.894   1.054  12.458  0.5161 -0.4631 -0.4441
 4307TIP3    H234337   5.851   0.918  12.407 -1.8038  0.2066 -0.3917
 4308TIP3   OH234338   5.090   3.856  15.500  0.1962 -0.0176  0.1477
 4308TIP3    H134339   5.125   3.876  15.587  1.1509 -0.0018 -0.2247
 4308TIP3    H234340   4.996   3.868  15.508  0.4180  1.5499  0.7805
 4309TIP3   OH234341   5.385   6.680  17.130  0.0052 -0.0361 -0.2255
 4309TIP3    H134342   5.345   6.754  17.085 -2.0462 -0.9506 -0.0183
 4309TIP3    H234343   5.476   6.707  17.145 -0.0658  1.5008 -2.1533
 4310TIP3   OH234344   0.158   1.271  11.813  0.5693  0.3389  0.1968
 4310TIP3    H134345   0.174   1.185  11.776 -1.3680  0.6119 -1.4669
 4310TIP3    H234346   0.196   1.332  11.749  0.2520  0.7538  0.3999
 4311TIP3   OH234347   0.221   4.676  12.999  0.5378  0.2671 -0.3026
 4311TIP3    H134348   0.128   4.662  13.017  0.5483 -0.6745 -0.9299
 4311TIP3    H234349   0.239   4.764  13.033 -0.1800 -0.1893  1.3152
 4312TIP3   OH234350   0.900   0.512   5.095  0.1223 -0.2408 -0.2283
 4312TIP3    H134351   0.962   0.505   5.168  0.7909  0.0569 -0.7503
 4312TIP3    H234352   0.814   0.508   5.135  0.4843 -0.6955  0.5166
 4313TIP3   OH234353   6.438   2.936  15.165 -0.0625 -0.0314  0.1997
 4313TIP3    H134354   6.470   2.887  15.090  0.1306  2.2734 -1.3327
 4313TIP3    H234355   6.514   2.986  15.195 -0.7997  1.2276  0.0748
 4314TIP3   OH234356   1.986   2.958  15.077 -0.4510  0.4412 -0.1951
 4314TIP3    H134357   2.006   3.011  15.000  0.6523 -0.1441 -0.3346
 4314TIP3    H234358   1.894   2.976  15.096 -0.4344  1.4299 -0.9873
 4315TIP3   OH234359   3.024   2.649   5.389 -0.0418  0.0590 -0.5728
 4315TIP3    H134360   2.980   2.574   5.429  0.7173  0.5578  1.3471
 4315TIP3    H234361   3.103   2.613   5.349 -0.3661 -0.3393 -0.8599
 4316TIP3   OH234362   6.750   3.364  11.627 -0.0703 -0.4071  0.3086
 4316TIP3    H134363   6.745   3.404  11.714  0.4762 -0.9745  0.6033
 4316TIP3    H234364   6.740   3.270  11.642 -3.2796 -0.3209 -0.5526
 4317TIP3   OH234365   5.623   4.139   1.086 -0.4252  0.2925  0.4657
 4317TIP3    H134366   5.568   4.091   1.149 -0.9733  0.2758 -0.0101
 4317TIP3    H234367   5.702   4.161   1.134 -0.4929 -0.4249  0.9261
 4318TIP3   OH234368   1.195   2.219  15.760 -0.6499  0.6103 -0.4974
 4318TIP3    H134369   1.149   2.250  15.682  0.6803 -0.1643 -1.6344
 4318TIP3    H234370   1.279   2.264  15.758 -0.3579  0.1079  0.1365
 4319TIP3   OH234371   1.578   4.824  16.012  0.4748  0.0818  0.6737
 4319TIP3    H134372   1.525   4.903  15.999 -0.5051 -0.5437  0.7721
 4319TIP3    H234373   1.542   4.783  16.091 -0.5278 -1.6011 -0.5702
 4320TIP3   OH234374   1.400   3.156  12.395 -0.2241 -0.2133  0.8299
 4320TIP3    H134375   1.467   3.222  12.410  0.6107 -0.9845  0.6377
 4320TIP3    H234376   1.329   3.178  12.455  0.4729  0.2680  1.4856
 4321TIP3   OH234377   1.396   6.666  15.338 -0.0350  0.0962  0.3406
 4321TIP3    H134378   1.475   6.637  15.384 -0.6184  0.3921  1.5529
 4321TIP3    H234379   1.342   6.707  15.405 -2.3304 -2.2420  0.0995
 4322TIP3   OH234380   5.753   0.447  10.864  0.1660  0.0063  0.1689
 4322TIP3    H134381   5.662   0.464  10.841  0.4292  0.1541 -0.8318
 4322TIP3    H234382   5.789   0.406  10.785  1.0203  0.1674  0.4724
 4323TIP3   OH234383   0.832   4.530   2.492 -0.2101 -0.2623  0.3257
 4323TIP3    H134384   0.857   4.443   2.523 -1.1897 -0.4880  0.4995
 4323TIP3    H234385   0.906   4.586   2.516 -0.1556 -0.7863  1.4316
 4324TIP3   OH234386   6.326   2.648   6.923  0.3095 -0.9458  0.2493
 4324TIP3    H134387   6.338   2.729   6.873  0.3628  0.4149  2.3476
 4324TIP3    H234388   6.412   2.607   6.925  0.4003 -0.8013 -0.3453
 4325TIP3   OH234389   5.040   1.249  11.985  0.1918 -0.6167  0.5829
 4325TIP3    H134390   5.133   1.269  11.999  0.4643 -1.5240  0.1629
 4325TIP3    H234391   5.028   1.257  11.890 -0.7647  1.9062  0.8538
 4326TIP3   OH234392   3.588   5.622  12.995 -0.3456 -0.2284 -0.3097
 4326TIP3    H134393   3.501   5.661  12.982  0.8812  3.0523  0.3524
 4326TIP3    H234394   3.606   5.635  13.088  1.3797  0.4708 -0.7094
 4327TIP3   OH234395   4.958   5.863  15.733  0.0355  0.4987 -0.2373
 4327TIP3    H134396   4.939   5.954  15.710  2.5607  0.7645 -1.6404
 4327TIP3    H234397   5.031   5.868  15.794 -0.0025 -0.5933 -0.0800
 4328TIP3   OH234398   1.327   3.025  16.281  0.2865  0.1555 -0.3297
 4328TIP3    H134399   1.365   2.982  16.357  1.3585  0.0627 -0.8991
 4328TIP3    H234400   1.244   2.980  16.267  1.2921 -1.6372 -0.7979
 4329TIP3   OH234401   1.492   6.048   5.472 -0.1784  0.7726 -1.0102
 4329TIP3    H134402   1.531   6.030   5.387 -2.5466  0.6965 -2.1599
 4329TIP3    H234403   1.399   6.060   5.454 -1.4045 -2.5138  1.9625
 4330TIP3   OH234404   0.078   2.018   5.275  0.1510  0.5407  0.2120
 4330TIP3    H134405   0.023   1.986   5.347 -0.7391 -0.9877 -1.0996
 4330TIP3    H234406   0.051   1.968   5.199  1.6818  1.5010 -1.0396
 4331TIP3   OH234407   4.271   1.801   6.440  0.6450  0.0820  0.0885
 4331TIP3    H134408   4.366   1.814   6.443  0.5770  0.8923 -0.7366
 4331TIP3    H234409   4.258   1.710   6.467  1.6155  0.0903  0.6447
 4332TIP3   OH234410   2.825   1.174  15.538 -0.0750 -0.0599 -0.0500
 4332TIP3    H134411   2.799   1.220  15.618 -1.4460 -0.7359 -0.0931
 4332TIP3    H234412   2.752   1.115  15.519  1.2343 -1.6097 -0.5041
 4333TIP3   OH234413   0.607   2.368  12.816 -0.1814  0.4130 -0.5703
 4333TIP3    H134414   0.607   2.463  12.825  1.7011  0.4098 -0.0703
 4333TIP3    H234415   0.652   2.336  12.895 -2.0105 -1.0124 -0.0137
 4334TIP3   OH234416   3.100   2.530   0.617 -0.7729  0.1831  0.4248
 4334TIP3    H134417   3.016   2.501   0.581 -0.2223 -1.1376  0.1453
 4334TIP3    H234418   3.125   2.461   0.678  1.3787 -0.8638 -1.4913
 4335TIP3   OH234419   2.351   3.815  14.302 -0.1106  0.2715 -0.7728
 4335TIP3    H134420   2.430   3.813  14.355  0.5431  0.3356 -1.7213
 4335TIP3    H234421   2.282   3.843  14.363  0.6864  0.7299 -0.0621
 4336TIP3   OH234422   6.101   1.969   6.497  0.0032 -0.1551 -0.5655
 4336TIP3    H134423   6.010   1.992   6.517  0.2529  0.3588  0.0312
 4336TIP3    H234424   6.131   1.921   6.575  0.2290 -0.3652 -0.7798
 4337TIP3   OH234425   0.267   3.786  17.151 -0.2868 -0.6856  0.0121
 4337TIP3    H134426   0.234   3.696  17.156  0.7818 -1.0413  2.7890
 4337TIP3    H234427   0.337   3.789  17.216  0.6928  1.7925 -1.0448
 4338TIP3   OH234428   0.197   1.926   4.559  0.3783  0.6392  0.6222
 4338TIP3    H134429   0.266   1.864   4.582 -0.1613  0.0630  0.6920
 4338TIP3    H234430   0.233   1.976   4.485  1.3481  1.1734  1.4221
 4339TIP3   OH234431   1.036   3.899  16.932  0.3514  0.2067 -0.5311
 4339TIP3    H134432   0.978   3.961  16.977 -0.4579 -0.9238  0.0474
 4339TIP3    H234433   1.117   3.947  16.919 -0.7419  1.8766 -1.4642
 4340TIP3   OH234434   3.630   0.950  16.964  0.0902 -0.0304 -0.0309
 4340TIP3    H134435   3.655   0.895  16.890  0.0324 -0.5604  0.3396
 4340TIP3    H234436   3.707   0.949  17.022  0.0902  0.2796 -0.0212
 4341TIP3   OH234437   6.372   2.668   5.163  0.2954  1.0577 -0.3263
 4341TIP3    H134438   6.328   2.636   5.083  1.5386  0.2871 -0.7285
 4341TIP3    H234439   6.456   2.700   5.132  1.7498 -1.2912  0.8900
 4342TIP3   OH234440   0.026   1.625   4.801  0.3653  0.2961 -0.0130
 4342TIP3    H134441  -0.049   1.584   4.758  0.7542  0.6556 -1.0446
 4342TIP3    H234442   0.050   1.563   4.870  1.7710 -1.9168 -2.3474
 4343TIP3   OH234443   0.767   2.743   6.322  0.1466  0.0512 -0.0712
 4343TIP3    H134444   0.841   2.683   6.311  1.2275  1.4501 -0.7178
 4343TIP3    H234445   0.772   2.771   6.414  0.2569 -0.0563 -0.0445
 4344TIP3   OH234446   1.313   5.129   3.524  0.1243  0.2663 -0.3406
 4344TIP3    H134447   1.330   5.176   3.443 -1.8170 -0.3190 -1.1373
 4344TIP3    H234448   1.219   5.136   3.537  0.3190 -0.0536  1.6390
 4345TIP3   OH234449   3.058   4.196  16.883 -0.3036  0.6952  0.5324
 4345TIP3    H134450   3.150   4.220  16.880  0.0647 -0.5014  1.4396
 4345TIP3    H234451   3.024   4.220  16.796  0.3754  2.8669  0.8233
 4346TIP3   OH234452   0.491   4.946   1.314 -0.0490 -0.1929 -0.3316
 4346TIP3    H134453   0.429   5.016   1.335  1.0916  0.3464  1.4538
 4346TIP3    H234454   0.466   4.917   1.227 -1.0049  1.9488 -0.8220
 4347TIP3   OH234455   5.219   2.934   2.286 -0.5254  0.5255  0.4236
 4347TIP3    H134456   5.198   3.013   2.235 -2.8693 -0.6870 -0.6455
 4347TIP3    H234457   5.134   2.895   2.305  0.5824 -2.0652  0.4221
 4348TIP3   OH234458   5.032   1.629  12.103  0.3160  0.2700 -0.3178
 4348TIP3    H134459   4.947   1.584  12.102  0.2217  0.4522 -1.1600
 4348TIP3    H234460   5.054   1.640  12.010 -0.1922  2.9380 -0.2008
 4349TIP3   OH234461   6.479   1.945  11.862  0.4711 -0.4170  0.6319
 4349TIP3    H134462   6.503   1.899  11.782  0.7101  1.7955 -0.6647
 4349TIP3    H234463   6.383   1.944  11.861  0.4421  0.4593 -0.2901
 4350TIP3   OH234464   3.151   5.245  16.583 -0.1571  0.1289 -0.1771
 4350TIP3    H134465   3.073   5.198  16.613 -1.1326  1.0098 -1.2598
 4350TIP3    H234466   3.214   5.176  16.563 -1.9287 -0.8838 -2.8010
 4351TIP3   OH234467   6.667   2.235   4.240 -0.1178 -0.9813 -0.3558
 4351TIP3    H134468   6.678   2.286   4.321  2.8264 -3.8563  1.2919
 4351TIP3    H234469   6.574   2.215   4.238 -0.1367 -1.9874  3.2438
 4352TIP3   OH234470   5.230   0.729  13.500 -0.1351  0.4993 -0.0586
 4352TIP3    H134471   5.230   0.725  13.404  1.4715  0.8168 -0.1090
 4352TIP3    H234472   5.143   0.699  13.526 -0.5128  0.1813 -1.6073
 4353TIP3   OH234473   0.342   4.096  14.007 -0.0976  0.2551  0.6666
 4353TIP3    H134474   0.294   4.166  13.965 -0.4275 -1.2742 -1.6950
 4353TIP3    H234475   0.428   4.097  13.965  0.0781 -0.4102  0.9922
 4354TIP3   OH234476   1.650   4.948  17.199 -0.2893  0.2671 -0.3529
 4354TIP3    H134477   1.710   4.892  17.150  0.7478  0.4657  0.6455
 4354TIP3    H234478   1.704   4.985  17.269 -1.8553 -0.5482  1.3740
 4355TIP3   OH234479   3.808   4.051  17.035  0.9105 -0.3909 -0.3170
 4355TIP3    H134480   3.758   4.040  16.954  0.5682 -0.9302 -0.0376
 4355TIP3    H234481   3.856   4.133  17.023 -0.3678  0.3688 -0.4148
 4356TIP3   OH234482   2.687   5.756   5.268  0.2296  0.3308 -0.2989
 4356TIP3    H134483   2.645   5.825   5.318  0.5682 -1.8609  3.3646
 4356TIP3    H234484   2.779   5.758   5.296  0.2986 -1.4001 -0.2980
 4357TIP3   OH234485   5.964   0.804   5.781 -0.1929  0.1447 -0.0244
 4357TIP3    H134486   6.033   0.847   5.833  1.8399 -1.0849 -1.5577
 4357TIP3    H234487   5.930   0.874   5.725 -0.7987  0.9494  1.2989
 4358TIP3   OH234488   1.461   4.082   3.967  0.1845 -0.0120 -0.3289
 4358TIP3    H134489   1.506   4.116   4.044 -0.6361 -1.2501  0.7404
 4358TIP3    H234490   1.471   3.987   3.975  0.3767 -0.1490 -1.9492
 4359TIP3   OH234491   2.324   1.833   1.945  0.3359  0.0328 -0.1564
 4359TIP3    H134492   2.358   1.756   1.990 -1.4589 -0.2613  0.7829
 4359TIP3    H234493   2.237   1.808   1.915 -0.7176  1.9742  1.0655
 4360TIP3   OH234494   0.194   5.222  15.161 -0.0340  0.3766 -0.1878
 4360TIP3    H134495   0.106   5.211  15.197 -0.0464  1.8703  0.3206
 4360TIP3    H234496   0.223   5.306  15.196  2.0426 -0.5917  0.5600
 4361TIP3   OH234497   3.628   2.736   0.854  0.0611 -0.1232  0.8416
 4361TIP3    H134498   3.631   2.826   0.886  1.0579  0.5065 -0.8983
 4361TIP3    H234499   3.583   2.688   0.924 -1.0041  1.7955  1.5787
 4362TIP3   OH234500   4.260   2.594  17.064  0.2574  0.1818 -0.1745
 4362TIP3    H134501   4.263   2.498  17.068 -0.4956  0.0675 -1.7032
 4362TIP3    H234502   4.227   2.621  17.150 -0.3948 -0.9849 -0.0446
 4363TIP3   OH234503   0.409   1.376   3.502 -0.1586 -0.1996 -0.6176
 4363TIP3    H134504   0.331   1.423   3.531 -1.1909 -1.7134 -0.8390
 4363TIP3    H234505   0.442   1.332   3.581  0.1233 -0.0481 -0.6493
 4364TIP3   OH234506   3.998   4.081  14.105 -0.1751  0.2189 -0.2544
 4364TIP3    H134507   4.051   4.073  14.184 -0.0763  1.9367 -0.1261
 4364TIP3    H234508   3.977   3.990  14.082  0.5599 -0.3596  1.2054
 4365TIP3   OH234509   2.241   5.580   2.913  0.3453 -0.0354  0.7948
 4365TIP3    H134510   2.200   5.571   2.999  1.5849 -0.7324  1.3471
 4365TIP3    H234511   2.314   5.640   2.927  0.1012  0.4412  0.0570
 4366TIP3   OH234512   5.285   6.061  12.306 -0.2752  0.3130  0.2261
 4366TIP3    H134513   5.306   6.151  12.281 -0.1337 -0.2261 -1.7029
 4366TIP3    H234514   5.191   6.062  12.323 -0.8180  0.3299 -2.3612
 4367TIP3   OH234515   6.068   4.212  11.432 -0.2530 -0.3348  0.5681
 4367TIP3    H134516   6.124   4.171  11.367  0.6482 -1.7373  2.1439
 4367TIP3    H234517   5.983   4.220  11.389  0.1570 -1.7646 -0.5961
 4368TIP3   OH234518   1.932   3.150  10.841 -0.5458 -0.1286  0.3497
 4368TIP3    H134519   1.952   3.216  10.908  0.2948  1.8097 -1.6643
 4368TIP3    H234520   2.018   3.121  10.810 -0.9250 -0.5319 -0.3292
 4369TIP3   OH234521   1.646   4.365   3.214  0.4045 -0.2534  0.0367
 4369TIP3    H134522   1.687   4.399   3.134  2.7199 -0.0091  1.2563
 4369TIP3    H234523   1.652   4.436   3.277  0.8674 -1.2380  1.1513
 4370TIP3   OH234524   5.242   1.360   4.646  0.0766 -0.0919  0.1621
 4370TIP3    H134525   5.255   1.265   4.653 -2.1049 -0.7383 -2.5594
 4370TIP3    H234526   5.147   1.371   4.647  0.2606  1.9802 -0.5197
 4371TIP3   OH234527   6.620   3.777   5.789  0.0948  0.3621  0.3116
 4371TIP3    H134528   6.607   3.870   5.805 -0.2585  0.4348 -0.3624
 4371TIP3    H234529   6.670   3.774   5.707  0.8154 -0.0234  0.7528
 4372TIP3   OH234530   6.347   6.122   4.107 -0.0035 -0.5461 -0.5315
 4372TIP3    H134531   6.377   6.187   4.043  0.2698 -0.3832 -0.2376
 4372TIP3    H234532   6.310   6.173   4.178  0.1416 -0.7174 -0.3331
 4373TIP3   OH234533   0.974   4.520  13.917  0.6939 -0.0183  0.0727
 4373TIP3    H134534   1.066   4.544  13.904  0.5830  0.0610 -0.6443
 4373TIP3    H234535   0.967   4.499  14.010  1.3545  0.3398  0.2103
 4374TIP3   OH234536   5.387   3.801   0.236  0.0374  0.3236 -0.1699
 4374TIP3    H134537   5.344   3.742   0.299  1.0407  1.3158  1.5391
 4374TIP3    H234538   5.431   3.866   0.291  0.3449  1.6958 -1.9576
 4375TIP3   OH234539   2.201   4.864  11.759 -0.3233 -0.8828  0.2077
 4375TIP3    H134540   2.256   4.937  11.729 -1.7831  1.6472  3.1371
 4375TIP3    H234541   2.220   4.857  11.853 -4.6819  0.0567  1.3758
 4376TIP3   OH234542   3.191   3.222  15.746 -0.0506 -0.1866  0.1067
 4376TIP3    H134543   3.193   3.300  15.801  1.5171 -0.4626  0.4760
 4376TIP3    H234544   3.099   3.197  15.744 -0.2664  0.3276  1.8937
 4377TIP3   OH234545   3.970   4.166  15.100  0.4781  0.0289 -0.0229
 4377TIP3    H134546   3.949   4.240  15.044 -0.3435  0.3300  0.6808
 4377TIP3    H234547   4.044   4.196  15.153 -0.7574  0.8921  1.2842
 4378TIP3   OH234548   4.592   5.747  11.980  0.1064  0.0959  0.0584
 4378TIP3    H134549   4.661   5.777  11.921  0.0431  2.5138  1.0930
 4378TIP3    H234550   4.635   5.682  12.036  0.8454 -0.2817 -0.9057
 4379TIP3   OH234551   0.518   2.351   5.755  0.2275  0.0019  0.0120
 4379TIP3    H134552   0.501   2.356   5.849 -1.2832 -0.5622 -0.2021
 4379TIP3    H234553   0.518   2.442   5.726 -1.7988  0.0866  0.1714
 4380TIP3   OH234554   4.812   4.654  16.972  0.1407  0.3507  0.0013
 4380TIP3    H134555   4.823   4.704  16.891 -0.2929 -0.2946 -0.4578
 4380TIP3    H234556   4.889   4.597  16.976  0.2524  0.5093  0.1381
 4381TIP3   OH234557   6.517   6.235  12.142  0.1593  0.1266  0.4490
 4381TIP3    H134558   6.496   6.294  12.070 -1.6802  0.0167  0.8389
 4381TIP3    H234559   6.606   6.205  12.124  0.2574  1.1999 -1.0010
 4382TIP3   OH234560   3.268   3.848   5.012 -0.0841 -0.1744  0.0054
 4382TIP3    H134561   3.212   3.818   4.941  0.3593 -0.8934 -0.0396
 4382TIP3    H234562   3.354   3.861   4.972 -0.0876  0.4674  0.1809
 4383TIP3   OH234563   0.302   3.673  14.993  0.1033 -0.6050 -0.6676
 4383TIP3    H134564   0.219   3.720  15.001  0.6894  0.2164  1.1041
 4383TIP3    H234565   0.367   3.734  15.029  1.1973 -1.9297 -0.3504
 4384TIP3   OH234566   3.584   2.488   1.159 -0.0209  0.1628 -0.3759
 4384TIP3    H134567   3.541   2.500   1.075  0.0196  0.1570 -0.3974
 4384TIP3    H234568   3.557   2.563   1.212  1.0675  0.9235 -0.8546
 4385TIP3   OH234569   6.219   5.737   1.973 -0.0580 -0.6611 -1.0850
 4385TIP3    H134570   6.232   5.681   2.050  0.2103 -1.5153 -1.7453
 4385TIP3    H234571   6.307   5.751   1.938 -0.1237  0.1686 -0.9383
 4386TIP3   OH234572   1.904   1.853   1.615 -0.4283  0.0247  0.2654
 4386TIP3    H134573   1.830   1.799   1.585  0.2000 -0.7541  0.0714
 4386TIP3    H234574   1.872   1.943   1.610 -0.9330 -0.1964 -1.1403
 4387TIP3   OH234575   6.197   6.036   0.468 -0.0382 -0.2748 -0.1374
 4387TIP3    H134576   6.254   5.989   0.529  2.2156  0.6700 -1.3947
 4387TIP3    H234577   6.243   6.031   0.384 -2.0952  0.1301 -1.3516
 4388TIP3   OH234578   2.784   3.818  13.442 -0.0251  0.5219  0.2518
 4388TIP3    H134579   2.732   3.742  13.467 -0.3260 -0.0364 -1.8836
 4388TIP3    H234580   2.759   3.886  13.506 -2.0699 -0.2470  0.3421
 4389TIP3   OH234581   0.352   0.452   3.113 -0.0833 -0.4033 -0.0438
 4389TIP3    H134582   0.269   0.500   3.113  0.5586  0.9405  2.9706
 4389TIP3    H234583   0.325   0.360   3.109 -1.6149  0.0297 -0.5790
 4390TIP3   OH234584   6.328   4.002  14.977  0.2746 -0.0020 -1.1160
 4390TIP3    H134585   6.299   4.029  15.064  4.3053  1.6988 -0.0536
 4390TIP3    H234586   6.352   3.909  14.988  2.3571  0.6221  0.2137
 4391TIP3   OH234587   0.921   0.256  16.696  0.2524 -0.3599 -0.3262
 4391TIP3    H134588   1.013   0.282  16.699 -0.4631  2.6831 -1.1753
 4391TIP3    H234589   0.875   0.324  16.744 -1.6246 -1.6503 -0.1800
 4392TIP3   OH234590   2.290   3.009  12.110 -0.8815 -0.2198 -0.3849
 4392TIP3    H134591   2.303   2.915  12.120  0.2746 -0.2188 -1.5778
 4392TIP3    H234592   2.280   3.023  12.016 -1.2065  0.8335 -0.2161
 4393TIP3   OH234593   0.956   3.905   2.084 -0.5320 -0.0936 -0.2356
 4393TIP3    H134594   1.018   3.879   2.017 -2.4830  0.7815 -2.5398
 4393TIP3    H234595   0.936   3.824   2.132  1.5168 -0.5696 -0.1018
 4394TIP3   OH234596   3.524   1.047   6.064  0.3007  0.1787 -0.2780
 4394TIP3    H134597   3.484   0.997   6.134  2.1498 -1.8201 -0.5331
 4394TIP3    H234598   3.611   1.008   6.053  2.5017  4.2374  0.3367
 4395TIP3   OH234599   3.307   5.056   0.312  0.1440 -0.3983  0.4035
 4395TIP3    H134600   3.243   4.998   0.353  0.8796  0.8603  3.5705
 4395TIP3    H234601   3.355   4.998   0.251 -3.7543 -1.3959 -2.1222
 4396TIP3   OH234602   5.735   2.432   6.715  0.1946  0.0124  0.1274
 4396TIP3    H134603   5.787   2.502   6.755 -1.6046  0.8977  1.0007
 4396TIP3    H234604   5.787   2.352   6.729  1.4604  0.8923  0.6423
 4397TIP3   OH234605   1.904   4.152  13.284 -0.7912 -0.3849  0.0864
 4397TIP3    H134606   1.955   4.119  13.358  0.4330 -0.8053 -0.9277
 4397TIP3    H234607   1.924   4.093  13.212 -1.8717  0.0962 -0.6372
 4398TIP3   OH234608   3.751   3.734   6.252  0.2542  0.4275 -0.6964
 4398TIP3    H134609   3.839   3.761   6.278 -0.0495  0.6293  0.1242
 4398TIP3    H234610   3.692   3.794   6.297 -0.3280  0.0028 -0.8721
 4399TIP3   OH234611   3.592   5.358   2.696 -0.4907  0.3129 -0.5558
 4399TIP3    H134612   3.673   5.352   2.746 -0.2864 -2.1275 -1.0924
 4399TIP3    H234613   3.546   5.276   2.714 -2.4781  1.2776 -0.9200
 4400TIP3   OH234614   5.851   4.529   4.021 -0.0154 -0.2781 -0.3771
 4400TIP3    H134615   5.788   4.586   3.976 -0.8896 -0.1693  0.9157
 4400TIP3    H234616   5.934   4.575   4.013 -0.2076 -0.1119 -1.5804
 4401TIP3   OH234617   6.370   3.686   5.937 -0.7248  0.0660  0.0818
 4401TIP3    H134618   6.316   3.754   5.896 -2.3359 -0.6739  0.8935
 4401TIP3    H234619   6.458   3.722   5.936 -0.8890  0.6356 -2.8268
 4402TIP3   OH234620   0.380   0.452   5.933  0.0732  0.1056  0.3922
 4402TIP3    H134621   0.304   0.448   5.991  0.5354  0.9254  1.0630
 4402TIP3    H234622   0.454   0.470   5.990  0.4061  1.9438 -0.5453
 4403TIP3   OH234623   5.712   6.630  10.727 -0.4311  0.0419  0.5711
 4403TIP3    H134624   5.659   6.657  10.652  0.4492 -1.0897 -0.5029
 4403TIP3    H234625   5.725   6.710  10.778 -2.6323  0.4583  0.5562
 4404TIP3   OH234626   0.513   3.678  13.022 -0.0190 -0.7596  0.1914
 4404TIP3    H134627   0.463   3.637  12.950  1.5658 -1.9264 -0.3083
 4404TIP3    H234628   0.483   3.769  13.023 -0.5666 -0.8729 -1.5328
 4405TIP3   OH234629   6.318   2.608   5.926  0.3904 -0.3077  0.5844
 4405TIP3    H134630   6.349   2.655   6.003  0.1663  0.8021  0.0088
 4405TIP3    H234631   6.224   2.627   5.922  0.1972 -1.2108  0.6244
 4406TIP3   OH234632   4.017   1.949   2.500 -0.4321 -0.4054  0.1478
 4406TIP3    H134633   3.934   1.956   2.547 -1.2628 -3.1452 -0.7173
 4406TIP3    H234634   4.009   1.867   2.451  2.2248  0.0131 -1.1129
 4407TIP3   OH234635   6.618   2.260  14.144 -0.1992 -0.0717 -0.2813
 4407TIP3    H134636   6.549   2.313  14.105  0.0330  2.5670  2.5101
 4407TIP3    H234637   6.699   2.291  14.104 -0.3343 -0.8875 -1.2159
 4408TIP3   OH234638   5.573   4.826   2.249 -0.0303 -0.3201 -0.1999
 4408TIP3    H134639   5.480   4.812   2.265  0.4036 -1.9976  1.0275
 4408TIP3    H234640   5.592   4.911   2.290 -0.6371 -0.8524  1.2334
 4409TIP3   OH234641   0.862   1.749   5.738  0.5335 -0.0435  0.1545
 4409TIP3    H134642   0.856   1.669   5.686  2.3877 -0.2416  0.1592
 4409TIP3    H234643   0.772   1.781   5.744 -0.1219 -1.6341 -0.6084
 4410TIP3   OH234644   6.007   4.725  11.733  0.2445  0.1059 -0.2283
 4410TIP3    H134645   6.014   4.663  11.661 -0.6155 -0.9267  0.5560
 4410TIP3    H234646   5.914   4.732  11.751  0.5162 -1.4072  2.2209
 4411TIP3   OH234647   3.053   4.206  11.868  0.2607 -0.0163 -0.2418
 4411TIP3    H134648   3.044   4.112  11.855 -1.9020  0.1828 -0.5048
 4411TIP3    H234649   3.082   4.239  11.782  0.6302 -0.3699 -0.2606
 4412TIP3   OH234650   0.165   3.287  15.797  0.0134 -0.3535 -0.0564
 4412TIP3    H134651   0.197   3.275  15.708 -0.1327 -1.7093  0.0599
 4412TIP3    H234652   0.097   3.221  15.808 -0.6834  0.4604  0.7359
 4413TIP3   OH234653   2.365   4.392   0.785 -0.1489  0.2051 -0.0448
 4413TIP3    H134654   2.382   4.336   0.709  0.9899 -1.1436  1.1207
 4413TIP3    H234655   2.270   4.404   0.785 -0.6782 -2.9533  0.3919
 4414TIP3   OH234656   4.406   6.031  13.527 -0.5722  0.2439 -0.1175
 4414TIP3    H134657   4.378   5.964  13.464 -1.9579  0.3877  0.3092
 4414TIP3    H234658   4.379   6.114  13.487 -1.2429  0.3548  0.5461
 4415TIP3   OH234659   3.356   0.988   4.970  0.6033 -0.7455  0.2280
 4415TIP3    H134660   3.355   0.957   5.061 -0.7888 -0.7243  0.2505
 4415TIP3    H234661   3.410   1.067   4.973  1.5695 -1.4041  0.7841
 4416TIP3   OH234662   4.183   2.925  15.780 -0.5453 -0.4931  0.1857
 4416TIP3    H134663   4.149   2.928  15.870  1.5594 -1.4857  1.0911
 4416TIP3    H234664   4.106   2.919  15.725 -1.9105  0.2398  1.9200
 4417TIP3   OH234665   3.580   6.541   5.526  0.5176 -0.4184  0.1160
 4417TIP3    H134666   3.629   6.499   5.597  0.2046 -1.6242 -0.3600
 4417TIP3    H234667   3.488   6.525   5.547  0.2720  1.6916  0.9181
 4418TIP3   OH234668   2.553   3.469  14.873 -0.6670 -0.3292  0.5810
 4418TIP3    H134669   2.608   3.513  14.809 -0.7084 -0.2092  0.6292
 4418TIP3    H234670   2.511   3.398  14.824 -0.3857 -0.4903  0.5703
 4419TIP3   OH234671   0.291   4.223  15.391  0.1236  0.3411 -0.6108
 4419TIP3    H134672   0.268   4.168  15.316 -3.8695  0.8721  0.0115
 4419TIP3    H234673   0.291   4.312  15.357 -0.0019  0.4569 -0.3161
 4420TIP3   OH234674   3.058   0.846   5.137  0.2420 -0.0753  0.5431
 4420TIP3    H134675   2.987   0.864   5.199  0.7148  1.3378  0.7139
 4420TIP3    H234676   3.130   0.901   5.167  0.4448  0.7606 -1.3465
 4421TIP3   OH234677   5.307   1.251  11.666  0.0689  0.0723  0.0304
 4421TIP3    H134678   5.368   1.194  11.619  0.6531 -0.7001  1.6400
 4421TIP3    H234679   5.241   1.191  11.703  0.9642  0.2972  2.1554
 4422TIP3   OH234680   0.711   5.155  15.075  0.3985 -0.0634  0.0187
 4422TIP3    H134681   0.735   5.241  15.109 -2.9923  0.6086  1.1019
 4422TIP3    H234682   0.721   5.162  14.980  1.6575  0.9554  0.1997
 4423TIP3   OH234683   0.644   4.608  16.414 -0.3002  0.5641 -0.0562
 4423TIP3    H134684   0.694   4.678  16.456  1.4048 -1.5419  1.6813
 4423TIP3    H234685   0.648   4.535  16.476 -3.1072 -0.7007 -1.1805
 4424TIP3   OH234686   3.205   3.096  11.462  0.6078 -0.5500  0.1603
 4424TIP3    H134687   3.243   3.011  11.484  1.4258  0.1011  1.3680
 4424TIP3    H234688   3.112   3.077  11.447  0.9020 -1.7491 -0.2741
 4425TIP3   OH234689   0.785   3.409  11.006 -0.2235  0.5711 -0.6826
 4425TIP3    H134690   0.869   3.446  10.978 -0.6636  0.6706 -1.9259
 4425TIP3    H234691   0.782   3.323  10.966 -0.2225  0.1044  0.3021
 4426TIP3   OH234692   5.803   5.920  13.704  0.4458 -0.4743  0.0135
 4426TIP3    H134693   5.785   6.002  13.658  1.1347  0.7334  1.7544
 4426TIP3    H234694   5.727   5.908  13.762  1.7198  0.7379  2.0844
 4427TIP3   OH234695   0.439   2.727  15.808  0.3820 -0.0947 -0.3514
 4427TIP3    H134696   0.459   2.673  15.885 -0.8274 -0.2714 -0.1495
 4427TIP3    H234697   0.508   2.705  15.745  1.8362  0.6167  0.9276
 4428TIP3   OH234698   0.623   0.664   2.330 -0.1109 -0.0693 -0.1383
 4428TIP3    H134699   0.647   0.749   2.367 -2.5071  0.1208  1.2562
 4428TIP3    H234700   0.557   0.685   2.264 -0.2166 -0.7992 -0.2720
 4429TIP3   OH234701   0.175   3.088   0.097  0.3501 -0.3374  0.2552
 4429TIP3    H134702   0.092   3.110   0.053  0.4860 -2.1147 -0.9707
 4429TIP3    H234703   0.170   3.135   0.180 -1.8912 -0.3768  0.2222
 4430TIP3   OH234704   5.369   5.255  16.694 -0.1852  0.1988  0.0353
 4430TIP3    H134705   5.295   5.197  16.676 -0.0700  0.0890 -0.0881
 4430TIP3    H234706   5.411   5.267  16.609 -1.1997  1.8569 -0.2929
 4431TIP3   OH234707   3.717   3.167  15.730  0.2276 -0.2004 -0.1206
 4431TIP3    H134708   3.625   3.179  15.754  0.4718  0.8326  0.3422
 4431TIP3    H234709   3.729   3.072  15.729 -0.8382 -0.3495 -0.1817
 4432TIP3   OH234710   2.281   5.797  12.536 -0.2603 -0.1083  0.1422
 4432TIP3    H134711   2.273   5.817  12.629  2.1788  1.3079  0.1621
 4432TIP3    H234712   2.366   5.834  12.512 -0.0988 -1.8505 -2.3025
 4433TIP3   OH234713   0.719   1.758  13.693  0.3920  1.1084 -0.3326
 4433TIP3    H134714   0.776   1.688  13.661  0.0545  0.5874  0.1748
 4433TIP3    H234715   0.754   1.838  13.654  1.6196  0.8326  0.1779
 4434TIP3   OH234716   4.576   2.805  16.466  0.1053 -0.1881 -0.4226
 4434TIP3    H134717   4.670   2.810  16.453  0.2236  0.0968  0.4392
 4434TIP3    H234718   4.539   2.797  16.378  0.8535  0.9589 -0.8552
 4435TIP3   OH234719   6.655   2.554   0.270 -0.2179 -0.4621  0.4701
 4435TIP3    H134720   6.736   2.555   0.218 -0.6347  0.7251 -0.1939
 4435TIP3    H234721   6.621   2.466   0.260 -1.2282  0.1687 -2.8414
 4436TIP3   OH234722   1.130   0.886  16.543 -0.4651 -0.6325  0.1633
 4436TIP3    H134723   1.179   0.955  16.499 -0.4199  0.8415  2.3386
 4436TIP3    H234724   1.100   0.829  16.473  1.6049  0.2029 -1.5203
 4437TIP3   OH234725   3.846   1.493   6.813  0.2953  0.2378 -0.3758
 4437TIP3    H134726   3.929   1.445   6.805  0.7571  1.0634 -0.6381
 4437TIP3    H234727   3.780   1.424   6.818  0.7580 -0.4494 -2.5381
 4438TIP3   OH234728   5.406   4.171   0.099  0.2537  0.0603  0.0443
 4438TIP3    H134729   5.485   4.123   0.077  2.2795  3.0872  0.1798
 4438TIP3    H234730   5.405   4.172   0.195  0.5176  0.6867  0.0455
 4439TIP3   OH234731   3.336   4.863   4.734 -0.1064 -0.3938 -0.5579
 4439TIP3    H134732   3.342   4.944   4.784  1.1521  0.8433 -2.5496
 4439TIP3    H234733   3.357   4.794   4.796  1.2179  1.0370  0.6678
 4440TIP3   OH234734   2.364   5.410   4.603  0.3236 -0.3554 -0.1602
 4440TIP3    H134735   2.326   5.323   4.587  1.1665 -1.0263  1.3159
 4440TIP3    H234736   2.393   5.407   4.694  1.7240  0.9629 -0.5304
 4441TIP3   OH234737   0.066   4.390   0.911  0.1622  0.1541  0.6322
 4441TIP3    H134738   0.146   4.407   0.962 -0.5589  1.5887  1.3193
 4441TIP3    H234739  -0.004   4.388   0.977 -0.6819  1.2244 -0.2156
 4442TIP3   OH234740   5.292   1.786   3.809  0.6534  0.3284  0.0115
 4442TIP3    H134741   5.320   1.873   3.836 -0.8989  1.5983 -2.1330
 4442TIP3    H234742   5.243   1.800   3.728  1.2319 -2.6529 -1.0324
 4443TIP3   OH234743   2.783   5.502   2.839  0.0772 -0.2811 -0.3194
 4443TIP3    H134744   2.743   5.535   2.918 -0.1214  0.5708 -0.7690
 4443TIP3    H234745   2.742   5.417   2.825  1.3045 -1.2229  1.3820
 4444TIP3   OH234746   0.577   4.710  13.879 -0.0802  0.1541  0.4799
 4444TIP3    H134747   0.648   4.709  13.943 -0.1566  1.0439  0.5937
 4444TIP3    H234748   0.538   4.797  13.888  0.3609  0.5585 -1.2851
 4445TIP3   OH234749   5.611   1.030   0.917  0.0045  0.2369 -0.5315
 4445TIP3    H134750   5.692   1.076   0.937  1.6925 -3.1455  1.1970
 4445TIP3    H234751   5.621   1.001   0.827  0.6803 -0.0137 -0.3826
 4446TIP3   OH234752   5.324   0.745   1.051  0.1252 -0.2099 -0.0046
 4446TIP3    H134753   5.346   0.837   1.067  1.5631 -0.7635  1.5083
 4446TIP3    H234754   5.229   0.741   1.059  0.0747  1.0791  0.2658
 4447TIP3   OH234755   1.926   2.970   3.671  0.5002 -0.9460  0.2934
 4447TIP3    H134756   1.963   2.963   3.583 -2.5232 -1.7924 -1.0545
 4447TIP3    H234757   1.869   3.047   3.667 -0.5798 -1.6675  1.0814
 4448TIP3   OH234758   6.516   5.636   3.083 -0.0191 -0.0388  0.2651
 4448TIP3    H134759   6.538   5.543   3.079  0.7321  0.1204  0.5967
 4448TIP3    H234760   6.430   5.642   3.040  0.2866 -0.7678 -0.4790
 4449TIP3   OH234761   4.012   3.902  12.076  0.5146 -0.5498  0.3766
 4449TIP3    H134762   4.103   3.932  12.082  0.6965 -0.8580 -0.6464
 4449TIP3    H234763   4.015   3.833  12.010  0.3894 -3.8224  3.4756
 4450TIP3   OH234764   2.441   1.110  14.115 -0.1059  0.8058  0.5475
 4450TIP3    H134765   2.502   1.037  14.106 -1.2617 -0.0513 -0.7671
 4450TIP3    H234766   2.435   1.124  14.209  0.3890 -0.5963  0.8150
 4451TIP3   OH234767   5.268   0.105  14.865 -0.1723 -0.5501 -0.2217
 4451TIP3    H134768   5.341   0.084  14.923 -1.1586  0.6661  1.5922
 4451TIP3    H234769   5.233   0.021  14.838 -0.6141 -1.2493  2.2667
 4452TIP3   OH234770   5.601   6.702   5.610  0.5367 -0.3468 -0.0951
 4452TIP3    H134771   5.553   6.627   5.576  0.0576 -0.0236 -0.1291
 4452TIP3    H234772   5.690   6.668   5.625  0.4857 -0.7522 -0.7005
 4453TIP3   OH234773   0.334   6.181  13.555 -0.1855 -0.1214  0.2348
 4453TIP3    H134774   0.261   6.124  13.529 -0.0199 -0.2545  0.0608
 4453TIP3    H234775   0.313   6.206  13.645 -0.2799 -0.4297  0.3021
 4454TIP3   OH234776   2.018   0.633  11.182  0.3603 -0.1312  0.4654
 4454TIP3    H134777   2.055   0.633  11.271 -0.4666 -2.8024  0.8830
 4454TIP3    H234778   2.094   0.622  11.125  0.7155 -0.3073  0.9651
 4455TIP3   OH234779   4.214   1.579   6.139  0.1872 -0.0286  0.0257
 4455TIP3    H134780   4.181   1.499   6.178  1.0383  0.2342  1.3742
 4455TIP3    H234781   4.209   1.644   6.209  3.2460  0.0860  0.3077
 4456TIP3   OH234782   5.407   6.372   3.304 -0.2828  0.3027  0.3960
 4456TIP3    H134783   5.351   6.329   3.369 -1.7180  0.3080 -0.7900
 4456TIP3    H234784   5.488   6.321   3.305 -2.1991 -3.1477 -1.5798
 4457TIP3   OH234785   2.993   1.150  15.844 -0.3988  0.1990 -0.2919
 4457TIP3    H134786   2.986   1.064  15.804 -1.0960  0.7584 -1.4124
 4457TIP3    H234787   2.918   1.156  15.903  0.4731 -0.5140  0.9454
 4458TIP3   OH234788   3.904   4.838  11.839  0.4410  0.8016 -0.4148
 4458TIP3    H134789   3.868   4.767  11.786  2.2187 -0.3654 -0.1502
 4458TIP3    H234790   3.930   4.905  11.776 -2.1791  1.7454 -0.6010
 4459TIP3   OH234791   4.828   3.627   3.250 -0.3248 -0.4355 -0.6755
 4459TIP3    H134792   4.799   3.608   3.339  1.7044 -2.7952 -0.3992
 4459TIP3    H234793   4.874   3.711   3.258 -1.2695  0.0212  0.2061
 4460TIP3   OH234794   3.758   1.745  16.004  0.1552  0.8174 -0.0458
 4460TIP3    H134795   3.801   1.758  16.088 -1.5667 -1.0994  1.2064
 4460TIP3    H234796   3.723   1.832  15.982 -2.0673  0.7850  2.8270
 4461TIP3   OH234797   4.044   1.105  12.933  0.5746  0.4487 -0.6863
 4461TIP3    H134798   4.109   1.050  12.890 -0.3807 -0.0583 -1.5261
 4461TIP3    H234799   3.961   1.084  12.889 -0.0638  1.4956 -0.0445
 4462TIP3   OH234800   5.671   3.133  14.488 -0.2038  0.0753 -0.1834
 4462TIP3    H134801   5.603   3.113  14.423 -0.8861  1.3636  0.1078
 4462TIP3    H234802   5.622   3.154  14.568  0.6315 -2.0607  0.9629
 4463TIP3   OH234803   1.470   4.609   2.083  0.4318 -0.0579  0.2981
 4463TIP3    H134804   1.396   4.570   2.036 -0.4076  0.2556  1.2980
 4463TIP3    H234805   1.444   4.701   2.096  0.9070  0.0078  0.8355
 4464TIP3   OH234806   0.187   3.011   1.599  0.4088 -0.3333  1.0680
 4464TIP3    H134807   0.138   3.000   1.517 -1.9134  0.1775  2.3100
 4464TIP3    H234808   0.215   2.923   1.623 -2.1152 -1.0906  1.5588
 4465TIP3   OH234809   2.548   3.228  16.186  0.3901  0.1397 -0.0047
 4465TIP3    H134810   2.538   3.288  16.260  1.9489 -0.6474  0.8830
 4465TIP3    H234811   2.614   3.166  16.214  0.0035 -1.0279 -1.5445
 4466TIP3   OH234812   3.825   6.134  13.917  0.0549 -0.0031  0.4485
 4466TIP3    H134813   3.854   6.063  13.974  0.1737 -0.7188 -0.4782
 4466TIP3    H234814   3.904   6.185  13.900  0.1528 -0.1585  0.4295
 4467TIP3   OH234815   4.316   5.333   3.365  0.1936 -1.1094 -0.5117
 4467TIP3    H134816   4.373   5.361   3.294 -1.9090 -0.5110 -2.0531
 4467TIP3    H234817   4.327   5.400   3.433  0.4817 -0.4073 -1.2418
 4468TIP3   OH234818   0.807   5.844   0.400  0.0208  0.0644 -0.0609
 4468TIP3    H134819   0.884   5.834   0.456  0.4391  0.6748 -0.5190
 4468TIP3    H234820   0.840   5.833   0.311 -0.6795 -1.1172 -0.1965
 4469TIP3   OH234821   2.338   1.693  11.797  0.1795  0.0680 -0.1293
 4469TIP3    H134822   2.362   1.766  11.739  1.3843  0.2593  0.5681
 4469TIP3    H234823   2.298   1.628  11.739  0.6841  0.5644 -1.0547
 4470TIP3   OH234824   5.291   6.600   2.617 -0.4057  0.5146  0.4575
 4470TIP3    H134825   5.271   6.513   2.651 -1.5798 -0.2213 -1.9229
 4470TIP3    H234826   5.292   6.589   2.522 -1.2177  3.2268  0.0555
 4471TIP3   OH234827   6.046   6.122   6.074  0.1169  0.2783 -0.0963
 4471TIP3    H134828   6.128   6.157   6.039 -1.8673  2.8936 -2.6518
 4471TIP3    H234829   6.032   6.171   6.155  0.8158  0.1638  0.1026
 4472TIP3   OH234830   2.819   2.331  12.484  0.1254 -0.1278 -0.1571
 4472TIP3    H134831   2.764   2.253  12.489 -0.6125  0.3988  0.1766
 4472TIP3    H234832   2.769   2.391  12.428  0.1730  0.5076  0.4748
 4473TIP3   OH234833   3.623   5.602   1.397  0.2643 -0.1893  0.0640
 4473TIP3    H134834   3.662   5.514   1.401  1.9544  0.5772  1.1714
 4473TIP3    H234835   3.624   5.633   1.487  1.1337  1.5695 -0.5096
 4474TIP3   OH234836   1.797   5.725  14.434 -0.2529  0.1662 -0.1642
 4474TIP3    H134837   1.738   5.666  14.481 -2.0194  1.6451 -0.4403
 4474TIP3    H234838   1.877   5.725  14.487 -0.1554 -2.4883 -0.1907
 4475TIP3   OH234839   4.537   3.526   1.374 -0.2796 -0.0145 -0.0449
 4475TIP3    H134840   4.514   3.597   1.432 -1.7538 -1.3188  1.0525
 4475TIP3    H234841   4.610   3.560   1.322 -1.1500  2.3752  0.1874
 4476TIP3   OH234842   4.927   2.304   6.149  0.0451  0.0843 -0.0303
 4476TIP3    H134843   4.964   2.392   6.137  0.6996  0.0423  1.4904
 4476TIP3    H234844   4.945   2.283   6.240 -3.5111 -0.0849  0.7560
 4477TIP3   OH234845   4.576   4.967   1.515 -0.0957  0.3582  0.3596
 4477TIP3    H134846   4.610   4.901   1.454 -0.3078  0.8291 -0.2843
 4477TIP3    H234847   4.487   4.986   1.483 -0.1358  0.7564  0.6949
 4478TIP3   OH234848   0.037   0.209  14.819 -0.5211 -0.2694 -0.2537
 4478TIP3    H134849   0.026   0.234  14.910  0.5466 -0.1925 -0.1302
 4478TIP3    H234850   0.120   0.161  14.817 -0.8435 -0.8168 -1.0775
 4479TIP3   OH234851   0.953   0.755   3.715 -0.3464  0.2689  0.0987
 4479TIP3    H134852   0.998   0.712   3.642  0.6420  1.0104  0.2515
 4479TIP3    H234853   0.871   0.706   3.724  0.0968 -0.6635 -0.6583
 4480TIP3   OH234854   5.235   2.799  14.987  0.4200  0.0785  0.0559
 4480TIP3    H134855   5.176   2.754  15.048  0.1720 -1.7361 -1.4312
 4480TIP3    H234856   5.232   2.746  14.907  2.8887  0.7981 -0.5932
 4481TIP3   OH234857   2.473   5.592  13.055 -0.5612 -0.4069 -0.4924
 4481TIP3    H134858   2.456   5.537  13.132  1.1660 -0.2678  0.0487
 4481TIP3    H234859   2.429   5.675  13.073 -0.2958 -0.4317  0.2981
 4482TIP3   OH234860   0.960   1.533   0.918 -0.1010 -0.5170 -0.4467
 4482TIP3    H134861   1.049   1.514   0.947  0.0448  0.7850  0.0067
 4482TIP3    H234862   0.904   1.489   0.982  0.1912 -1.4017 -0.7753
 4483TIP3   OH234863   5.831   6.425   3.276  0.2711  0.1436  0.2204
 4483TIP3    H134864   5.919   6.416   3.313  0.0649 -1.5294  0.4123
 4483TIP3    H234865   5.797   6.335   3.276 -0.1231  0.1661 -3.0521
 4484TIP3   OH234866   2.611   0.300  14.996  0.0216  0.0516  0.1364
 4484TIP3    H134867   2.607   0.304  15.091 -0.8065 -0.7662  0.1540
 4484TIP3    H234868   2.522   0.320  14.967 -0.3351 -2.0227 -0.3487
 4485TIP3   OH234869   4.769   4.336   5.443  0.2198 -0.2434 -0.0489
 4485TIP3    H134870   4.743   4.246   5.464  0.8375 -1.0976 -2.6144
 4485TIP3    H234871   4.689   4.377   5.411  0.4418 -0.6510 -1.1570
 4486TIP3   OH234872   6.669   1.062  12.762  0.6129 -0.2478 -0.0545
 4486TIP3    H134873   6.699   1.152  12.774 -0.3158  0.6550 -3.3866
 4486TIP3    H234874   6.609   1.047  12.835  0.1126  2.2056  0.1437
 4487TIP3   OH234875   5.962   0.700   1.987 -0.0336 -0.2211 -0.0913
 4487TIP3    H134876   5.952   0.628   2.050 -1.1731  0.7485  0.8806
 4487TIP3    H234877   5.983   0.656   1.905  0.2441 -1.6107  0.6728
 4488TIP3   OH234878   4.824   2.772   1.801  0.1465 -0.1256  0.7020
 4488TIP3    H134879   4.826   2.855   1.752  0.9472 -0.8878 -0.6325
 4488TIP3    H234880   4.761   2.787   1.871  2.4067  2.6301  2.3859
 4489TIP3   OH234881   6.684   6.397  14.353  0.3869 -0.3451  0.0682
 4489TIP3    H134882   6.722   6.469  14.402 -0.5794 -0.0737  0.4236
 4489TIP3    H234883   6.720   6.407  14.264  2.3288 -0.9800  0.7168
 4490TIP3   OH234884   1.131   0.710  14.324 -0.2153  0.1671  0.2172
 4490TIP3    H134885   1.183   0.762  14.262  0.8556 -0.4931  0.5195
 4490TIP3    H234886   1.122   0.625  14.282 -0.6273  0.1201  0.3969
 4491TIP3   OH234887   0.286   3.070   3.932  0.5984  0.0566  0.1763
 4491TIP3    H134888   0.360   3.012   3.915  0.2552 -0.3241 -0.0199
 4491TIP3    H234889   0.209   3.019   3.909  0.3436  0.9981 -1.2171
 4492TIP3   OH234890   2.586   3.620  16.085 -0.2988 -0.3601  0.1118
 4492TIP3    H134891   2.517   3.684  16.100  0.0268  0.1092 -0.3732
 4492TIP3    H234892   2.599   3.578  16.171 -0.8275 -0.1024  0.3198
 4493TIP3   OH234893   6.337   2.212   1.132  0.7961  0.2740 -0.4156
 4493TIP3    H134894   6.429   2.223   1.153  1.4603 -1.4467 -2.1670
 4493TIP3    H234895   6.297   2.183   1.215  2.3953 -1.6783 -0.2514
 4494TIP3   OH234896   1.342   6.417   5.499 -0.1077 -0.4262 -0.9136
 4494TIP3    H134897   1.285   6.360   5.551 -1.4603  0.8177 -0.9698
 4494TIP3    H234898   1.334   6.385   5.410 -0.3685 -0.5284 -0.8534
 4495TIP3   OH234899   4.216   0.775  14.733  0.1782 -0.0185  0.2672
 4495TIP3    H134900   4.179   0.701  14.684 -0.1025  0.2725  0.0385
 4495TIP3    H234901   4.146   0.803  14.792 -0.6144  1.6041 -1.3306
 4496TIP3   OH234902   3.695   4.436  16.565  0.0767 -0.0649  0.0213
 4496TIP3    H134903   3.760   4.466  16.629  1.7924  0.7665 -1.9621
 4496TIP3    H234904   3.693   4.505  16.499  1.7483 -2.6774 -3.0872
 4497TIP3   OH234905   1.612   2.358  11.561 -0.4901 -0.2337 -0.3722
 4497TIP3    H134906   1.577   2.352  11.649 -0.0144 -0.4440 -0.1915
 4497TIP3    H234907   1.586   2.276  11.518 -0.8279 -0.0769 -0.4691
 4498TIP3   OH234908   4.574   1.273  12.313 -0.0009  0.2569 -0.0410
 4498TIP3    H134909   4.660   1.296  12.278  0.2639 -2.9024 -1.8385
 4498TIP3    H234910   4.579   1.178  12.327 -2.3343  0.3865  2.4915
 4499TIP3   OH234911   0.412   4.899  15.726  0.0766 -0.2176 -0.0729
 4499TIP3    H134912   0.392   4.933  15.813  2.8372  0.4964  0.3521
 4499TIP3    H234913   0.343   4.935  15.670 -0.4520  1.1928  1.4122
 4500TIP3   OH234914   6.490   5.257   0.267  0.3794 -0.8368 -0.2568
 4500TIP3    H134915   6.561   5.264   0.204  1.4678  0.1618  1.0330
 4500TIP3    H234916   6.524   5.201   0.336  1.0218  1.8263  1.7241
 4501TIP3   OH234917   2.053   4.083  13.876  0.4038  0.0332 -0.3662
 4501TIP3    H134918   1.981   4.141  13.901  0.1577  0.5608 -2.1861
 4501TIP3    H234919   2.132   4.127  13.907 -0.0117 -0.4800  1.5183
 4502TIP3   OH234920   5.506   5.341  10.649  0.8017 -0.0567 -0.1400
 4502TIP3    H134921   5.423   5.316  10.690  1.5215 -1.1420  0.7169
 4502TIP3    H234922   5.537   5.416  10.701  0.8797 -0.3473  0.2380
 4503TIP3   OH234923   1.575   2.042   6.484  0.3016  0.4940 -0.1213
 4503TIP3    H134924   1.540   2.081   6.564  0.2328 -0.2142  0.1998
 4503TIP3    H234925   1.604   1.955   6.510  0.2194  0.2301 -0.8803
 4504TIP3   OH234926   2.930   5.136  11.155  0.2475  0.5760  0.7620
 4504TIP3    H134927   2.903   5.227  11.169  0.1394  0.6782 -0.0664
 4504TIP3    H234928   2.863   5.084  11.200  0.0194  0.8923  0.7919
 4505TIP3   OH234929   5.031   4.394   1.320 -0.1252  0.1454 -0.0658
 4505TIP3    H134930   5.108   4.372   1.372 -0.3814 -0.7210 -0.0324
 4505TIP3    H234931   5.055   4.371   1.230 -0.2726  0.0433 -0.0813
 4506TIP3   OH234932   2.881   1.172   2.070  0.2348  0.0232  0.5390
 4506TIP3    H134933   2.941   1.238   2.035  1.9609 -2.0271 -0.6503
 4506TIP3    H234934   2.825   1.220   2.130  2.6716  2.2076  1.2577
 4507TIP3   OH234935   3.217   2.957   1.667 -0.3103 -0.3706  0.4327
 4507TIP3    H134936   3.311   2.966   1.648 -0.3713 -2.9073 -1.4786
 4507TIP3    H234937   3.175   3.022   1.611  0.2441  0.4384  0.9331
 4508TIP3   OH234938   2.935   3.433   6.756  0.2953 -0.1045  0.0961
 4508TIP3    H134939   2.910   3.352   6.800 -0.0169  0.1090  0.3102
 4508TIP3    H234940   3.024   3.416   6.724  1.6735  0.6530  3.1508
 4509TIP3   OH234941   2.164   3.087  15.700 -0.2529  0.2881 -0.4968
 4509TIP3    H134942   2.144   3.151  15.768 -2.0976  2.7263 -3.0904
 4509TIP3    H234943   2.105   3.014  15.717 -0.7048  0.8607  0.4729
 4510TIP3   OH234944   3.709   5.621   3.289  0.1908  0.0414  0.1007
 4510TIP3    H134945   3.804   5.623   3.304  0.6533 -0.5534 -2.3441
 4510TIP3    H234946   3.693   5.536   3.248 -1.2085  0.6037 -0.5931
 4511TIP3   OH234947   4.607   1.720  16.247  0.4477  0.0383  0.2176
 4511TIP3    H134948   4.645   1.716  16.160  1.7656 -0.8138  0.8070
 4511TIP3    H234949   4.608   1.629  16.278 -0.0741  0.3143  1.0924
 4512TIP3   OH234950   4.390   5.479   1.881  0.4097 -0.3908 -0.1949
 4512TIP3    H134951   4.343   5.561   1.869  1.2084 -0.1033 -1.5248
 4512TIP3    H234952   4.357   5.421   1.811 -1.3644 -1.8342  1.6965
 4513TIP3   OH234953   1.916   3.395   4.506  0.1229 -0.5045  0.0550
 4513TIP3    H134954   1.975   3.402   4.581 -1.1477  0.1822  1.0340
 4513TIP3    H234955   1.830   3.418   4.541 -0.2320  1.6399 -1.9872
 4514TIP3   OH234956   0.276   4.800  11.303 -0.5905  0.1662  0.3572
 4514TIP3    H134957   0.320   4.827  11.222 -2.0267 -1.3215 -0.9803
 4514TIP3    H234958   0.233   4.718  11.281 -1.5328  0.0222  2.4909
 4515TIP3   OH234959   0.733   4.553   1.843  0.1581 -0.0115 -0.3294
 4515TIP3    H134960   0.754   4.608   1.768 -2.7878  0.9206 -0.6066
 4515TIP3    H234961   0.735   4.613   1.918 -0.1335 -0.1941 -0.1723
 4516TIP3   OH234962   4.094   0.337  15.491  0.4559  0.0233  0.1336
 4516TIP3    H134963   4.053   0.332  15.577  1.8303 -1.3006  0.7573
 4516TIP3    H234964   4.070   0.255  15.448  1.2889 -0.1411 -0.0258
 4517TIP3   OH234965   1.124   1.297  13.572 -0.2066 -1.0611  0.0407
 4517TIP3    H134966   1.132   1.214  13.618  1.3913 -1.2646 -0.5113
 4517TIP3    H234967   1.046   1.338  13.608  0.4842 -1.5824  2.3152
 4518TIP3   OH234968   1.191   5.268   1.189  0.2908 -0.5849 -0.6354
 4518TIP3    H134969   1.160   5.179   1.170 -1.8419 -0.0652  0.1985
 4518TIP3    H234970   1.215   5.266   1.282 -0.1607 -0.1864 -0.5081
 4519TIP3   OH234971   0.988   3.310   1.428 -0.7667  0.4042  0.1696
 4519TIP3    H134972   0.901   3.298   1.389  0.3534 -2.4093 -1.7676
 4519TIP3    H234973   1.013   3.398   1.402 -1.7531  0.0944 -2.0933
 4520TIP3   OH234974   0.593   0.551  14.902 -0.5573  0.8077 -0.3414
 4520TIP3    H134975   0.652   0.567  14.976 -0.1608  1.4564 -0.7840
 4520TIP3    H234976   0.513   0.517  14.942 -0.2520  0.8953  0.3635
 4521TIP3   OH234977   4.977   4.668   3.455  0.0611  0.6839 -0.2606
 4521TIP3    H134978   4.937   4.658   3.369  1.0188 -1.2159 -0.5160
 4521TIP3    H234979   4.903   4.691   3.512 -1.1592 -1.1545 -1.0186
 4522TIP3   OH234980   0.474   0.586   6.374 -0.4534  0.1313  0.5458
 4522TIP3    H134981   0.537   0.635   6.427 -2.3533  2.2597  0.9914
 4522TIP3    H234982   0.418   0.543   6.439 -2.0856  1.8229  0.3416
 4523TIP3   OH234983   0.386   3.477  11.184  0.1883  0.0363 -0.2247
 4523TIP3    H134984   0.305   3.508  11.144  0.0358 -1.2636 -1.0041
 4523TIP3    H234985   0.360   3.446  11.270 -0.3617 -1.2258 -0.8107
 4524TIP3   OH234986   1.760   2.718   4.814  0.0943 -0.7453  0.3990
 4524TIP3    H134987   1.680   2.717   4.760 -0.9473  0.6262  1.8297
 4524TIP3    H234988   1.819   2.656   4.770 -1.8183 -1.9768 -0.5839
 4525TIP3   OH234989   1.526   2.007  14.752 -0.1017 -0.5088  0.1507
 4525TIP3    H134990   1.516   1.912  14.764 -0.5540 -0.7313 -1.6696
 4525TIP3    H234991   1.618   2.018  14.729  0.1208 -0.4048  1.0573
 4526TIP3   OH234992   2.627   4.805  11.011 -0.5810  0.5963 -0.3640
 4526TIP3    H134993   2.629   4.709  11.018  0.8226  0.5795 -0.7443
 4526TIP3    H234994   2.666   4.823  10.925  0.6497  1.5602  0.3717
 4527TIP3   OH234995   5.370   2.506   4.392  0.7246 -0.2650  0.1834
 4527TIP3    H134996   5.402   2.543   4.310  1.6147  3.1405  1.8708
 4527TIP3    H234997   5.289   2.553   4.409  0.0001 -1.6765  0.7978
 4528TIP3   OH234998   1.421   3.542   2.412 -0.2197  0.4889 -0.3793
 4528TIP3    H134999   1.386   3.512   2.328 -0.7100 -0.6216  0.2076
 4528TIP3    H235000   1.390   3.633   2.419  1.6837  1.3926 -2.3928
 4529TIP3   OH235001   5.099   2.453   2.466 -0.4157  0.0300  0.4721
 4529TIP3    H135002   5.092   2.474   2.373 -0.0872 -0.5170  0.3233
 4529TIP3    H235003   5.024   2.498   2.506 -0.2535  0.7044  0.0255
 4530TIP3   OH235004   6.322   0.370   1.426  0.2540  0.3752 -0.2499
 4530TIP3    H135005   6.405   0.323   1.427 -0.2854 -0.8293 -3.0236
 4530TIP3    H235006   6.309   0.396   1.335 -1.9502  1.4016  0.2784
 4531TIP3   OH235007   3.692   2.615  15.148 -0.2484  0.2253 -0.8069
 4531TIP3    H135008   3.672   2.704  15.118  1.0598  0.6737 -0.4282
 4531TIP3    H235009   3.700   2.564  15.068  0.3366  0.7573 -1.0951
 4532TIP3   OH235010   0.048   5.807  10.852 -0.1169  0.1234 -0.1167
 4532TIP3    H135011  -0.034   5.812  10.803 -1.4318 -0.7321  1.8302
 4532TIP3    H235012   0.024   5.762  10.933  2.1539  0.4748  0.8269
 4533TIP3   OH235013   4.059   1.407   4.966 -0.1241 -0.5520  0.2463
 4533TIP3    H135014   4.030   1.487   5.008  0.8923 -0.1561  0.2380
 4533TIP3    H235015   3.992   1.342   4.986 -0.4289  0.0321  1.1426
 4534TIP3   OH235016   1.123   2.274   0.635 -0.1716 -0.1932  0.2061
 4534TIP3    H135017   1.173   2.265   0.717  1.6358 -0.9418 -0.9252
 4534TIP3    H235018   1.175   2.227   0.570 -1.9722 -0.3003 -1.2390
 4535TIP3   OH235019   5.509   1.146   3.608  0.0602  0.5617  0.4924
 4535TIP3    H135020   5.416   1.124   3.613  0.2187  0.0160  1.2160
 4535TIP3    H235021   5.511   1.237   3.579 -0.6694  0.3013 -0.3992
 4536TIP3   OH235022   1.919   5.874  12.161 -0.2426  0.1645  0.1207
 4536TIP3    H135023   1.953   5.964  12.160  0.2616 -0.0234 -0.5065
 4536TIP3    H235024   1.971   5.829  12.228 -0.9287  0.4939  0.8883
 4537TIP3   OH235025   3.504   1.582  12.631 -0.5782  0.1439  0.4156
 4537TIP3    H135026   3.562   1.541  12.567  0.9475  1.3194  0.9760
 4537TIP3    H235027   3.485   1.668  12.594 -1.2193  0.1268  0.6862
 4538TIP3   OH235028   2.425   3.711  14.686 -0.3887  0.9616 -0.3168
 4538TIP3    H135029   2.506   3.718  14.737 -1.1592 -0.7539  1.2470
 4538TIP3    H235030   2.393   3.802  14.681  0.7381  1.4318  0.5319
 4539TIP3   OH235031   4.978   2.919  12.821 -0.3367  0.0657  0.4652
 4539TIP3    H135032   4.951   2.979  12.751  1.2808  0.3840  0.0720
 4539TIP3    H235033   5.068   2.945  12.841 -0.0063 -1.4847  1.1100
 4540TIP3   OH235034   6.096   6.558   3.323  0.3070 -0.7004  0.1155
 4540TIP3    H135035   6.176   6.517   3.291 -0.2649 -1.4013 -0.4582
 4540TIP3    H235036   6.094   6.539   3.417  1.0947 -0.1878  0.2390
 4541TIP3   OH235037   1.499   4.072  14.084  0.2067  0.5544 -0.0132
 4541TIP3    H135038   1.566   4.103  14.023 -0.5455  5.3700  1.2160
 4541TIP3    H235039   1.432   4.033  14.028  1.8411  0.0298 -1.6904
 4542TIP3   OH235040   0.410   1.993   0.375  0.1972  0.3482  0.0037
 4542TIP3    H135041   0.327   1.964   0.412  0.3374  0.6299  0.5592
 4542TIP3    H235042   0.476   1.951   0.431  0.4113  0.7765  0.0753
 4543TIP3   OH235043   3.896   5.911  16.453  0.0369  0.2324  0.0157
 4543TIP3    H135044   3.989   5.932  16.443  0.4113 -1.5274 -0.6568
 4543TIP3    H235045   3.880   5.916  16.547  0.8028  0.5844  0.1332
 4544TIP3   OH235046   5.551   3.522  16.287  0.6656  0.2473  0.0076
 4544TIP3    H135047   5.641   3.493  16.272 -0.0046 -1.8108 -0.3326
 4544TIP3    H235048   5.499   3.471  16.226 -0.8902  0.3023  1.2382
 4545TIP3   OH235049   1.380   5.579   4.703 -0.3143 -0.4614  0.3932
 4545TIP3    H135050   1.365   5.634   4.780  1.5384  2.9211 -1.4272
 4545TIP3    H235051   1.299   5.587   4.652  0.7493  2.9595 -1.0448
 4546TIP3   OH235052   3.455   5.219  14.394 -0.2434 -0.1231 -0.4349
 4546TIP3    H135053   3.527   5.274  14.364  0.1289 -0.9791 -1.2008
 4546TIP3    H235054   3.381   5.278  14.403  0.8963  1.0629  1.8362
 4547TIP3   OH235055   0.794   0.387  13.981  0.0971 -0.1702 -0.1130
 4547TIP3    H135056   0.773   0.296  13.958  4.0900 -1.5068  0.7028
 4547TIP3    H235057   0.819   0.428  13.898 -1.7054  0.2829 -0.4812
 4548TIP3   OH235058   6.730   1.925   1.014 -0.2232  0.4295 -0.3908
 4548TIP3    H135059   6.781   1.989   0.963 -0.9105  0.4802 -1.0429
 4548TIP3    H235060   6.753   1.943   1.105  0.4369  0.8662 -0.6317
 4549TIP3   OH235061   6.593   0.549   2.763 -0.5090  0.2051  0.1820
 4549TIP3    H135062   6.588   0.582   2.853 -1.6878  0.8318 -0.0906
 4549TIP3    H235063   6.506   0.564   2.727  0.4231  1.6698 -1.6429
 4550TIP3   OH235064   6.751   3.390   2.034 -0.1831 -0.1040 -0.6052
 4550TIP3    H135065   6.834   3.426   2.003 -0.6156  1.4552 -0.0721
 4550TIP3    H235066   6.758   3.296   2.018  1.4737  0.0562 -1.0353
 4551TIP3   OH235067   3.100   2.197  16.617  0.2224  0.2348 -0.5400
 4551TIP3    H135068   3.015   2.232  16.645 -0.4458 -1.6906 -0.0211
 4551TIP3    H235069   3.128   2.255  16.546 -0.4912  2.1817  0.6917
 4552TIP3   OH235070   3.993   0.650  10.718  0.0836  0.4818  0.5194
 4552TIP3    H135071   4.083   0.679  10.706 -0.1228  0.6483 -0.7411
 4552TIP3    H235072   3.960   0.636  10.630 -1.0889  0.2909  0.9671
 4553TIP3   OH235073   1.388   0.602  10.974 -0.0836 -0.1769 -0.2583
 4553TIP3    H135074   1.435   0.621  10.893  0.0282 -1.1806 -0.4422
 4553TIP3    H235075   1.305   0.649  10.965 -0.7014 -1.4492 -1.6304
 4554TIP3   OH235076   6.156   5.750   4.361 -0.1067 -0.2643  0.2294
 4554TIP3    H135077   6.161   5.686   4.290  0.6207  1.1620 -1.0505
 4554TIP3    H235078   6.098   5.709   4.426 -0.9353 -1.5235 -1.2400
 4555TIP3   OH235079   1.534   1.356   2.384  0.1516  0.3652 -0.5733
 4555TIP3    H135080   1.445   1.391   2.389 -0.8179 -2.1313  1.7735
 4555TIP3    H235081   1.527   1.280   2.326  1.1037  0.9353 -1.4766
 4556TIP3   OH235082   4.878   0.048   1.508 -0.0954  0.1904 -0.0567
 4556TIP3    H135083   4.873   0.142   1.488  0.3168  0.2528  0.1149
 4556TIP3    H235084   4.859   0.043   1.602 -2.7230 -0.1685 -0.5311
 4557TIP3   OH235085   6.086   0.675  12.561 -0.1703  0.2488 -0.2304
 4557TIP3    H135086   6.097   0.580  12.565 -0.5548  0.1691 -0.8119
 4557TIP3    H235087   5.994   0.689  12.583 -0.2103  0.4496 -0.5123
 4558TIP3   OH235088   6.240   5.194  12.857 -0.5300  0.0752  0.2190
 4558TIP3    H135089   6.302   5.250  12.903 -0.9609  0.9096 -0.2026
 4558TIP3    H235090   6.155   5.236  12.871 -0.8548 -0.4592 -0.1304
 4559TIP3   OH235091   5.205   6.170   4.684 -0.7640  0.0051 -0.4103
 4559TIP3    H135092   5.279   6.124   4.723 -1.0162 -0.2362 -0.2114
 4559TIP3    H235093   5.213   6.155   4.590 -0.5825 -0.0522 -0.3857
 4560TIP3   OH235094   1.880   5.060   1.804 -0.3161  0.4389 -0.1893
 4560TIP3    H135095   1.959   5.010   1.822 -0.3186  0.6596  0.4590
 4560TIP3    H235096   1.814   4.994   1.783  0.1250  0.2754 -1.1007
 4561TIP3   OH235097   4.727   4.669  16.297 -0.0511 -0.1409  0.7446
 4561TIP3    H135098   4.811   4.638  16.263 -1.3798 -3.8722  0.3968
 4561TIP3    H235099   4.725   4.639  16.388 -0.7346  0.5266  0.9605
 4562TIP3   OH235100   6.013   3.586   3.800  0.2812 -0.0719  0.4688
 4562TIP3    H135101   5.989   3.499   3.830  2.6280 -0.2794  1.9186
 4562TIP3    H235102   6.034   3.635   3.880  0.6866  1.2884 -0.4285
 4563TIP3   OH235103   4.370   5.037  14.258 -0.5319  0.1291  0.1965
 4563TIP3    H135104   4.324   4.970  14.208  1.2432  0.1845 -1.5967
 4563TIP3    H235105   4.302   5.074  14.315 -1.9695 -1.8729 -0.1078
 4564TIP3   OH235106   1.289   4.158  11.693 -0.7271  0.4212 -0.0259
 4564TIP3    H135107   1.355   4.089  11.699 -0.6555  0.4040 -0.9139
 4564TIP3    H235108   1.336   4.237  11.720 -0.4312  0.3475 -0.3077
 4565TIP3   OH235109   2.887   3.020  13.971 -0.0360  0.0385 -0.4246
 4565TIP3    H135110   2.876   3.009  13.877 -0.8532  0.0612 -0.3398
 4565TIP3    H235111   2.971   3.064  13.980 -0.7408  1.6416 -1.2541
 4566TIP3   OH235112   0.769   1.024  15.515 -0.3490 -0.6434 -0.2941
 4566TIP3    H135113   0.797   1.027  15.423 -3.4842  3.8300 -1.3965
 4566TIP3    H235114   0.718   0.943  15.522  0.5987 -1.4710 -2.2173
 4567TIP3   OH235115   0.091   3.997   3.727  0.0300  0.3767  0.1598
 4567TIP3    H135116   0.107   4.052   3.650  0.0450  0.2909  0.1018
 4567TIP3    H235117   0.115   4.053   3.802 -0.1153  0.5064  0.1093
 4568TIP3   OH235118   6.098   6.052  14.911 -0.0555 -0.0688 -0.1295
 4568TIP3    H135119   6.148   6.069  14.991 -1.6962  0.7653  0.7898
 4568TIP3    H235120   6.069   6.139  14.882 -2.5668 -0.5863  0.5262
 4569TIP3   OH235121   0.926   2.837  13.688 -0.0640 -0.4917  0.1595
 4569TIP3    H135122   1.020   2.824  13.679 -0.1477 -0.7358 -0.3493
 4569TIP3    H235123   0.887   2.752  13.672 -0.3519 -0.4997  0.8311
 4570TIP3   OH235124   2.467   2.845  15.857  0.5242 -0.1959 -0.0186
 4570TIP3    H135125   2.527   2.917  15.838  0.9183 -0.0721  1.5596
 4570TIP3    H235126   2.446   2.808  15.772  0.3433  1.7558 -0.8741
 4571TIP3   OH235127   5.979   2.174  16.069  0.3041  0.2179 -0.2566
 4571TIP3    H135128   5.969   2.179  15.974  0.4897  1.4650 -0.2295
 4571TIP3    H235129   5.890   2.179  16.103  0.2445 -0.1416 -0.3499
 4572TIP3   OH235130   1.243   2.207   5.066  0.3047  0.7818 -0.3539
 4572TIP3    H135131   1.157   2.197   5.107  0.5680  0.1035  0.0560
 4572TIP3    H235132   1.243   2.296   5.031 -0.2701  1.0619  0.3330
 4573TIP3   OH235133   0.430   4.615   5.459  0.9068 -0.5588  0.0900
 4573TIP3    H135134   0.372   4.546   5.492  0.4678 -0.1115  0.2783
 4573TIP3    H235135   0.506   4.612   5.516 -0.7837  1.6784  2.6906
 4574TIP3   OH235136   4.129   2.703   4.041  0.4716  0.0327 -0.3515
 4574TIP3    H135137   4.151   2.650   4.118  1.4989  0.1341 -0.5659
 4574TIP3    H235138   4.196   2.771   4.038  0.7618 -0.2754 -1.6315
 4575TIP3   OH235139   6.205   1.194   6.386  0.4548  0.1584  0.0875
 4575TIP3    H135140   6.201   1.273   6.439  0.4757 -0.0106  0.3423
 4575TIP3    H235141   6.223   1.124   6.448 -0.8657 -0.2469  0.0554
 4576TIP3   OH235142   3.599   5.579   4.668 -0.1684  0.0488 -0.0129
 4576TIP3    H135143   3.660   5.583   4.741 -1.2043  0.7404  0.8410
 4576TIP3    H235144   3.581   5.486   4.657  0.2229 -0.0798  0.4184
 4577TIP3   OH235145   1.601   1.542  14.455  0.3876 -0.3466 -0.4466
 4577TIP3    H135146   1.607   1.637  14.456  0.5362 -0.3268  1.4284
 4577TIP3    H235147   1.510   1.524  14.432  0.1026  0.3023  0.1224
 4578TIP3   OH235148   3.733   1.277  11.301 -0.5566 -0.5505 -0.3680
 4578TIP3    H135149   3.744   1.352  11.243  2.4163 -1.7101 -1.5013
 4578TIP3    H235150   3.664   1.225  11.261 -0.4860  0.0597 -1.3076
 4579TIP3   OH235151   2.014   6.233   2.715 -0.4055  0.0741  0.2037
 4579TIP3    H135152   1.959   6.282   2.776 -0.8115 -1.1847  0.8777
 4579TIP3    H235153   2.013   6.285   2.635  0.2352  1.8176  1.2932
 4580TIP3   OH235154   2.585   5.916  13.534 -0.0842 -0.2678  0.4473
 4580TIP3    H135155   2.531   5.849  13.493 -3.1982  2.8329 -1.0913
 4580TIP3    H235156   2.549   5.926  13.622 -2.2841  1.7297 -0.5447
 4581TIP3   OH235157   4.270   0.300  12.458 -0.0022 -0.3601 -0.0942
 4581TIP3    H135158   4.204   0.336  12.399  0.3125  1.0229  0.3733
 4581TIP3    H235159   4.238   0.322  12.545  2.8099  3.7884  0.1630
 4582TIP3   OH235160   4.915   6.287   6.233  0.4102  0.4786 -0.0253
 4582TIP3    H135161   4.910   6.198   6.200  0.9428  0.6891 -0.7194
 4582TIP3    H235162   4.901   6.342   6.156 -0.8360  1.0133  0.5461
 4583TIP3   OH235163   2.703   4.894   5.617 -0.1477  0.0460 -0.5737
 4583TIP3    H135164   2.687   4.944   5.537 -0.3827  1.3075  0.2232
 4583TIP3    H235165   2.616   4.887   5.658  0.3902  2.3640  1.1946
 4584TIP3   OH235166   5.421   5.394   0.368  0.3441 -0.8062 -0.3242
 4584TIP3    H135167   5.456   5.386   0.457 -0.3670 -0.0174  0.0373
 4584TIP3    H235168   5.499   5.412   0.313  0.4225  3.6878  0.8230
 4585TIP3   OH235169   3.196   3.011   5.136 -0.4964 -0.2496 -0.5114
 4585TIP3    H135170   3.132   2.965   5.191 -2.9387  0.9179 -2.2058
 4585TIP3    H235171   3.161   3.003   5.047  1.1748  1.3704 -1.3791
 4586TIP3   OH235172   1.767   1.872  12.789 -0.0744  0.2261  0.1141
 4586TIP3    H135173   1.743   1.882  12.881 -2.0940 -0.2964 -0.3122
 4586TIP3    H235174   1.834   1.804  12.789 -2.0175 -1.8073  1.0069
 4587TIP3   OH235175   0.277   5.205   3.677  0.0209  0.3984 -0.7925
 4587TIP3    H135176   0.196   5.204   3.626 -0.9962 -0.3580  0.7745
 4587TIP3    H235177   0.255   5.256   3.755  0.7608 -0.5494  0.0649
 4588TIP3   OH235178   2.144   2.177   2.277 -0.1753  0.9311 -0.3331
 4588TIP3    H135179   2.051   2.183   2.301 -0.3913 -4.0854  1.2303
 4588TIP3    H235180   2.144   2.131   2.193  0.9129  0.0355  0.1412
 4589TIP3   OH235181   0.818   3.576  14.678  0.4363  0.3628 -0.9637
 4589TIP3    H135182   0.901   3.569  14.724 -0.5550  0.7435  0.9771
 4589TIP3    H235183   0.791   3.485  14.664  0.1533  0.2168  0.3952
 4590TIP3   OH235184   6.490   1.173  11.999  0.1936 -0.4850 -0.5786
 4590TIP3    H135185   6.481   1.079  11.980 -1.9110 -0.0745 -1.9549
 4590TIP3    H235186   6.406   1.211  11.971  0.9630  1.8054  0.0285
 4591TIP3   OH235187   0.224   1.852   3.572  0.4768 -0.1442  0.1541
 4591TIP3    H135188   0.139   1.812   3.592 -0.9638  2.2629 -0.6491
 4591TIP3    H235189   0.238   1.914   3.644  0.7548  0.5977 -0.5252
 4592TIP3   OH235190   2.317   4.137   5.884 -0.0122 -0.3821 -0.2117
 4592TIP3    H135191   2.255   4.071   5.853 -0.8367  1.2598 -2.2702
 4592TIP3    H235192   2.284   4.219   5.849  2.4175  0.7955  0.0627
 4593TIP3   OH235193   0.846   4.208   2.558  0.1788  0.0550  0.2315
 4593TIP3    H135194   0.796   4.131   2.530  0.7517 -0.0645 -0.4846
 4593TIP3    H235195   0.933   4.195   2.522  0.8055  0.1714  1.6146
 4594TIP3   OH235196   3.616   0.567  10.941  0.3868 -0.2677 -0.0543
 4594TIP3    H135197   3.704   0.604  10.948  0.4259 -0.6211  2.0768
 4594TIP3    H235198   3.628   0.487  10.889  1.8548 -1.6443  2.2020
 4595TIP3   OH235199   2.463   5.655   3.460  0.1149  0.5734 -0.2970
 4595TIP3    H135200   2.473   5.713   3.385  1.2662  0.6827 -0.0724
 4595TIP3    H235201   2.469   5.712   3.536  0.4466  0.2686 -0.0903
 4596TIP3   OH235202   5.366   6.698  16.237  0.2266 -0.5402  0.0587
 4596TIP3    H135203   5.389   6.612  16.273  1.7197 -0.4367 -0.5589
 4596TIP3    H235204   5.334   6.680  16.149  0.7070 -0.4661 -0.1358
 4597TIP3   OH235205   1.189   1.901   2.247 -0.2545  0.0555 -0.3080
 4597TIP3    H135206   1.156   1.875   2.333 -1.5228  0.6557 -0.5882
 4597TIP3    H235207   1.124   1.869   2.186  1.5640 -2.0850 -1.2903
 4598TIP3   OH235208   1.043   6.100   0.697 -0.7904  0.2356 -0.2242
 4598TIP3    H135209   1.018   6.071   0.785  0.4461 -0.1662  0.0093
 4598TIP3    H235210   1.089   6.026   0.659  1.2249  1.3711 -0.1315
 4599TIP3   OH235211   0.196   5.727  15.588 -0.1590  0.1042  0.0479
 4599TIP3    H135212   0.118   5.687  15.627 -1.3598 -0.9351 -3.0959
 4599TIP3    H235213   0.258   5.655  15.580  0.2357  0.4021  0.4012
 4600TIP3   OH235214   4.451   1.553   1.973 -0.5591  0.2037 -0.0780
 4600TIP3    H135215   4.499   1.485   2.020 -0.2085 -0.1366 -0.9100
 4600TIP3    H235216   4.515   1.623   1.960 -0.4293 -0.0191 -0.6978
 4601TIP3   OH235217   4.789   4.331   3.569 -0.1594 -0.3612  0.7246
 4601TIP3    H135218   4.725   4.326   3.640 -0.1565  0.8821  0.8341
 4601TIP3    H235219   4.853   4.263   3.590 -0.2276 -0.0969  1.8400
 4602TIP3   OH235220   0.825   0.530   1.814  0.1874 -0.3699  0.1559
 4602TIP3    H135221   0.843   0.624   1.808 -1.5392 -0.0517 -0.3499
 4602TIP3    H235222   0.746   0.524   1.867  1.1647 -1.6683  1.5686
 4603TIP3   OH235223   3.040   5.938  11.486  0.1405 -0.2266  0.2950
 4603TIP3    H135224   3.028   5.889  11.568 -2.6945  0.9923  0.7428
 4603TIP3    H235225   3.026   5.873  11.417  1.8300 -1.1091  0.7223
 4604TIP3   OH235226   5.516   6.598  10.932 -0.0622 -0.1396 -0.3399
 4604TIP3    H135227   5.600   6.601  10.885 -0.2486 -0.0802 -0.6685
 4604TIP3    H235228   5.498   6.689  10.955 -0.2249 -0.1034 -0.6051
 4605TIP3   OH235229   3.893   2.072   1.328 -0.1367  0.4256 -0.1385
 4605TIP3    H135230   3.913   2.002   1.265 -4.5144  0.4423 -1.8765
 4605TIP3    H235231   3.939   2.149   1.294  0.2755 -0.3413 -1.3717
 4606TIP3   OH235232   4.036   0.070   4.678 -0.7610  0.3605 -0.6363
 4606TIP3    H135233   4.010   0.079   4.770  0.0818  0.9880 -0.4476
 4606TIP3    H235234   4.033   0.159   4.643  0.2722  0.3230 -0.8379
 4607TIP3   OH235235   6.409   4.431   5.651 -0.2565  0.1796  0.5073
 4607TIP3    H135236   6.331   4.398   5.606 -1.0052 -0.1875  1.9858
 4607TIP3    H235237   6.418   4.374   5.728  1.7370 -0.0575  0.1549
 4608TIP3   OH235238   2.211   2.270   5.083 -0.0921 -0.6452  0.1106
 4608TIP3    H135239   2.218   2.177   5.108 -0.8403 -0.2846  1.7490
 4608TIP3    H235240   2.117   2.287   5.080  0.0560  0.3047  0.7655
 4609TIP3   OH235241   5.548   0.437   4.061  0.4662  0.7418  0.1106
 4609TIP3    H135242   5.569   0.392   3.979 -0.3356 -0.4153  0.5099
 4609TIP3    H235243   5.598   0.389   4.128 -0.5427  0.2978  0.5708
 4610TIP3   OH235244   3.148   4.570   2.775  0.6923  0.4532  0.2309
 4610TIP3    H135245   3.188   4.607   2.697  1.9913  0.7078  0.9894
 4610TIP3    H235246   3.054   4.585   2.763  0.8037 -0.0132 -1.5168
 4611TIP3   OH235247   5.735   0.464   1.019 -0.0478 -0.4315  0.2313
 4611TIP3    H135248   5.657   0.424   1.058  0.0565  0.0648  0.9744
 4611TIP3    H235249   5.705   0.551   0.991 -0.0172 -0.6315 -0.4315
 4612TIP3   OH235250   1.421   2.125  11.404 -0.3036  0.2117  0.4491
 4612TIP3    H135251   1.431   2.128  11.309 -1.0483 -0.4516  0.3466
 4612TIP3    H235252   1.365   2.200  11.425 -0.5177  0.0838  0.3237
 4613TIP3   OH235253   6.205   0.891  11.691 -0.0896 -0.1240  0.2373
 4613TIP3    H135254   6.164   0.939  11.763  3.4185  2.2688  0.8967
 4613TIP3    H235255   6.251   0.818  11.734  2.7339  1.8026  0.7630
 4614TIP3   OH235256   5.986   0.327   2.023  0.3717  0.0166 -0.4210
 4614TIP3    H135257   6.033   0.260   2.073  0.8756  1.1654  0.6947
 4614TIP3    H235258   5.909   0.347   2.077  0.0850  0.1559 -0.8791
 4615TIP3   OH235259   6.527   4.274   4.919 -0.2483 -0.2091 -0.0167
 4615TIP3    H135260   6.594   4.271   4.851  0.4384 -0.5950  0.6719
 4615TIP3    H235261   6.473   4.196   4.903 -0.1790 -0.2196 -0.2017
 4616TIP3   OH235262   0.959   4.640   1.672  0.2317  0.1817  0.3651
 4616TIP3    H135263   1.025   4.631   1.740 -0.2526 -1.7563  0.6480
 4616TIP3    H235264   1.008   4.633   1.590  0.5064 -0.3269  0.5655
 4617TIP3   OH235265   5.887   0.764   6.591 -0.5588  0.6277 -0.2354
 4617TIP3    H135266   5.897   0.757   6.686 -2.2126  1.6883  0.0593
 4617TIP3    H235267   5.795   0.743   6.575 -0.4098  0.9065 -1.5610
 4618TIP3   OH235268   1.206   4.523   1.100 -0.0547  0.3870  0.4512
 4618TIP3    H135269   1.183   4.525   1.193  0.3161 -0.9130  0.5899
 4618TIP3    H235270   1.225   4.431   1.082  0.6026  0.7393 -0.7404
 4619TIP3   OH235271   6.050   2.182   5.298 -0.5128  0.5064  0.0494
 4619TIP3    H135272   6.013   2.096   5.283  0.7893  0.1965 -1.6834
 4619TIP3    H235273   6.131   2.166   5.346 -0.5413  0.8254  0.2135
 4620TIP3   OH235274   0.207   6.010  14.456  0.5539  0.3758  0.0734
 4620TIP3    H135275   0.296   6.044  14.465  1.4668 -2.1364  1.1919
 4620TIP3    H235276   0.203   5.976  14.366  1.8081 -2.2006  0.9123
 4621TIP3   OH235277   0.597   4.330   2.680  0.5768  0.4457  0.0604
 4621TIP3    H135278   0.633   4.269   2.745 -0.9783 -1.0624 -0.4030
 4621TIP3    H235279   0.664   4.398   2.670  2.0640 -0.7989  1.1372
 4622TIP3   OH235280   0.113   2.802  14.777  0.0090 -0.2626 -1.2106
 4622TIP3    H135281   0.101   2.804  14.872 -0.0714 -2.3037 -1.1205
 4622TIP3    H235282   0.118   2.894  14.751 -1.4267  0.3787  0.5676
 4623TIP3   OH235283   4.948   5.889  14.015  0.1999  0.1596  0.2312
 4623TIP3    H135284   4.919   5.841  14.093  1.3792  1.1004  1.3066
 4623TIP3    H235285   5.019   5.945  14.047 -0.1115  1.4934 -1.2747
 4624TIP3   OH235286   0.460   2.949   2.114  0.2312 -0.5375  0.0233
 4624TIP3    H135287   0.533   2.998   2.152  0.2067 -1.3505  1.1650
 4624TIP3    H235288   0.429   2.893   2.185 -1.9841  0.3103 -0.2031
 4625TIP3   OH235289   3.837   4.888  16.617  0.1819  0.0389  0.4828
 4625TIP3    H135290   3.862   4.945  16.545 -1.0801 -1.4363 -1.2211
 4625TIP3    H235291   3.919   4.865  16.660  0.9714  0.9365 -0.5009
 4626TIP3   OH235292   0.531   2.558   5.360 -0.0565  0.0095  0.1180
 4626TIP3    H135293   0.521   2.617   5.285 -2.4628 -2.1926 -1.4322
 4626TIP3    H235294   0.608   2.592   5.406  1.7714  1.3086 -3.4906
 4627TIP3   OH235295   1.292   3.920   0.372 -0.0962  0.4346  0.2875
 4627TIP3    H135296   1.198   3.938   0.384 -0.3195 -0.2189 -0.3493
 4627TIP3    H235297   1.326   3.909   0.460 -0.8253 -0.2936  0.4897
 4628TIP3   OH235298   1.080   4.990   5.790 -0.4858  0.2369 -0.1813
 4628TIP3    H135299   1.035   4.997   5.706  0.2256  0.7022 -0.5347
 4628TIP3    H235300   1.102   5.080   5.813  1.4496 -0.0636 -0.6930
 4629TIP3   OH235301   5.589   3.090   4.041 -0.5651  0.2924 -0.3279
 4629TIP3    H135302   5.561   3.076   3.950 -0.6506 -0.0714 -0.2469
 4629TIP3    H235303   5.664   3.032   4.052 -0.0332  0.9525 -0.4159
 4630TIP3   OH235304   6.585   5.128  10.949  0.5915  0.3129  0.3267
 4630TIP3    H135305   6.626   5.202  10.904  0.4340  1.6303  2.2450
 4630TIP3    H235306   6.491   5.141  10.937  0.5824 -0.5409 -0.7336
 4631TIP3   OH235307   5.778   3.537  12.867 -0.2337 -0.2300 -0.2333
 4631TIP3    H135308   5.732   3.550  12.784  0.4477  1.5143 -0.3836
 4631TIP3    H235309   5.712   3.552  12.934 -0.6026 -0.8684 -0.4469
 4632TIP3   OH235310   5.246   5.034  15.230  0.1707 -0.3523 -0.6520
 4632TIP3    H135311   5.278   4.953  15.190 -1.3973 -0.6257 -1.4514
 4632TIP3    H235312   5.190   5.073  15.163 -2.0797 -0.5060  0.9981
 4633TIP3   OH235313   2.581   3.582   1.532 -0.1596 -0.1713  0.1799
 4633TIP3    H135314   2.657   3.565   1.477 -0.4053  0.8452 -0.5216
 4633TIP3    H235315   2.588   3.676   1.553 -1.0341 -0.1424  0.3738
 4634TIP3   OH235316   1.831   6.583  13.110  0.3781 -0.9960 -0.3023
 4634TIP3    H135317   1.911   6.601  13.159  0.3486 -0.0325 -0.5799
 4634TIP3    H235318   1.760   6.592  13.174  0.3531  0.0916 -0.4627
 4635TIP3   OH235319   2.694   3.958   0.611 -0.1519  0.3718 -0.3174
 4635TIP3    H135320   2.729   3.897   0.675  0.9653  1.7315  0.4270
 4635TIP3    H235321   2.765   3.970   0.548  0.3244  2.1915  0.5023
 4636TIP3   OH235322   4.033   1.433  14.686 -0.6526  0.6589  0.0439
 4636TIP3    H135323   3.981   1.353  14.673  0.2222  0.2974 -1.6434
 4636TIP3    H235324   3.970   1.498  14.716 -1.5009 -0.4991  0.8725
 4637TIP3   OH235325   1.991   5.003  15.413 -0.1118  0.0845  0.0101
 4637TIP3    H135326   2.045   5.071  15.453 -0.9898  0.9154 -0.2124
 4637TIP3    H235327   1.989   4.933  15.480 -1.5126  1.4278  1.4479
 4638TIP3   OH235328   0.653   2.467   0.758  0.1023 -0.3882 -0.0066
 4638TIP3    H135329   0.625   2.385   0.717 -0.4673 -0.0952 -0.2203
 4638TIP3    H235330   0.711   2.440   0.829  0.1641 -0.9603 -0.2703
 4639TIP3   OH235331   6.199   4.010  15.227 -0.3987 -0.7589 -0.4173
 4639TIP3    H135332   6.128   3.948  15.240 -0.6523 -0.5287 -0.6791
 4639TIP3    H235333   6.164   4.093  15.258  1.0534 -1.3081  3.0831
 4640TIP3   OH235334   6.290   1.586   1.468 -0.1042  0.7527 -0.3205
 4640TIP3    H135335   6.304   1.590   1.562 -0.0603  0.6969 -0.3245
 4640TIP3    H235336   6.216   1.526   1.457  0.4944  0.0100 -0.3772
 4641TIP3   OH235337   3.413   6.547  13.160  0.2280  0.1162  0.3869
 4641TIP3    H135338   3.367   6.572  13.240  1.2503  0.3351  0.9220
 4641TIP3    H235339   3.446   6.630  13.125  0.0570 -0.0152 -0.0954
 4642TIP3   OH235340   4.643   0.469  14.720  0.4567 -0.2684  0.0459
 4642TIP3    H135341   4.571   0.445  14.777  0.1825 -0.1433 -0.2460
 4642TIP3    H235342   4.615   0.550  14.677  1.3939  0.6358  1.0692
 4643TIP3   OH235343   1.430   6.705   5.117  0.3122 -0.5266 -0.0452
 4643TIP3    H135344   1.439   6.700   5.212 -0.5857 -1.2630  0.0241
 4643TIP3    H235345   1.520   6.711   5.084  0.6314 -0.2871  0.8447
 4644TIP3   OH235346   6.679   4.356  14.090  0.0786 -0.0386 -0.0870
 4644TIP3    H135347   6.655   4.285  14.149 -0.6515  0.3530  0.0984
 4644TIP3    H235348   6.728   4.313  14.019 -0.4505 -0.7435 -0.0335
 4645TIP3   OH235349   2.827   1.952  16.580 -0.5487  0.1078 -0.5110
 4645TIP3    H135350   2.847   1.884  16.516 -0.0577 -0.1170 -0.1290
 4645TIP3    H235351   2.746   1.992  16.549 -0.8508 -0.6606 -0.7306
 4646TIP3   OH235352   1.454   1.395  16.517  0.4158 -0.0192 -0.2016
 4646TIP3    H135353   1.518   1.430  16.456  0.1823 -3.1082 -2.4307
 4646TIP3    H235354   1.393   1.467  16.533  1.2573  1.2977 -2.5549
 4647TIP3   OH235355   5.848   4.840  14.054  0.2768  0.1776  0.2984
 4647TIP3    H135356   5.851   4.761  14.001  3.4483  0.3126  0.0912
 4647TIP3    H235357   5.915   4.897  14.017 -2.0011  3.1365  0.3103
 4648TIP3   OH235358   6.452   2.333  11.043 -0.3049 -0.1085 -0.2126
 4648TIP3    H135359   6.531   2.324  10.991  0.1283  1.6012  0.0679
 4648TIP3    H235360   6.384   2.357  10.980 -0.5682 -1.3715 -0.4255
 4649TIP3   OH235361   4.246   4.750  17.240  0.2884  0.3710  0.5658
 4649TIP3    H135362   4.313   4.790  17.185  0.3111  0.0949  0.3907
 4649TIP3    H235363   4.181   4.717  17.178  0.5945 -0.4501  0.6772
 4650TIP3   OH235364   4.761   2.851   0.306 -0.2512  0.0053  0.0666
 4650TIP3    H135365   4.727   2.788   0.242  0.4600 -0.0837 -0.2272
 4650TIP3    H235366   4.699   2.924   0.302  0.0090  0.1834 -1.0329
 4651TIP3   OH235367   2.649   3.556  13.018 -0.1186  0.2487 -0.2434
 4651TIP3    H135368   2.597   3.545  12.939  1.5744  0.5996 -1.4495
 4651TIP3    H235369   2.626   3.644  13.050  0.5259  0.8553 -1.3918
 4652TIP3   OH235370   2.954   3.711   3.380  0.4323 -0.2413  0.0563
 4652TIP3    H135371   3.041   3.700   3.342  0.6100  2.4391 -0.4843
 4652TIP3    H235372   2.969   3.711   3.475  1.0561  0.3175 -0.0336
 4653TIP3   OH235373   2.632   1.179  12.843  0.1659  0.3073 -0.5612
 4653TIP3    H135374   2.599   1.091  12.824 -0.5780  0.8240 -1.7749
 4653TIP3    H235375   2.632   1.184  12.939 -1.9792 -0.2226 -0.4863
 4654TIP3   OH235376   2.991   0.337  17.373  0.1244 -0.4890  0.7337
 4654TIP3    H135377   2.957   0.427  17.364 -0.0514 -0.5971  0.2680
 4654TIP3    H235378   2.960   0.292  17.294  0.0223 -1.0214  1.0714
 4655TIP3   OH235379   2.760   4.745   3.919 -0.4833 -0.3287 -0.0039
 4655TIP3    H135380   2.795   4.657   3.909  2.7456  0.8364 -0.0538
 4655TIP3    H235381   2.701   4.756   3.843 -1.9171 -2.7480  0.6407
 4656TIP3   OH235382   2.244   0.204  10.941 -0.6553  0.1306  0.4110
 4656TIP3    H135383   2.262   0.297  10.926 -1.7741  0.0536 -1.8208
 4656TIP3    H235384   2.151   0.194  10.925 -0.8154 -1.2045  1.8627
 4657TIP3   OH235385   5.490   3.077   5.816  0.2254 -0.4128  0.3169
 4657TIP3    H135386   5.408   3.030   5.826 -0.0067 -0.5862 -1.9440
 4657TIP3    H235387   5.557   3.016   5.848 -0.3516 -1.0714  0.2914
 4658TIP3   OH235388   2.157   4.650  15.573  0.0556  0.5442 -0.7276
 4658TIP3    H135389   2.190   4.681  15.657 -0.5935 -0.4812 -0.0846
 4658TIP3    H235390   2.188   4.560  15.566 -0.8297  0.2546 -1.0653
 4659TIP3   OH235391   3.960   2.695  15.849 -0.9531  0.3723  0.4165
 4659TIP3    H135392   3.927   2.753  15.918 -1.4704 -2.1237  2.4576
 4659TIP3    H235393   3.882   2.661  15.806 -0.6335  1.7867 -1.3914
 4660TIP3   OH235394   0.418   4.926  13.890  0.2490  0.0801 -0.7601
 4660TIP3    H135395   0.334   4.929  13.843 -0.1003  0.1857 -0.1402
 4660TIP3    H235396   0.397   4.956  13.978  1.0277  0.5044 -0.7131
 4661TIP3   OH235397   4.090   1.443  13.213  0.1214 -0.1834 -0.5646
 4661TIP3    H135398   4.038   1.520  13.189  1.9478  1.2333 -0.2213
 4661TIP3    H235399   4.101   1.450  13.308 -1.1443 -1.8818 -0.2371
 4662TIP3   OH235400   2.883   2.417   2.246  0.3572 -0.7568 -0.3075
 4662TIP3    H135401   2.896   2.512   2.240  0.1294 -0.6034  1.2303
 4662TIP3    H235402   2.860   2.390   2.157 -0.7318  0.8130 -0.5369
 4663TIP3   OH235403   5.014   0.451  16.481  0.1703  0.4431 -0.2643
 4663TIP3    H135404   5.035   0.542  16.500 -0.0801  0.6967 -1.1238
 4663TIP3    H235405   5.086   0.401  16.521 -0.7088  0.8393  1.9414
 4664TIP3   OH235406   1.596   6.637   3.990  0.7456 -0.1022  0.7697
 4664TIP3    H135407   1.525   6.578   3.963 -0.1199  1.3325 -0.2486
 4664TIP3    H235408   1.643   6.589   4.058  1.0111 -2.6004 -1.0430
 4665TIP3   OH235409   0.418   0.275  13.841  0.3068  0.0340 -0.4864
 4665TIP3    H135410   0.425   0.371  13.846 -1.4958  0.1613  0.2298
 4665TIP3    H235411   0.328   0.259  13.813 -0.5400 -1.4841  2.7181
 4666TIP3   OH235412   4.118   6.028  12.634  0.2624  0.2693 -0.0200
 4666TIP3    H135413   4.174   6.017  12.558  0.4045 -0.2882  0.1632
 4666TIP3    H235414   4.122   6.122  12.653 -0.5485  0.5735 -1.2765
 4667TIP3   OH235415   2.511   5.676  12.795 -0.3528 -0.3210 -0.5207
 4667TIP3    H135416   2.473   5.757  12.830  2.8959  0.2762  2.0516
 4667TIP3    H235417   2.500   5.612  12.865 -0.6125 -1.4246 -1.5419
 4668TIP3   OH235418   0.299   1.163  12.831  0.7400 -0.7671  0.5934
 4668TIP3    H135419   0.392   1.157  12.856  0.8117  1.5102  1.0920
 4668TIP3    H235420   0.251   1.156  12.914  0.4199 -2.0949  0.3198
 4669TIP3   OH235421   1.014   5.119   3.492  0.7849 -0.0169 -0.1884
 4669TIP3    H135422   1.041   5.028   3.482 -4.6024 -1.9043 -0.9739
 4669TIP3    H235423   0.996   5.148   3.402  0.3543  1.0618  0.2372
 4670TIP3   OH235424   3.798   0.627   4.009 -0.1477  0.5053  0.1372
 4670TIP3    H135425   3.875   0.645   4.063 -0.1234  1.0066 -0.0558
 4670TIP3    H235426   3.735   0.694   4.034 -1.1810 -0.9190  1.5309
 4671TIP3   OH235427   0.817   1.559  13.403  0.0181  0.4692  0.5309
 4671TIP3    H135428   0.822   1.498  13.329  0.8791  0.0588  0.9075
 4671TIP3    H235429   0.803   1.503  13.479  0.2657  0.7863  0.8131
 4672TIP3   OH235430   0.430   2.334  11.782 -0.1976 -0.1873  0.2074
 4672TIP3    H135431   0.518   2.349  11.746 -1.0184  0.8337 -1.5014
 4672TIP3    H235432   0.405   2.418  11.820  0.6435 -1.2300  3.3864
 4673TIP3   OH235433   6.347   6.080  14.767 -0.4127  0.0845 -0.0820
 4673TIP3    H135434   6.312   5.993  14.787  1.5382 -0.5891  0.5627
 4673TIP3    H235435   6.298   6.108  14.688 -2.1474 -0.8912  0.5868
 4674TIP3   OH235436   0.830   3.729   5.475  0.2110  0.3214 -0.0673
 4674TIP3    H135437   0.861   3.639   5.463  1.4015  0.8367 -0.9450
 4674TIP3    H235438   0.904   3.784   5.453 -0.1002  1.5427  1.6706
 4675TIP3   OH235439   0.908   2.321  12.514 -0.5539 -0.6467 -0.0005
 4675TIP3    H135440   0.957   2.388  12.465 -1.2502 -0.1165  0.0070
 4675TIP3    H235441   0.951   2.318  12.600 -0.8463  0.1862  0.1833
 4676TIP3   OH235442   1.196   3.617   0.655 -0.0692  0.2737  0.0188
 4676TIP3    H135443   1.119   3.568   0.681  0.1439  0.6376  1.3903
 4676TIP3    H235444   1.202   3.689   0.718  2.3614 -0.7588  1.1091
 4677TIP3   OH235445   6.525   5.619   2.357  0.1087 -0.4274 -0.0167
 4677TIP3    H135446   6.571   5.701   2.343 -0.7145  0.1289  0.4437
 4677TIP3    H235447   6.594   5.553   2.364  0.7386  0.0324 -1.5137
 4678TIP3   OH235448   0.774   5.222  14.817 -0.3012 -0.3655  0.1638
 4678TIP3    H135449   0.850   5.196  14.765 -0.3814  0.3242 -0.3223
 4678TIP3    H235450   0.764   5.316  14.800 -0.1404 -0.0445  1.6972
 4679TIP3   OH235451   4.153   3.303   0.340  0.7969 -0.0552  0.3497
 4679TIP3    H135452   4.159   3.356   0.419 -1.1768  0.9409 -0.1112
 4679TIP3    H235453   4.243   3.302   0.305  1.1261  2.0380  0.9847
 4680TIP3   OH235454   5.950   6.683  11.935  0.1284  0.1077  0.1457
 4680TIP3    H135455   6.014   6.744  11.899  0.3443  0.9585  1.8404
 4680TIP3    H235456   5.881   6.740  11.971 -0.1444 -0.6777  0.8900
 4681TIP3   OH235457   0.317   0.738   2.901 -0.0209  0.2475  0.1866
 4681TIP3    H135458   0.240   0.792   2.883 -1.6745 -1.6123  1.3255
 4681TIP3    H235459   0.296   0.653   2.864  0.2545 -1.0962  2.8533
 4682TIP3   OH235460   4.844   1.193   4.064  0.4073 -0.3669  0.0716
 4682TIP3    H135461   4.791   1.121   4.029  0.7135 -0.7517  0.3827
 4682TIP3    H235462   4.894   1.224   3.988 -0.4458  0.1823 -0.2865
 4683TIP3   OH235463   4.643   3.743   4.502  0.0470  0.3921 -0.3042
 4683TIP3    H135464   4.583   3.703   4.565  1.1386 -0.7438  0.0527
 4683TIP3    H235465   4.677   3.821   4.547  1.8154 -1.1182  1.0969
 4684TIP3   OH235466   4.229   5.323  12.370 -0.4022  0.3067 -0.5530
 4684TIP3    H135467   4.274   5.319  12.454 -1.5283 -0.8362  0.0429
 4684TIP3    H235468   4.273   5.393  12.322 -0.3348  1.6360  1.3278
 4685TIP3   OH235469   0.858   0.344  14.495  0.0352  0.2600  0.0734
 4685TIP3    H135470   0.940   0.318  14.538 -0.3088 -1.2560 -0.1155
 4685TIP3    H235471   0.822   0.412  14.551 -0.0863 -1.1986  1.8873
 4686TIP3   OH235472   1.642   3.291   4.668  0.3943 -0.0665  0.1530
 4686TIP3    H135473   1.616   3.374   4.627 -0.4038 -0.7012 -0.6612
 4686TIP3    H235474   1.560   3.249   4.693  0.8049 -0.4700  0.8661
 4687TIP3   OH235475   1.763   0.153   5.288 -0.0232 -0.0855 -0.0137
 4687TIP3    H135476   1.708   0.176   5.213 -0.5620 -1.7483 -0.1664
 4687TIP3    H235477   1.707   0.097   5.342  0.8609 -0.1479  0.8562
 4688TIP3   OH235478   3.874   5.105   2.715 -0.2257  0.5231  0.8013
 4688TIP3    H135479   3.919   5.112   2.630  0.6298  0.1096  1.2096
 4688TIP3    H235480   3.894   5.017   2.745 -0.2189  0.7989  1.6132
 4689TIP3   OH235481   5.042   5.018   5.499 -0.8641  0.3755  0.0567
 4689TIP3    H135482   5.064   5.019   5.592  1.1095  1.7527 -0.3709
 4689TIP3    H235483   4.951   4.987   5.496 -1.5036  1.7615  2.5443
 4690TIP3   OH235484   2.168   1.508  14.302  0.4252  0.1987  0.1102
 4690TIP3    H135485   2.110   1.466  14.367  1.6608 -1.8797 -0.0273
 4690TIP3    H235486   2.134   1.478  14.218  0.8721  0.0799 -0.0284
 4691TIP3   OH235487   2.532   6.067  16.785 -0.2653 -0.1716 -0.4661
 4691TIP3    H135488   2.481   6.042  16.708 -1.3967 -0.0032  0.2138
 4691TIP3    H235489   2.601   6.124  16.750  0.3402 -1.5265 -1.5799
 4692TIP3   OH235490   4.797   2.105  13.505  0.0632  0.0754  0.6469
 4692TIP3    H135491   4.829   2.035  13.562  1.7172  0.2554  0.0076
 4692TIP3    H235492   4.702   2.093  13.503  0.1973 -1.3817  1.5380
 4693TIP3   OH235493   1.006   2.295  12.982  0.1130 -0.0316  0.3478
 4693TIP3    H135494   1.008   2.234  12.908  1.1465  1.3247 -0.7993
 4693TIP3    H235495   0.917   2.287  13.017 -1.0111  0.5285 -2.1427
 4694TIP3   OH235496   6.347   3.694  14.953  0.3145 -0.5837 -0.4952
 4694TIP3    H135497   6.328   3.681  14.861  0.7479  1.2597 -0.8958
 4694TIP3    H235498   6.300   3.624  14.998 -1.1966 -0.5892 -1.9902
 4695TIP3   OH235499   0.969   0.122  15.774 -0.0370  0.0186 -0.2919
 4695TIP3    H135500   0.951   0.028  15.786  0.0684 -0.1091 -1.0824
 4695TIP3    H235501   0.886   0.159  15.745 -0.2805  0.3206  0.7243
 4696TIP3   OH235502   4.217   1.685   4.800 -0.5076  0.0666 -0.7125
 4696TIP3    H135503   4.138   1.722   4.840  1.6315  2.9169  1.2725
 4696TIP3    H235504   4.232   1.738   4.722 -0.9656 -1.0485 -1.5838
 4697TIP3   OH235505   3.189   6.592  15.541  0.4195 -0.0409 -0.2259
 4697TIP3    H135506   3.112   6.537  15.556  0.1807 -0.8426 -3.5785
 4697TIP3    H235507   3.177   6.666  15.600 -2.3719 -0.6833  0.1722
 4698TIP3   OH235508   1.495   6.587   3.703 -0.1284  0.6979  0.0969
 4698TIP3    H135509   1.577   6.629   3.678 -0.5816  2.1435  0.9060
 4698TIP3    H235510   1.427   6.641   3.664 -0.7280 -0.4646 -0.5334
 4699TIP3   OH235511   4.731   1.463   4.369  0.8361  0.0087 -0.0983
 4699TIP3    H135512   4.746   1.523   4.297 -0.3132 -1.1990 -1.4094
 4699TIP3    H235513   4.808   1.406   4.370  0.7441 -0.1286 -0.5605
 4700TIP3   OH235514   1.762   6.306  13.771 -0.3869  0.9139 -0.0027
 4700TIP3    H135515   1.723   6.225  13.739  1.0114  0.4741 -0.6690
 4700TIP3    H235516   1.748   6.369  13.700  1.3966  0.3396 -0.9245
 4701TIP3   OH235517   2.565   3.777  16.442 -0.6080 -0.0746 -0.2667
 4701TIP3    H135518   2.554   3.859  16.489 -0.0496  0.2956 -0.7689
 4701TIP3    H235519   2.658   3.757  16.449 -0.2581  0.6304 -2.2249
 4702TIP3   OH235520   6.204   4.097   4.735  0.0576 -0.6029  0.6708
 4702TIP3    H135521   6.202   4.013   4.688  0.5954 -0.7400  0.8851
 4702TIP3    H235522   6.295   4.105   4.765  0.0075  0.0533  0.6618
 4703TIP3   OH235523   2.268   2.369  14.663  0.1447  0.2457  0.0288
 4703TIP3    H135524   2.307   2.282  14.655  1.7110  0.8859  0.2067
 4703TIP3    H235525   2.192   2.367  14.605  0.2275 -1.1849 -0.0757
 4704TIP3   OH235526   0.332   4.707  14.436  0.3934 -0.5926  0.4013
 4704TIP3    H135527   0.308   4.643  14.368 -1.8326 -1.1722  1.6182
 4704TIP3    H235528   0.392   4.767  14.392  1.8547 -2.9417 -1.0785
 4705TIP3   OH235529   0.714   3.637   0.221 -0.0591 -0.2930  0.2684
 4705TIP3    H135530   0.785   3.572   0.227  1.2789  0.9770 -1.1003
 4705TIP3    H235531   0.678   3.625   0.133 -0.1732  0.4176  0.2116
 4706TIP3   OH235532   6.645   4.924  14.898  0.3564  0.9489  0.4447
 4706TIP3    H135533   6.724   4.974  14.880  1.4399 -0.7824  0.1772
 4706TIP3    H235534   6.611   4.899  14.812 -0.4388  1.5536  0.5607
 4707TIP3   OH235535   3.920   0.460   5.632 -0.0111  0.8524 -0.6719
 4707TIP3    H135536   3.981   0.436   5.702  0.6572  1.8392 -0.8919
 4707TIP3    H235537   3.868   0.531   5.669 -1.8055 -0.6725 -0.1070
 4708TIP3   OH235538   0.164   0.988  11.795  0.4395  0.3603 -0.4633
 4708TIP3    H135539   0.116   0.914  11.832 -1.7382  1.1778 -1.5047
 4708TIP3    H235540   0.212   0.951  11.721  0.3992 -0.2466 -0.1917
 4709TIP3   OH235541   3.825   1.743  16.318 -0.4613 -0.8204  0.6610
 4709TIP3    H135542   3.847   1.658  16.281 -0.0265 -0.4457  0.0411
 4709TIP3    H235543   3.866   1.743  16.405  0.7758 -0.6981  0.0991
 4710TIP3   OH235544   5.253   5.050   2.686 -0.3525 -0.4545 -0.3047
 4710TIP3    H135545   5.216   5.024   2.602  1.0085 -0.4646 -0.9289
 4710TIP3    H235546   5.293   4.970   2.720  1.4493  0.1252 -0.9412
 4711TIP3   OH235547   5.321   6.339   5.828  0.3652  0.1550  0.6591
 4711TIP3    H135548   5.339   6.249   5.800 -1.2163  0.4223 -1.4849
 4711TIP3    H235549   5.363   6.347   5.913 -0.3138 -2.9344  1.3840
 4712TIP3   OH235550   3.984   5.450   5.523  0.5592 -0.0767 -0.2217
 4712TIP3    H135551   3.891   5.443   5.541  0.3107  0.6116 -1.1692
 4712TIP3    H235552   4.024   5.382   5.577 -0.5636 -0.9310 -0.4330
 4713TIP3   OH235553   2.373   2.828   2.105 -0.3032  0.4439 -0.0535
 4713TIP3    H135554   2.352   2.768   2.176  2.1810 -0.9293 -0.3617
 4713TIP3    H235555   2.296   2.826   2.048  0.1616 -3.6827 -0.8341
 4714TIP3   OH235556   5.980   2.632   0.223 -0.0043 -0.1380  0.1689
 4714TIP3    H135557   5.964   2.722   0.193  1.2986  0.4005  1.0085
 4714TIP3    H235558   5.896   2.588   0.212  0.1186  0.1976 -3.5370
 4715TIP3   OH235559   4.136   6.528   5.009 -0.0127 -0.4030  0.4044
 4715TIP3    H135560   4.121   6.587   5.082  1.8247 -1.2342  1.5322
 4715TIP3    H235561   4.197   6.576   4.952 -0.0986 -0.4364  0.2830
 4716TIP3   OH235562   6.386   0.198  13.472 -0.2894 -0.0530 -0.0055
 4716TIP3    H135563   6.379   0.288  13.504 -0.5018 -0.4973  1.2581
 4716TIP3    H235564   6.479   0.186  13.452 -0.6710  1.4191 -3.2873
 4717TIP3   OH235565   5.238   1.637  11.130 -0.5529 -0.1299  0.0679
 4717TIP3    H135566   5.284   1.568  11.178  0.3367  0.3993  0.0012
 4717TIP3    H235567   5.216   1.597  11.046  0.7835 -0.0734 -0.3356
 4718TIP3   OH235568   3.259   4.227  14.649 -0.5563  0.3495 -0.4012
 4718TIP3    H135569   3.315   4.216  14.726 -2.0907  2.0794  1.0760
 4718TIP3    H235570   3.186   4.167  14.664 -1.5151  1.6327  0.1949
 4719TIP3   OH235571   0.934   6.161  14.758  0.6123 -0.7601  0.0870
 4719TIP3    H135572   0.979   6.077  14.770 -0.6560 -1.2035  2.2942
 4719TIP3    H235573   0.963   6.214  14.831 -0.4971 -0.1648  0.1133
 4720TIP3   OH235574   3.786   4.957   5.088 -0.1085  0.0383 -0.3657
 4720TIP3    H135575   3.738   5.037   5.069 -1.5509 -0.5742  0.5027
 4720TIP3    H235576   3.718   4.892   5.106  1.0132 -1.5224 -1.5364
 4721TIP3   OH235577   1.926   2.912  12.496  0.0666 -0.0010 -0.4581
 4721TIP3    H135578   1.907   2.875  12.409 -1.1494 -1.6698  0.4707
 4721TIP3    H235579   1.852   2.886  12.550 -0.0087  2.4128  0.7301
 4722TIP3   OH235580   0.615   4.006  13.124 -0.2220  0.2843  0.3503
 4722TIP3    H135581   0.545   4.071  13.134 -1.4998 -1.2078  1.4354
 4722TIP3    H235582   0.639   4.011  13.031 -0.9807  1.5861  0.1944
 4723TIP3   OH235583   2.091   0.311  11.226  0.6958 -0.0474  0.1071
 4723TIP3    H135584   2.064   0.402  11.237  2.5334  0.4777  0.6091
 4723TIP3    H235585   2.115   0.304  11.133 -1.4082 -0.6397 -0.4571
 4724TIP3   OH235586   2.245   3.789  17.196  0.3408  0.7766 -0.2384
 4724TIP3    H135587   2.328   3.766  17.238  0.8797  0.5750 -1.3735
 4724TIP3    H235588   2.254   3.758  17.105 -1.1003  0.4720 -0.3026
 4725TIP3   OH235589   4.021   1.304   6.653  0.1072  0.3617 -0.0806
 4725TIP3    H135590   4.111   1.326   6.676  1.0402 -3.6212  0.9105
 4725TIP3    H235591   4.029   1.236   6.586 -2.2756  1.2305 -1.3786
 4726TIP3   OH235592   1.720   1.649   3.676 -0.2116  0.3481  0.2330
 4726TIP3    H135593   1.753   1.733   3.646 -1.5037  0.3594 -1.2653
 4726TIP3    H235594   1.723   1.592   3.599 -2.1714 -0.0773  0.4194
 4727TIP3   OH235595   6.622   2.863  13.631  0.1367 -0.3711  0.4957
 4727TIP3    H135596   6.681   2.877  13.557  1.5143 -1.6518  1.2864
 4727TIP3    H235597   6.678   2.871  13.708 -0.7792 -1.2661  1.2943
 4728TIP3   OH235598   5.024   5.942  11.731 -0.2062 -0.2136 -0.1852
 4728TIP3    H135599   5.091   5.874  11.734 -0.7271 -0.7671 -0.7687
 4728TIP3    H235600   5.048   5.995  11.655 -0.2898 -0.2598 -0.2430
 4729TIP3   OH235601   5.557   6.309  14.466 -0.7454  0.3253 -0.3050
 4729TIP3    H135602   5.645   6.294  14.429 -0.4452 -0.7283  0.7887
 4729TIP3    H235603   5.566   6.389  14.517 -0.3295  0.0450  0.0656
 4730TIP3   OH235604   6.234   5.203   1.521 -0.3731 -0.3648  0.2960
 4730TIP3    H135605   6.244   5.280   1.465  0.9040  0.7940  2.0049
 4730TIP3    H235606   6.149   5.215   1.564 -1.3978 -1.2982 -1.3157
 4731TIP3   OH235607   3.023   6.078   0.305  0.2651 -0.1839  0.0141
 4731TIP3    H135608   3.113   6.104   0.325  0.7099 -1.5925 -0.0597
 4731TIP3    H235609   2.985   6.052   0.389  0.5392 -1.3534 -0.2055
 4732TIP3   OH235610   1.520   2.341   1.114  0.3422  0.4213  0.2671
 4732TIP3    H135611   1.558   2.314   1.030 -1.2224 -0.0747 -0.3111
 4732TIP3    H235612   1.445   2.282   1.127 -1.3192  2.4809  0.5001
 4733TIP3   OH235613   0.047   0.454  16.035  0.7029 -0.1037  0.1324
 4733TIP3    H135614   0.138   0.427  16.021  1.0696  1.3270 -0.3178
 4733TIP3    H235615  -0.002   0.404  15.969  1.3582  0.2616 -0.6559
 4734TIP3   OH235616   6.743   5.495  11.893 -0.1588 -0.3239  0.1864
 4734TIP3    H135617   6.672   5.436  11.919 -0.3496  0.7832  2.3491
 4734TIP3    H235618   6.802   5.498  11.969  1.8786 -0.6616 -1.2847
 4735TIP3   OH235619   0.941   4.617   2.824 -0.8029 -0.7868 -0.7955
 4735TIP3    H135620   0.959   4.544   2.883  0.6399  0.9973  1.1321
 4735TIP3    H235621   1.027   4.642   2.790 -0.9726  1.2102  0.1279
 4736TIP3   OH235622   2.689   3.225   4.531 -0.8090 -0.2125 -0.3206
 4736TIP3    H135623   2.651   3.284   4.596 -1.0204  0.5969 -1.1718
 4736TIP3    H235624   2.619   3.163   4.512 -0.4178 -1.1057  0.9629
 4737TIP3   OH235625   0.793   3.225  14.446  0.0813  0.8836 -0.2878
 4737TIP3    H135626   0.830   3.148  14.401 -1.8837  0.0554 -0.5999
 4737TIP3    H235627   0.780   3.196  14.536 -0.5901  0.8512 -0.3867
 4738TIP3   OH235628   5.618   2.747  12.733  0.0042  0.1952  0.2209
 4738TIP3    H135629   5.587   2.703  12.654  0.6159  1.8328 -0.9773
 4738TIP3    H235630   5.568   2.829  12.735 -0.0719  0.1353  1.6070
 4739TIP3   OH235631   5.305   5.333   3.240 -0.3419  0.7138  0.3361
 4739TIP3    H135632   5.321   5.388   3.163 -1.3403 -0.1073 -0.4765
 4739TIP3    H235633   5.291   5.396   3.311  0.3869  1.4837 -0.1788
 4740TIP3   OH235634   3.961   1.850   5.235 -0.6703  0.1028 -0.2793
 4740TIP3    H135635   4.047   1.872   5.198  0.2823 -0.2741  1.6085
 4740TIP3    H235636   3.970   1.864   5.329 -2.4512 -0.6935  0.0653
 4741TIP3   OH235637   6.125   1.011   3.095  0.5838  0.2329  0.2934
 4741TIP3    H135638   6.113   1.103   3.119 -0.7524 -0.0707  0.8578
 4741TIP3    H235639   6.160   0.970   3.174 -0.9694 -0.1704  0.8045
 4742TIP3   OH235640   4.917   1.735  13.916  0.2014 -0.1693 -0.1558
 4742TIP3    H135641   4.917   1.658  13.972  0.7608  0.0517  0.1515
 4742TIP3    H235642   4.922   1.809  13.977 -2.6295  0.2551 -0.2788
 4743TIP3   OH235643   0.873   1.469   4.645 -0.0246  0.0965 -0.1925
 4743TIP3    H135644   0.966   1.473   4.668  0.4083 -0.8922 -1.5649
 4743TIP3    H235645   0.830   1.528   4.706  1.4477  0.2187  0.7819
 4744TIP3   OH235646   1.813   4.677   4.197 -0.2562  0.2655 -0.3911
 4744TIP3    H135647   1.795   4.583   4.192 -0.4969  0.2417  0.7165
 4744TIP3    H235648   1.749   4.710   4.260  1.9195  0.5985  1.7889
 4745TIP3   OH235649   0.225   2.397  14.914  0.0818  0.0911 -0.2777
 4745TIP3    H135650   0.289   2.445  14.861  1.1301 -0.6189  0.2937
 4745TIP3    H235651   0.262   2.399  15.002 -1.3838  0.8316  0.3539
 4746TIP3   OH235652   6.606   3.604  10.471 -0.4289  0.1947 -0.0900
 4746TIP3    H135653   6.639   3.650  10.548 -0.0242 -1.2524  0.6329
 4746TIP3    H235654   6.685   3.568  10.430 -0.7243  0.2479 -0.7158
 4747TIP3   OH235655   4.939   3.584   5.710  0.8065 -0.4530  0.3378
 4747TIP3    H135656   4.861   3.631   5.739  1.7638  0.5673  1.3585
 4747TIP3    H235657   4.910   3.535   5.633 -0.5444  0.8167 -0.0010
 4748TIP3   OH235658   4.773   5.692   5.371  0.2205  0.0448 -0.0266
 4748TIP3    H135659   4.711   5.760   5.348 -0.8143 -0.7762  0.2492
 4748TIP3    H235660   4.823   5.728   5.445 -1.0959  0.0710  0.8761
 4749TIP3   OH235661   5.162   1.401   1.802  0.7033 -0.3918 -0.2861
 4749TIP3    H135662   5.077   1.362   1.782 -0.3248  0.8128  1.4125
 4749TIP3    H235663   5.194   1.351   1.878  0.5513  0.4105  0.3252
 4750TIP3   OH235664   5.828   3.071   4.616 -1.1611  0.0378  0.2862
 4750TIP3    H135665   5.856   2.980   4.607 -3.6388 -0.9460  1.4526
 4750TIP3    H235666   5.877   3.104   4.692  0.0939 -0.1242 -0.4258
 4751TIP3   OH235667   3.526   0.188   3.519 -0.5365  0.3989  0.0695
 4751TIP3    H135668   3.435   0.173   3.545 -0.1177 -2.0979  0.3134
 4751TIP3    H235669   3.567   0.102   3.523  1.5318  1.2344 -1.3127
 4752TIP3   OH235670   1.965   1.344  15.140  0.7973 -0.0995  0.2042
 4752TIP3    H135671   1.923   1.293  15.209  1.7523 -0.9129  0.1995
 4752TIP3    H235672   2.049   1.371  15.177  0.4465  1.2276  0.0917
 4753TIP3   OH235673   1.814   6.239   1.070 -0.7363  0.2984  0.3887
 4753TIP3    H135674   1.847   6.159   1.110  2.2174  1.2310  0.0415
 4753TIP3    H235675   1.825   6.226   0.976 -1.4757  0.6446  0.2398
 4754TIP3   OH235676   4.979   6.417   1.919 -0.5285 -0.7803 -0.0839
 4754TIP3    H135677   4.983   6.332   1.876  1.3496 -0.2574 -1.0608
 4754TIP3    H235678   5.047   6.469   1.875 -1.1574  0.9943  0.9573
 4755TIP3   OH235679   1.778   5.029   5.010  0.4935  0.1700  0.4984
 4755TIP3    H135680   1.848   5.011   5.073 -1.2123 -1.7860  1.9817
 4755TIP3    H235681   1.697   5.014   5.059 -0.9371 -0.3744 -1.8786
 4756TIP3   OH235682   5.606   1.493  13.374  0.1768  0.2059 -0.2561
 4756TIP3    H135683   5.665   1.457  13.440  0.3799  0.2110 -0.4334
 4756TIP3    H235684   5.546   1.549  13.423  1.9718  2.3571 -0.3728
 4757TIP3   OH235685   2.702   3.103   4.053  0.1759  0.4049 -0.2768
 4757TIP3    H135686   2.622   3.090   4.104 -0.0363  1.0213 -0.4435
 4757TIP3    H235687   2.740   3.016   4.046 -0.3189  0.1545  0.0722
 4758TIP3   OH235688   6.484   2.144  13.481  0.0171  0.2058  0.3839
 4758TIP3    H135689   6.561   2.105  13.522  1.4395  0.1615 -2.1003
 4758TIP3    H235690   6.420   2.152  13.551  2.4138  0.6409  2.6683
 4759TIP3   OH235691   3.452   1.578  17.330 -0.5395  0.0696 -0.0047
 4759TIP3    H135692   3.527   1.523  17.307 -1.1699 -0.5613 -0.6104
 4759TIP3    H235693   3.400   1.583  17.250 -1.9046 -0.7476  0.7959
 4760TIP3   OH235694   0.138   2.274  16.253 -0.3761  0.1266  0.3328
 4760TIP3    H135695   0.123   2.238  16.341  1.0077  0.4242  0.7223
 4760TIP3    H235696   0.157   2.366  16.268 -0.3666  0.2290 -0.3049
 4761TIP3   OH235697   2.541   5.956   3.373  0.2329 -0.1913 -0.2982
 4761TIP3    H135698   2.611   5.942   3.309 -1.2274 -0.2402 -1.9326
 4761TIP3    H235699   2.471   5.999   3.324 -1.0298 -0.4388  1.2136
 4762TIP3   OH235700   4.957   2.067   3.749  0.0799 -0.1518 -0.5713
 4762TIP3    H135701   4.934   2.152   3.711  0.9097  0.8662  1.0897
 4762TIP3    H235702   5.024   2.032   3.691  0.5876  0.8776 -0.6268
 4763TIP3   OH235703   1.421   2.418   0.527 -0.1001  0.0756  0.2464
 4763TIP3    H135704   1.459   2.338   0.491 -0.0406  0.4391 -0.5156
 4763TIP3    H235705   1.489   2.485   0.514 -0.8213  0.6368 -0.7585
 4764TIP3   OH235706   1.674   4.252   2.284 -0.4723 -0.3330 -0.1912
 4764TIP3    H135707   1.610   4.211   2.342 -0.0344 -0.3349  0.3026
 4764TIP3    H235708   1.640   4.339   2.268 -0.0090  0.1061  1.0665
 4765TIP3   OH235709   2.312   3.949  14.609 -0.3570  0.1574 -0.0882
 4765TIP3    H135710   2.314   4.012  14.681  0.6004  1.4981 -1.2129
 4765TIP3    H235711   2.223   3.955  14.574 -0.8692 -0.6040  1.0223
 4766TIP3   OH235712   6.052   0.066  11.397 -0.1425  0.1829  0.5084
 4766TIP3    H135713   6.040   0.143  11.342 -1.5135 -2.1931 -2.8128
 4766TIP3    H235714   5.973   0.063  11.450  0.2353  1.3515  1.1936
 4767TIP3   OH235715   0.466   3.941   5.219  0.0095  0.3158 -0.3386
 4767TIP3    H135716   0.419   4.004   5.165 -2.0196  0.3186  1.2943
 4767TIP3    H235717   0.470   3.862   5.166 -0.2373  0.8714 -1.2057
 4768TIP3   OH235718   5.214   5.286   5.662  0.1603  0.1845 -0.2650
 4768TIP3    H135719   5.128   5.278   5.702  0.7665  0.8841  1.2829
 4768TIP3    H235720   5.250   5.198   5.663 -0.2460  0.0182 -0.2239
 4769TIP3   OH235721   5.165   4.317   5.996  0.2420 -0.3711 -0.5333
 4769TIP3    H135722   5.134   4.376   6.065  1.1449  1.5589 -1.7157
 4769TIP3    H235723   5.253   4.293   6.023  0.1463 -0.5990 -0.4202
 4770TIP3   OH235724   1.338   3.300  14.951  0.1040  0.0134 -0.0547
 4770TIP3    H135725   1.383   3.225  14.913 -1.6660 -2.1247  1.7636
 4770TIP3    H235726   1.246   3.290  14.924 -0.3190  1.0201  0.8978
 4771TIP3   OH235727   2.560   5.477  16.684 -0.0454  0.3806 -0.8909
 4771TIP3    H135728   2.647   5.515  16.677 -0.6278  2.2980  1.3216
 4771TIP3    H235729   2.562   5.426  16.765 -0.9551  0.3803 -0.8564
 4772TIP3   OH235730   2.305   2.858  12.910 -0.0888  0.9408 -0.5827
 4772TIP3    H135731   2.231   2.816  12.953  0.1139 -0.0517 -1.1716
 4772TIP3    H235732   2.316   2.941  12.957  0.1561 -0.1096  1.3050
 4773TIP3   OH235733   5.429   1.908  16.693 -0.1878  0.3567 -0.2380
 4773TIP3    H135734   5.510   1.858  16.699 -0.8254 -0.7422 -0.6238
 4773TIP3    H235735   5.458   2.000  16.695  1.0226 -0.0105  0.0475
 4774TIP3   OH235736   3.044   6.153   3.117 -0.0165  0.3407 -1.1787
 4774TIP3    H135737   2.981   6.141   3.046 -1.2154 -1.2538  0.1020
 4774TIP3    H235738   2.992   6.189   3.189  0.8478  0.3632 -0.5573
 4775TIP3   OH235739   0.281   5.273   2.946  0.3941 -0.1800  0.0524
 4775TIP3    H135740   0.192   5.297   2.971  0.9919 -0.1558  2.4050
 4775TIP3    H235741   0.335   5.300   3.021  2.0769 -2.1175 -0.3745
 4776TIP3   OH235742   0.509   2.569   2.857  0.5778 -0.3874  0.2027
 4776TIP3    H135743   0.517   2.589   2.764  2.1237 -0.5101  0.2849
 4776TIP3    H235744   0.506   2.473   2.861 -0.9334 -0.3544  0.1981
 4777TIP3   OH235745   2.416   5.950   0.222 -0.7170 -0.4793 -0.0269
 4777TIP3    H135746   2.406   5.993   0.137 -2.3453 -0.3800  0.1891
 4777TIP3    H235747   2.393   5.858   0.205 -2.0750 -0.2575  0.4813
 4778TIP3   OH235748   1.938   6.106   4.355  0.6968  0.0514 -0.3669
 4778TIP3    H135749   1.918   6.061   4.438  0.5970 -1.2460 -1.0659
 4778TIP3    H235750   1.925   6.039   4.288  1.9764  0.7343 -1.3441
 4779TIP3   OH235751   3.907   2.566   5.156  0.7841 -0.0990 -0.5757
 4779TIP3    H135752   3.922   2.624   5.081  0.4706  0.7618  0.0197
 4779TIP3    H235753   3.919   2.621   5.232 -1.3826 -0.3497 -0.0116
 4780TIP3   OH235754   3.899   6.468   3.157 -0.0724  0.0385  0.3767
 4780TIP3    H135755   3.956   6.408   3.109 -0.6952  0.1373 -0.5258
 4780TIP3    H235756   3.812   6.429   3.148 -0.4624  1.0026 -0.1197
 4781TIP3   OH235757   1.489   4.301  14.227  0.3985  0.3337 -0.0321
 4781TIP3    H135758   1.509   4.215  14.192  1.6450  0.5773  0.0423
 4781TIP3    H235759   1.571   4.331  14.267 -0.2077  1.2554  0.5609
 4782TIP3   OH235760   1.605   0.758  17.226 -0.1904  0.2446 -0.1670
 4782TIP3    H135761   1.660   0.816  17.174 -0.9530  0.6248 -0.5577
 4782TIP3    H235762   1.663   0.686  17.251  0.8382  1.2931  0.5499
 4783TIP3   OH235763   0.880   0.802   0.995  0.0324  0.2981  0.3536
 4783TIP3    H135764   0.965   0.833   0.966 -0.1254  0.2652 -0.1525
 4783TIP3    H235765   0.842   0.876   1.043 -0.7119  1.2490 -1.5925
 4784TIP3   OH235766   5.707   3.616   3.776  0.2326 -0.5367  0.2054
 4784TIP3    H135767   5.674   3.666   3.702 -1.1060  0.3240  1.3385
 4784TIP3    H235768   5.799   3.640   3.782  0.1457  0.0530 -0.6267
 4785TIP3   OH235769   4.549   1.406  13.307 -0.2861 -0.2513  0.1955
 4785TIP3    H135770   4.474   1.379  13.254 -0.8248  3.0203 -0.9593
 4785TIP3    H235771   4.552   1.501  13.297  2.2163  0.0573  2.6859
 4786TIP3   OH235772   2.084   1.301  14.798  0.5078 -0.5171 -0.1259
 4786TIP3    H135773   2.167   1.313  14.752  0.9057  1.3359  0.9790
 4786TIP3    H235774   2.108   1.302  14.891 -0.7576  0.4257  0.2207
 4787TIP3   OH235775   0.085   6.302   2.190  0.6101  0.2816  0.6690
 4787TIP3    H135776   0.006   6.333   2.145 -0.1079 -2.0852  0.1971
 4787TIP3    H235777   0.080   6.342   2.277 -0.1170  1.6328  0.0518
 4788TIP3   OH235778   2.510   2.653  13.051 -0.0913  0.0984 -0.1667
 4788TIP3    H135779   2.603   2.641  13.070  0.0038  2.0005  0.8440
 4788TIP3    H235780   2.508   2.708  12.973 -0.3844 -0.4589 -0.5559
 4789TIP3   OH235781   4.285   2.636  16.176  0.0963 -0.1574  0.3428
 4789TIP3    H135782   4.374   2.671  16.182  0.5110 -0.3460 -2.7909
 4789TIP3    H235783   4.292   2.545  16.207  0.2622  0.6706  2.9591
 4790TIP3   OH235784   4.297   5.763  15.488  0.5926 -0.0024  0.0625
 4790TIP3    H135785   4.291   5.761  15.584  0.6596  1.5619  0.1166
 4790TIP3    H235786   4.216   5.804  15.460  0.5496 -0.5093 -0.5718
 4791TIP3   OH235787   1.034   5.788   6.541 -0.3697 -0.3371 -0.1825
 4791TIP3    H135788   1.071   5.869   6.577 -1.1000 -0.8660  1.8581
 4791TIP3    H235789   1.073   5.718   6.593 -2.7570 -1.0334  0.8091
 4792TIP3   OH235790   0.780   2.187   5.904 -0.0842  0.1021 -0.3693
 4792TIP3    H135791   0.863   2.167   5.947 -0.5525 -0.2091  0.4107
 4792TIP3    H235792   0.723   2.216   5.975 -1.5121 -2.3616 -0.3867
 4793TIP3   OH235793   5.880   0.699  16.108 -0.2932  0.0889 -0.4492
 4793TIP3    H135794   5.787   0.676  16.113 -0.4468  0.5250 -1.1949
 4793TIP3    H235795   5.902   0.692  16.016  0.5136 -0.3365 -0.2377
 4794TIP3   OH235796   2.934   4.189   4.291 -0.0220 -0.6306 -0.2074
 4794TIP3    H135797   2.950   4.232   4.375 -0.3516  0.7725 -0.8209
 4794TIP3    H235798   2.844   4.157   4.297  0.2569 -1.3540  0.2917
 4795TIP3   OH235799   0.704   1.428  16.973  0.0833  0.0415  0.4391
 4795TIP3    H135800   0.610   1.425  16.957  0.2892 -1.5631 -0.6966
 4795TIP3    H235801   0.742   1.451  16.887  0.7155  1.3092  1.0271
 4796TIP3   OH235802   4.420   2.400  15.370 -0.0005  0.2260 -0.7462
 4796TIP3    H135803   4.382   2.316  15.348 -1.6915  1.4172 -2.7111
 4796TIP3    H235804   4.386   2.460  15.304  1.4101  2.3991  0.3768
 4797TIP3   OH235805   1.034   1.460  16.902  0.1475  0.0899 -0.6892
 4797TIP3    H135806   0.982   1.518  16.847 -1.8592  1.6013  2.5220
 4797TIP3    H235807   1.019   1.373  16.866 -1.1298  0.9719 -2.4467
 4798TIP3   OH235808   4.174   0.640  11.773  0.2896  0.1948  0.1287
 4798TIP3    H135809   4.203   0.680  11.690 -0.3394 -0.2048 -0.2952
 4798TIP3    H235810   4.103   0.582  11.747 -1.0484  1.3036  1.1593
 4799TIP3   OH235811   1.270   0.902  14.158  0.4084 -0.7581 -0.4623
 4799TIP3    H135812   1.339   0.925  14.096  2.5873 -2.8321  1.0346
 4799TIP3    H235813   1.266   0.975  14.219  0.1899  0.0409 -1.4079
 4800TIP3   OH235814   3.715   4.993   2.055  0.1472 -0.7297  0.3685
 4800TIP3    H135815   3.693   5.085   2.068 -0.8255 -1.0165  0.8645
 4800TIP3    H235816   3.683   4.974   1.966  1.0797 -0.3933 -0.0499
 4801TIP3   OH235817   3.237   0.131  11.629  0.2308 -0.1155 -0.0409
 4801TIP3    H135818   3.257   0.141  11.722  0.6891 -1.0062 -0.0310
 4801TIP3    H235819   3.300   0.066  11.598  3.5869  3.7296 -2.1597
 4802TIP3   OH235820   3.779   4.600  12.254  0.2777  0.6553  0.0702
 4802TIP3    H135821   3.706   4.577  12.197 -1.1978  1.1405  1.6668
 4802TIP3    H235822   3.856   4.569  12.208 -1.0410 -1.1990 -1.0355
 4803TIP3   OH235823   3.287   1.618   2.899 -0.2222 -0.1293  0.5003
 4803TIP3    H135824   3.249   1.563   2.831 -0.5535 -0.6613  1.1036
 4803TIP3    H235825   3.244   1.703   2.888  0.9195  0.3031 -0.9940
 4804TIP3   OH235826   4.020   4.613   6.207 -0.2228 -0.4300 -0.3697
 4804TIP3    H135827   3.965   4.673   6.157 -1.1195 -0.3253  0.6989
 4804TIP3    H235828   3.975   4.529   6.202  0.1759 -0.6365 -0.5151
 4805TIP3   OH235829   2.637   0.019  10.704  0.1398 -0.2573 -0.5145
 4805TIP3    H135830   2.685   0.095  10.738 -0.0280 -0.4860  0.2504
 4805TIP3    H235831   2.590   0.053  10.628 -0.2168  0.5005  0.0264
 4806TIP3   OH235832   1.819   1.219  15.341 -0.2115  0.5759 -0.6948
 4806TIP3    H135833   1.780   1.231  15.428  0.6297  2.6264 -0.5401
 4806TIP3    H235834   1.799   1.129  15.318  0.1533 -0.2799  1.9521
 4807TIP3   OH235835   1.358   2.467  12.135  0.3353  0.2110  0.6697
 4807TIP3    H135836   1.357   2.554  12.175 -0.6281 -1.4314  4.7051
 4807TIP3    H235837   1.388   2.409  12.205 -1.9109 -3.0783 -0.8490
 4808TIP3   OH235838   1.295   1.588  13.065  0.0037 -0.7599  0.3173
 4808TIP3    H135839   1.334   1.625  13.145  1.3321 -0.9478 -0.2160
 4808TIP3    H235840   1.205   1.621  13.065  0.1640 -0.2602  1.5792
 4809TIP3   OH235841   2.336   0.404  11.767  0.7014 -0.4384 -0.2699
 4809TIP3    H135842   2.399   0.471  11.791  0.4129 -0.2751  0.0337
 4809TIP3    H235843   2.304   0.370  11.851 -2.4979  2.1367 -0.2344
 4810TIP3   OH235844   5.385   0.394   6.231  0.6236 -0.8085  0.4954
 4810TIP3    H135845   5.402   0.480   6.268  0.7423 -0.6734  0.1345
 4810TIP3    H235846   5.404   0.333   6.302  1.2397 -0.5770  0.5316
 4811TIP3   OH235847   2.757   0.145  12.088  0.1153  0.7118 -0.4370
 4811TIP3    H135848   2.849   0.124  12.076  0.1096 -0.6908  1.4376
 4811TIP3    H235849   2.711   0.084  12.031  0.2946 -1.0776  1.2099
 4812TIP3   OH235850   3.194   5.970  13.619  0.1685 -0.1190  0.0280
 4812TIP3    H135851   3.267   6.004  13.567  0.2019  1.6877  1.1500
 4812TIP3    H235852   3.170   6.043  13.676 -3.1340 -0.3197 -0.9274
 4813TIP3   OH235853   4.721   4.577  14.174 -0.2769 -0.3504  0.3408
 4813TIP3    H135854   4.665   4.500  14.163  0.1366 -0.7338  0.8706
 4813TIP3    H235855   4.792   4.547  14.231 -0.5405  0.6368  1.2257
 4814TIP3   OH235856   2.106   5.651  17.217 -0.0388 -0.1466  0.0201
 4814TIP3    H135857   2.026   5.619  17.258 -1.8850  1.6729 -1.8772
 4814TIP3    H235858   2.141   5.716  17.279  0.0163 -0.9763  0.8756
 4815TIP3   OH235859   2.666   1.888  16.279  0.1131 -0.0831  0.5488
 4815TIP3    H135860   2.651   1.950  16.350 -1.0584 -0.2847  0.5034
 4815TIP3    H235861   2.621   1.808  16.307  0.0495 -0.3194 -0.2057
 4816TIP3   OH235862   0.191   1.782   0.858 -0.4036  0.3174 -0.3610
 4816TIP3    H135863   0.253   1.790   0.930 -0.9083  0.8032  0.0227
 4816TIP3    H235864   0.112   1.827   0.888 -0.7320  0.2475 -1.0864
 4817TIP3   OH235865   3.083   4.645   4.712 -0.0239 -0.2337  0.2627
 4817TIP3    H135866   3.006   4.699   4.726  1.5384  2.6232 -1.1902
 4817TIP3    H235867   3.079   4.620   4.620  1.3171  1.0284 -0.1836
 4818TIP3   OH235868   1.050   1.441   0.206 -0.2741 -0.0288  0.4472
 4818TIP3    H135869   1.087   1.482   0.284  0.2216  0.7060 -0.1606
 4818TIP3    H235870   0.956   1.437   0.222 -0.4025  1.8475  0.2984
 4819TIP3   OH235871   1.600   2.978   4.553  0.3388 -0.1644  0.9547
 4819TIP3    H135872   1.579   2.886   4.569  0.1621  0.1779  2.9474
 4819TIP3    H235873   1.551   3.026   4.620 -0.3043  1.4756 -0.6237
 4820TIP3   OH235874   4.759   6.069  15.050  0.0552  0.4020  0.3379
 4820TIP3    H135875   4.842   6.086  15.006 -0.4349  0.2627 -0.6710
 4820TIP3    H235876   4.762   5.976  15.073  0.3425  0.4921  0.6616
 4821TIP3   OH235877   6.508   4.659  11.962 -0.2480 -0.1252 -0.0347
 4821TIP3    H135878   6.565   4.659  12.039 -0.5558  1.0497  0.2161
 4821TIP3    H235879   6.420   4.674  11.997 -0.3136  1.0407 -0.6450
 4822TIP3   OH235880   5.911   1.609   5.404  0.3062 -0.0388  0.0841
 4822TIP3    H135881   5.921   1.532   5.348  0.8801  0.3354 -0.3377
 4822TIP3    H235882   5.953   1.680   5.356 -0.9990  0.7539  0.0524
 4823TIP3   OH235883   0.772   3.867   0.548 -0.1307  0.5833 -0.7685
 4823TIP3    H135884   0.820   3.788   0.573  0.6410  0.1937 -3.2023
 4823TIP3    H235885   0.686   3.834   0.519  0.1475  0.6161 -1.6646
 4824TIP3   OH235886   1.703   6.687  12.479  0.3465 -0.3492  0.5799
 4824TIP3    H135887   1.760   6.762  12.463 -0.8438  0.8292  1.5827
 4824TIP3    H235888   1.616   6.717  12.451  0.3954 -2.7664 -2.8382
 4825TIP3   OH235889   3.531   1.093   0.541  0.3940 -0.8749 -0.1296
 4825TIP3    H135890   3.626   1.097   0.529  0.3277 -1.4440 -1.0069
 4825TIP3    H235891   3.517   1.106   0.634  1.2698  0.1698 -0.1294
 4826TIP3   OH235892   3.227   3.602  17.190 -0.8252 -0.2367 -0.1488
 4826TIP3    H135893   3.285   3.530  17.213 -0.4961  0.5589  1.7416
 4826TIP3    H235894   3.285   3.669  17.153 -0.3961  0.6799  2.0222
 4827TIP3   OH235895   3.736   4.527   0.013 -0.8828 -0.2468 -0.0608
 4827TIP3    H135896   3.741   4.622   0.024 -1.1398  0.2341 -3.1992
 4827TIP3    H235897   3.669   4.499   0.075 -0.6876  1.5810  1.0433
 4828TIP3   OH235898   3.792   5.631   2.014 -0.0322 -0.3206  0.1619
 4828TIP3    H135899   3.853   5.579   1.961  0.9192 -0.0869  0.9937
 4828TIP3    H235900   3.748   5.567   2.069 -2.0791 -0.7605 -1.8214
 4829TIP3   OH235901   3.712   2.580  12.110  0.2466 -0.5354 -0.0770
 4829TIP3    H135902   3.759   2.520  12.051 -1.0557 -0.3690 -1.3505
 4829TIP3    H235903   3.742   2.667  12.085 -2.0782 -0.2398 -2.3465
 4830TIP3   OH235904   1.233   4.576  13.384 -0.3022  0.0613 -0.2223
 4830TIP3    H135905   1.247   4.483  13.401  2.1978  0.6878  1.8480
 4830TIP3    H235906   1.275   4.592  13.300  0.0886 -0.5072 -0.1389
 4831TIP3   OH235907   2.035   1.580  12.360  0.2127  0.3957 -0.0519
 4831TIP3    H135908   2.099   1.631  12.312  0.4189 -0.5723 -0.8333
 4831TIP3    H235909   2.076   1.564  12.445  0.5344  0.7198 -0.1449
 4832TIP3   OH235910   2.280   6.527  12.233  0.0177  0.1531 -0.0431
 4832TIP3    H135911   2.246   6.593  12.293  0.8060  1.3186 -0.8201
 4832TIP3    H235912   2.244   6.552  12.148 -0.5330 -1.0698 -0.1897
 4833TIP3   OH235913   2.452   2.927   3.060 -0.0140 -0.1729  0.2160
 4833TIP3    H135914   2.513   2.923   3.134  0.2325 -1.0725 -0.0167
 4833TIP3    H235915   2.368   2.951   3.098  0.7217  2.3553  0.3803
 4834TIP3   OH235916   0.726   0.721   3.058  0.4930 -0.0529 -0.3174
 4834TIP3    H135917   0.702   0.764   2.976 -0.9069 -0.4139 -0.1297
 4834TIP3    H235918   0.660   0.752   3.121  0.4169 -1.2248  0.2005
 4835TIP3   OH235919   5.614   0.691   4.925  0.2083 -0.7953  0.4615
 4835TIP3    H135920   5.648   0.772   4.964 -1.0233 -1.1586  2.4485
 4835TIP3    H235921   5.670   0.676   4.849  0.0031  2.3329 -0.4619
 4836TIP3   OH235922   3.581   5.382  15.499  0.2291 -0.5234 -0.0014
 4836TIP3    H135923   3.586   5.434  15.579 -1.4195  0.0601 -0.2260
 4836TIP3    H235924   3.658   5.407  15.449  1.4951 -1.1873  1.5434
 4837TIP3   OH235925   5.123   5.012  14.983 -0.5433 -0.3135 -0.3289
 4837TIP3    H135926   5.139   4.937  14.925 -0.8537 -0.7034  0.0821
 4837TIP3    H235927   5.089   5.080  14.925  1.6454  0.2348 -1.0808
 4838TIP3   OH235928   1.534   3.403  14.647  0.5231 -0.0106  0.9547
 4838TIP3    H135929   1.590   3.382  14.723  1.5954  1.3537  0.5869
 4838TIP3    H235930   1.553   3.495  14.628  1.0535 -0.5797 -1.6089
 4839TIP3   OH235931   6.590   6.532  14.779 -0.0945  0.1925 -0.5913
 4839TIP3    H135932   6.576   6.475  14.703 -0.5536  1.3133 -1.3790
 4839TIP3    H235933   6.555   6.616  14.752 -0.5657  0.5352  1.0072
 4840TIP3   OH235934   2.077   4.360   0.101 -0.3551 -0.3590 -0.2180
 4840TIP3    H135935   2.065   4.268   0.127  0.5923 -1.4397 -3.1494
 4840TIP3    H235936   1.989   4.391   0.082 -0.7385 -0.4588  1.2443
 4841TIP3   OH235937   0.573   5.535   1.341  0.8077  0.1477  0.2451
 4841TIP3    H135938   0.486   5.552   1.304  0.7843  1.7594  0.9426
 4841TIP3    H235939   0.634   5.560   1.272  0.7377  1.7394  0.7183
 4842TIP3   OH235940   3.714   0.863   6.028 -0.2358 -0.0960  0.2150
 4842TIP3    H135941   3.771   0.860   5.952 -1.1823 -1.6305 -0.4829
 4842TIP3    H235942   3.747   0.795   6.086 -0.5157 -0.0394  0.4463
 4843TIP3   OH235943   6.071   0.545   2.581 -0.8886  0.1369 -0.2329
 4843TIP3    H135944   6.064   0.550   2.676 -1.0280  0.2408 -0.2485
 4843TIP3    H235945   6.083   0.636   2.554 -0.3959  0.0630 -0.2778
 4844TIP3   OH235946   3.836   6.701   2.947 -0.3030 -0.0046  0.1557
 4844TIP3    H135947   3.752   6.660   2.969 -0.1056 -0.5319 -0.0501
 4844TIP3    H235948   3.901   6.647   2.992  0.1220 -1.1711 -1.7270
 4845TIP3   OH235949   6.583   2.838  12.093  0.6911  0.3512  0.5923
 4845TIP3    H135950   6.577   2.866  12.002  1.7145  1.3903  0.8092
 4845TIP3    H235951   6.495   2.851  12.129  0.6552  1.4190  0.1477
 4846TIP3   OH235952   5.054   1.247  13.456  0.2567  0.4358 -0.0398
 4846TIP3    H135953   5.015   1.167  13.421  1.1722  0.2095 -0.5793
 4846TIP3    H235954   4.987   1.314  13.443 -1.1861 -0.5417  1.9462
 4847TIP3   OH235955   6.615   1.002   1.471  0.4189 -0.3651  0.3837
 4847TIP3    H135956   6.619   1.088   1.429  0.2535 -0.4209  0.2558
 4847TIP3    H235957   6.550   0.953   1.421 -0.6909 -0.0211  1.4284
 4848TIP3   OH235958   5.012   0.364  13.778 -0.4776 -0.6651  0.2716
 4848TIP3    H135959   5.041   0.454  13.761 -2.8952  0.0803 -0.1625
 4848TIP3    H235960   5.036   0.316  13.698  1.6974 -0.7218  0.8719
 4849TIP3   OH235961   1.832   2.590   4.566  0.7567  0.1773 -0.0232
 4849TIP3    H135962   1.926   2.608   4.579  0.7771  0.0817 -0.0358
 4849TIP3    H235963   1.830   2.518   4.503  0.6273  1.5481 -1.6473
 4850TIP3   OH235964   6.354   2.735   2.054 -0.0628 -0.1113  0.3717
 4850TIP3    H135965   6.368   2.642   2.070  0.4982 -0.0436  0.2949
 4850TIP3    H235966   6.406   2.779   2.122 -0.1953  0.1436  0.3095
 4851TIP3   OH235967   1.627   4.107   0.882 -0.1129 -0.5332  0.0536
 4851TIP3    H135968   1.581   4.092   0.964  0.4186 -1.9371  0.1159
 4851TIP3    H235969   1.563   4.084   0.814 -1.2647  2.5428 -0.0643
 4852TIP3   OH235970   5.956   3.618   2.226 -0.2434  0.2628 -0.0432
 4852TIP3    H135971   5.890   3.592   2.290 -0.6994  1.5759  0.0590
 4852TIP3    H235972   5.906   3.638   2.147  0.3021 -1.2217 -0.8041
 4853TIP3   OH235973   1.596   1.114  15.820 -0.0709  0.0769  0.1225
 4853TIP3    H135974   1.592   1.170  15.898 -0.7271  2.1659 -1.2970
 4853TIP3    H235975   1.509   1.074  15.815 -1.1686  2.3477 -1.0683
 4854TIP3   OH235976   1.954   5.107   0.701  0.3786 -0.0414 -0.0965
 4854TIP3    H135977   2.016   5.038   0.678 -0.0632 -0.9109  1.1809
 4854TIP3    H235978   1.886   5.101   0.635  1.0928  0.1724 -0.8605
 4855TIP3   OH235979   3.118   2.052   2.464  0.1803  0.4714  0.2530
 4855TIP3    H135980   3.057   2.064   2.392  0.1683 -1.0018 -0.0214
 4855TIP3    H235981   3.168   1.974   2.440 -0.3695 -0.5440  2.1832
 4856TIP3   OH235982   2.391   5.514   5.262  0.1166  0.0144 -1.0086
 4856TIP3    H135983   2.482   5.525   5.234  0.5679  0.0471  0.4016
 4856TIP3    H235984   2.359   5.603   5.278  0.5874 -0.0997  0.7170
 4857TIP3   OH235985   2.355   0.646   4.591  0.0157  0.0364  0.1756
 4857TIP3    H135986   2.298   0.722   4.591 -0.4864 -0.3388  0.1700
 4857TIP3    H235987   2.358   0.617   4.683  0.6739  0.4065  0.2784
 4858TIP3   OH235988   1.288   6.421  15.170 -0.7002  0.2207 -0.0962
 4858TIP3    H135989   1.313   6.481  15.100  0.1517  0.2426  0.2102
 4858TIP3    H235990   1.280   6.476  15.248  0.5072 -0.0970  0.2793
 4859TIP3   OH235991   3.489   5.725   5.471 -0.3292  0.0100  0.1483
 4859TIP3    H135992   3.480   5.806   5.523  0.3639 -0.0794  0.4307
 4859TIP3    H235993   3.584   5.708   5.471 -0.6442 -2.6786  3.0412
 4860TIP3   OH235994   3.139   3.765   4.796  0.0731  0.3162  0.1799
 4860TIP3    H135995   3.079   3.834   4.824 -1.0334 -0.9276  1.0143
 4860TIP3    H235996   3.106   3.737   4.711  2.0271  2.4583 -1.4341
 4861TIP3   OH235997   0.789   6.293  13.305  0.2336  0.0904 -0.6858
 4861TIP3    H135998   0.829   6.372  13.340  0.5563  0.3538 -1.6333
 4861TIP3    H235999   0.841   6.272  13.227 -0.9398 -0.0504 -1.4522
 4862TIP3   OH236000   2.886   0.560   1.050 -0.2361  0.8030 -0.0907
 4862TIP3    H136001   2.805   0.597   1.014 -0.4649  0.5941  0.2048
 4862TIP3    H236002   2.858   0.482   1.098 -0.1203  1.7904  1.6776
 4863TIP3   OH236003   4.523   4.910  12.910 -0.6300  0.1310  0.6037
 4863TIP3    H136004   4.604   4.898  12.960 -0.5577  1.6510  0.9022
 4863TIP3    H236005   4.465   4.841  12.941  0.4608 -0.8341  0.5563
 4864TIP3   OH236006   4.093   1.595  15.219  0.0960  0.3344  0.3166
 4864TIP3    H136007   4.125   1.548  15.296 -0.9938 -2.3544 -0.7501
 4864TIP3    H236008   4.173   1.627  15.176  1.1600 -2.4014  0.0305
 4865TIP3   OH236009   1.669   3.964  11.395  0.2961 -0.4721 -0.4884
 4865TIP3    H136010   1.662   3.916  11.313 -1.2841 -0.6293 -0.2915
 4865TIP3    H236011   1.748   3.930  11.436  0.4320 -1.2745 -1.3827
 4866TIP3   OH236012   0.543   4.784  13.163  0.3114 -0.0781 -0.4298
 4866TIP3    H136013   0.488   4.741  13.229  1.7341 -1.2265  0.0701
 4866TIP3    H236014   0.527   4.735  13.082  2.0555 -1.8020  0.1760
 4867TIP3   OH236015   1.494   5.602  15.275 -0.3492  0.2654 -0.1380
 4867TIP3    H136016   1.479   5.511  15.300  0.0926  0.1651 -0.2124
 4867TIP3    H236017   1.580   5.622  15.312 -0.1935  0.4727 -0.6025
 4868TIP3   OH236018   6.108   1.041   0.072 -0.3462 -0.1573 -0.4647
 4868TIP3    H136019   6.159   1.120   0.053  0.4954  0.0028  2.0404
 4868TIP3    H236020   6.174   0.972   0.083 -1.0317 -1.0815 -1.9616
 4869TIP3   OH236021   0.224   3.261  13.837  0.5132  0.8232  0.0119
 4869TIP3    H136022   0.318   3.264  13.855  0.4824  0.5357  0.2230
 4869TIP3    H236023   0.183   3.281  13.921  0.3824  0.6974 -0.0219
 4870TIP3   OH236024   5.473   0.541  12.074 -0.2477 -0.1705  0.0783
 4870TIP3    H136025   5.450   0.601  12.003 -1.7953 -0.7935  0.0251
 4870TIP3    H236026   5.422   0.462  12.056  2.3132 -1.8733 -0.3043
 4871TIP3   OH236027   4.901   0.586   0.817 -0.3952 -0.3321 -0.3769
 4871TIP3    H136028   4.826   0.586   0.758  1.0401 -1.2630 -2.3419
 4871TIP3    H236029   4.899   0.499   0.857 -0.7397 -0.1141  0.0771
 4872TIP3   OH236030   4.777   4.984   0.135 -0.1967 -0.4570  0.4048
 4872TIP3    H136031   4.718   4.927   0.084 -0.1764 -1.0503  1.0332
 4872TIP3    H236032   4.864   4.960   0.105 -0.2463  0.4892 -0.5962
 4873TIP3   OH236033   4.415   2.136   0.810 -0.2170  0.8954 -0.5321
 4873TIP3    H136034   4.507   2.113   0.808 -0.2108  0.8864 -2.4876
 4873TIP3    H236035   4.411   2.221   0.764 -1.0988  1.2359  0.1435
 4874TIP3   OH236036   4.653   2.965  13.604  0.4688 -0.4607 -0.6737
 4874TIP3    H136037   4.618   2.922  13.682  3.5584  0.4663  1.4067
 4874TIP3    H236038   4.679   2.893  13.546  2.0581 -1.3778  1.0890
 4875TIP3   OH236039   0.427   5.338  15.421 -0.1130 -0.2312 -0.3502
 4875TIP3    H136040   0.414   5.396  15.496 -1.1098 -0.4332 -0.3641
 4875TIP3    H236041   0.369   5.373  15.353  0.6751 -0.1288 -0.9960
 4876TIP3   OH236042   0.445   2.780   5.578  0.1117 -0.1807 -0.2957
 4876TIP3    H136043   0.448   2.843   5.506  0.2583 -0.4341 -0.5119
 4876TIP3    H236044   0.375   2.812   5.635  1.5305  1.3732  0.7037
 4877TIP3   OH236045   4.994   6.705   2.066  0.2782 -0.0014  0.3114
 4877TIP3    H136046   4.923   6.703   2.131 -1.1071  1.1436 -1.0591
 4877TIP3    H236047   4.976   6.630   2.010  0.1080  0.3204 -0.0669
 4878TIP3   OH236048   3.123   1.703  14.490  0.5187  0.7327 -0.1537
 4878TIP3    H136049   3.047   1.696  14.548 -0.1736 -1.1168 -1.1902
 4878TIP3    H236050   3.137   1.797  14.479 -1.9846  1.1385 -0.3694
 4879TIP3   OH236051   6.518   2.031   0.672 -0.5842 -0.8171  0.1875
 4879TIP3    H136052   6.470   2.021   0.755  0.4558 -2.7742  0.6107
 4879TIP3    H236053   6.580   2.101   0.689 -0.7643 -0.8103  0.8746
 4880TIP3   OH236054   0.441   4.477  17.367  0.7698  0.5357  0.6165
 4880TIP3    H136055   0.392   4.451  17.290 -0.3494  1.5692  0.9356
 4880TIP3    H236056   0.458   4.395  17.414 -1.1331  0.1750  0.7566
 4881TIP3   OH236057   1.303   4.663   6.496 -0.0309  0.3381  0.0555
 4881TIP3    H136058   1.396   4.671   6.475 -0.1726  0.4005 -0.5745
 4881TIP3    H236059   1.298   4.685   6.589  0.6142  0.0912  0.1597
 4882TIP3   OH236060   1.324   0.295   5.260  0.1493 -0.0941  0.6049
 4882TIP3    H136061   1.348   0.264   5.172  0.9549 -0.5934  0.9917
 4882TIP3    H236062   1.237   0.259   5.275 -0.0402  0.0858 -0.0322
 4883TIP3   OH236063   4.386   4.844   0.965 -0.6592 -0.2544 -0.0766
 4883TIP3    H136064   4.362   4.753   0.953 -1.3233 -0.0056 -0.7103
 4883TIP3    H236065   4.360   4.887   0.883  0.6787  0.3007 -0.2461
 4884TIP3   OH236066   5.841   1.192  11.668 -0.0187 -0.1514 -0.4012
 4884TIP3    H136067   5.859   1.262  11.731 -1.4366  1.2709 -1.5037
 4884TIP3    H236068   5.752   1.164  11.689 -0.4868  0.2985 -1.7010
 4885TIP3   OH236069   1.976   3.100  16.031  0.2485  0.4367 -0.2018
 4885TIP3    H136070   1.891   3.057  16.045  0.0552  1.5252  2.4910
 4885TIP3    H236071   2.040   3.029  16.037 -0.3620 -0.1594 -0.5926
 4886TIP3   OH236072   6.751   2.179   1.656 -0.0335 -0.4124 -0.0140
 4886TIP3    H136073   6.807   2.225   1.594 -0.6079 -1.4391 -1.3462
 4886TIP3    H236074   6.664   2.218   1.644 -0.2304 -0.8829 -0.1565
 4887TIP3   OH236075   2.767   2.845  14.130  0.7719  0.3573 -0.5696
 4887TIP3    H136076   2.731   2.892  14.206 -0.5005 -0.9131 -0.3379
 4887TIP3    H236077   2.804   2.914  14.075  2.4740  1.2742  1.5396
 4888TIP3   OH236078   4.033   0.623   4.180  0.4221 -0.1821 -0.3439
 4888TIP3    H136079   3.994   0.570   4.250 -0.1123  1.3170  0.5201
 4888TIP3    H236080   4.126   0.625   4.201  0.5612 -1.3012 -0.7584
 4889TIP3   OH236081   2.026   5.733   3.516 -0.2773  0.3656 -0.3892
 4889TIP3    H136082   2.083   5.799   3.476  0.5109 -0.2827 -0.3616
 4889TIP3    H236083   1.990   5.776   3.594 -0.5787  1.1012 -0.9226
 4890TIP3   OH236084   6.158   0.728  16.815  0.0047 -0.4398  0.3512
 4890TIP3    H136085   6.226   0.709  16.750 -1.5197 -1.5081 -1.0098
 4890TIP3    H236086   6.139   0.643  16.856 -0.3476 -0.1076  0.8982
 4891TIP3   OH236087   0.048   6.110  13.739 -0.3055  0.3922 -0.6550
 4891TIP3    H136088   0.010   6.181  13.686 -0.4092 -0.0443 -1.1703
 4891TIP3    H236089  -0.023   6.085  13.798  0.1146  1.5440  0.3951
 4892TIP3   OH236090   1.405   4.365   3.906  0.1095 -0.0762  0.1486
 4892TIP3    H136091   1.415   4.272   3.923 -0.9419 -0.5497 -1.5517
 4892TIP3    H236092   1.480   4.388   3.851 -0.6109 -0.3917 -1.0046
 4893TIP3   OH236093   3.399   1.585   5.596 -0.4529 -0.2761  0.5193
 4893TIP3    H136094   3.456   1.591   5.518  0.3739 -0.9433  1.0550
 4893TIP3    H236095   3.458   1.602   5.669 -0.6097 -2.4930  1.2000
 4894TIP3   OH236096   3.850   3.076  12.910  0.1618 -0.2447 -0.6842
 4894TIP3    H136097   3.783   3.123  12.860  0.8138 -0.7749 -2.1198
 4894TIP3    H236098   3.912   3.144  12.937 -1.7095  0.5369  2.1226
 4895TIP3   OH236099   2.414   3.203  15.295  0.2234 -0.1565 -0.0808
 4895TIP3    H136100   2.408   3.110  15.319 -2.1619  0.0565  0.4193
 4895TIP3    H236101   2.484   3.206  15.230  0.7297 -2.2193  0.2930
 4896TIP3   OH236102   4.996   0.392  13.219  0.1514  0.0190  0.5146
 4896TIP3    H136103   5.089   0.410  13.234 -0.0373  1.2069  0.2817
 4896TIP3    H236104   4.960   0.378  13.307  0.7593 -1.6460  0.5447
 4897TIP3   OH236105   5.573   0.117   4.150 -0.3049 -0.0271 -0.0766
 4897TIP3    H136106   5.563   0.189   4.212  0.3263  0.6935 -0.7925
 4897TIP3    H236107   5.642   0.145   4.091  0.2565 -1.4153 -0.1186
 4898TIP3   OH236108   0.611   6.658   5.832  0.0301  0.2804 -0.1576
 4898TIP3    H136109   0.629   6.636   5.741  3.3215  2.0561 -0.0893
 4898TIP3    H236110   0.581   6.576   5.871  0.8560 -1.1311 -2.3081
 4899TIP3   OH236111   6.148   0.221   2.931 -0.1078 -0.2330 -0.0229
 4899TIP3    H136112   6.109   0.281   2.994 -0.6858 -0.4572 -0.1625
 4899TIP3    H236113   6.221   0.181   2.978 -0.6617 -0.5553  0.5757
 4900TIP3   OH236114   3.968   1.251   5.196  0.5971  0.4026 -0.2423
 4900TIP3    H136115   3.949   1.294   5.280 -0.0758  0.9679 -0.6750
 4900TIP3    H236116   4.054   1.211   5.209 -0.3242 -1.2271  1.3906
 4901TIP3   OH236117   5.891   3.305  13.584  0.1391 -0.1864 -0.3357
 4901TIP3    H136118   5.813   3.343  13.543  0.5477 -0.1442 -1.0930
 4901TIP3    H236119   5.909   3.362  13.659  0.3230  0.7187 -1.0430
 4902TIP3   OH236120   6.688   1.832   0.204 -0.0608  0.3423 -0.1623
 4902TIP3    H136121   6.686   1.758   0.266 -1.5479  1.3078  1.0189
 4902TIP3    H236122   6.663   1.794   0.120 -1.2491 -0.4382  0.5189
 4903TIP3   OH236123   3.369   0.646   1.277  0.6887  0.3240  0.1406
 4903TIP3    H136124   3.371   0.564   1.327  0.5656 -0.9226 -1.7598
 4903TIP3    H236125   3.282   0.647   1.237  1.3418  0.4056 -1.3413
 4904TIP3   OH236126   1.004   3.824   4.894  0.0157  0.3517 -0.2226
 4904TIP3    H136127   1.077   3.807   4.954  0.2168 -0.2609 -0.6373
 4904TIP3    H236128   1.019   3.914   4.864 -1.2194  1.4506  2.2035
 4905TIP3   OH236129   2.551   5.689   1.561 -0.0277 -0.3229  0.1167
 4905TIP3    H136130   2.528   5.639   1.640 -0.4985 -0.6795 -0.2397
 4905TIP3    H236131   2.483   5.667   1.498 -1.1422  1.9515  0.4157
 4906TIP3   OH236132   1.175   3.157  12.588  0.0150 -0.6345  0.3452
 4906TIP3    H136133   1.185   3.217  12.662 -0.6199 -0.4162  0.2603
 4906TIP3    H236134   1.105   3.195  12.535  0.6777 -0.6077 -0.5475
 4907TIP3   OH236135   5.287   5.967  12.604 -0.0975  0.2710 -0.0799
 4907TIP3    H136136   5.300   5.978  12.510  0.0707  0.5507 -0.0263
 4907TIP3    H236137   5.244   5.882  12.613  0.3695 -0.0010 -0.3697
 4908TIP3   OH236138   0.009   6.380   1.373  0.1447  0.0376 -0.3837
 4908TIP3    H136139  -0.083   6.373   1.346  0.1443 -0.4998 -0.2524
 4908TIP3    H236140   0.054   6.413   1.295 -0.3530  1.5491 -0.0648
 4909TIP3   OH236141   1.608   4.869   5.882 -0.3305 -0.2256  0.3563
 4909TIP3    H136142   1.639   4.809   5.951  1.1704  0.1548  0.0442
 4909TIP3    H236143   1.543   4.924   5.926  1.1926  0.5571  1.7161
 4910TIP3   OH236144   5.769   1.866  14.497 -0.5327 -0.6445  0.1122
 4910TIP3    H136145   5.687   1.898  14.459  0.1379  0.3830 -0.5059
 4910TIP3    H236146   5.795   1.793  14.441 -0.0040  0.3015 -0.9001
 4911TIP3   OH236147   4.347   5.767   5.595  0.0362  0.2490  0.2052
 4911TIP3    H136148   4.331   5.756   5.501  2.0708 -2.4610  0.0647
 4911TIP3    H236149   4.312   5.687   5.634  1.1147  0.3626  1.4691
 4912TIP3   OH236150   5.934   4.253   3.670 -0.5966  0.3293 -0.2063
 4912TIP3    H136151   5.928   4.348   3.659 -0.9997  0.2614 -0.6237
 4912TIP3    H236152   6.009   4.240   3.728 -2.3017  1.0794  2.3370
 4913TIP3   OH236153   3.472   4.466  13.861  0.0741 -0.0140 -0.2429
 4913TIP3    H136154   3.551   4.512  13.834  1.1452 -1.4727  0.2808
 4913TIP3    H236155   3.425   4.529  13.915  1.7322  0.3498  0.8498
 4914TIP3   OH236156   1.372   1.171   5.278  0.4979 -0.0886  0.0039
 4914TIP3    H136157   1.452   1.140   5.235  0.1324 -0.1529 -0.6381
 4914TIP3    H236158   1.312   1.097   5.274 -0.3650  0.6251 -1.4915
 4915TIP3   OH236159   6.388   0.851  17.153  0.1467  0.1390  0.0078
 4915TIP3    H136160   6.389   0.800  17.072 -0.8921 -0.0267  0.0818
 4915TIP3    H236161   6.472   0.897  17.154  1.2875 -1.8513  0.1185
 4916TIP3   OH236162   5.638   3.943  12.343  0.4208 -0.3463  0.0636
 4916TIP3    H136163   5.706   3.984  12.396  0.7403 -0.8737  0.0716
 4916TIP3    H236164   5.567   3.926  12.405  0.1065  0.5760 -0.0270
 4917TIP3   OH236165   1.865   2.570  16.311  0.2199  0.3258  0.1558
 4917TIP3    H136166   1.861   2.597  16.220 -1.0661 -0.9290 -0.1948
 4917TIP3    H236167   1.949   2.526  16.320 -0.6952 -1.8362 -1.1461
 4918TIP3   OH236168   1.788   2.135  11.462  0.6316 -0.1621  0.2592
 4918TIP3    H136169   1.877   2.160  11.486  1.5103 -1.7509 -1.1031
 4918TIP3    H236170   1.783   2.152  11.368 -0.3324 -0.5236  0.2363
 4919TIP3   OH236171   5.697   6.192   5.246  0.0130  0.1494 -0.0914
 4919TIP3    H136172   5.756   6.267   5.233 -0.6324  0.6912  0.0675
 4919TIP3    H236173   5.706   6.140   5.167  1.1451 -0.0859  0.1668
 4920TIP3   OH236174   0.537   2.942   3.064  0.0676 -0.2680  0.2718
 4920TIP3    H136175   0.618   2.908   3.025 -0.7421 -1.3518 -0.5581
 4920TIP3    H236176   0.563   3.024   3.106  1.2741  0.2794 -1.4052
 4921TIP3   OH236177   5.219   3.287  15.327  0.5506  0.0411 -0.0253
 4921TIP3    H136178   5.200   3.220  15.261 -2.0676 -1.0573  1.6600
 4921TIP3    H236179   5.140   3.341  15.330  0.2209 -0.4405  2.6677
 4922TIP3   OH236180   1.442   1.566  16.818 -0.0958 -0.4877  0.8320
 4922TIP3    H136181   1.510   1.566  16.884 -0.6459 -2.9416  1.4964
 4922TIP3    H236182   1.429   1.474  16.796 -1.1229  0.1221 -1.4728
 4923TIP3   OH236183   4.055   4.534  11.752 -0.1730 -0.1688 -0.1692
 4923TIP3    H136184   4.080   4.486  11.673  1.6142  0.1168  0.1692
 4923TIP3    H236185   3.969   4.572  11.732  0.1287 -0.3205 -1.8710
 4924TIP3   OH236186   2.586   3.826  13.883  0.1081 -0.2230  0.5669
 4924TIP3    H136187   2.544   3.855  13.802  0.0811  0.6136  0.8715
 4924TIP3    H236188   2.530   3.860  13.952  0.9797  0.4440  0.9664
 4925TIP3   OH236189   0.153   3.155   5.241 -0.0986 -0.3682 -0.5484
 4925TIP3    H136190   0.074   3.203   5.215 -0.5003 -0.0579  1.0971
 4925TIP3    H236191   0.121   3.070   5.271  0.0091  0.1981  1.2838
 4926TIP3   OH236192   3.784   2.906  16.288 -0.1552 -0.5542  0.1242
 4926TIP3    H136193   3.752   2.855  16.362  0.2024 -0.0889  0.6098
 4926TIP3    H236194   3.801   2.841  16.220  0.8722 -1.1754  0.9324
 4927TIP3   OH236195   0.727   6.556  13.694 -0.0520 -0.3789 -0.1560
 4927TIP3    H136196   0.697   6.641  13.725  1.0875 -0.5925  1.6874
 4927TIP3    H236197   0.664   6.494  13.731  0.2501 -0.4821  0.1937
 4928TIP3   OH236198   1.974   2.608   0.908  0.2394 -0.0726 -0.1740
 4928TIP3    H136199   1.992   2.699   0.931 -1.4373  0.2720 -0.1623
 4928TIP3    H236200   2.042   2.586   0.843  0.4651  1.2710 -0.4108
 4929TIP3   OH236201   4.987   0.305  12.642  0.2720 -0.2270  0.5472
 4929TIP3    H136202   4.975   0.399  12.628  0.5767 -0.2418  0.2056
 4929TIP3    H236203   5.046   0.276  12.573 -0.0630 -0.7321  0.4622
 4930TIP3   OH236204   2.880   4.642  16.280  0.5898 -0.1224  0.0005
 4930TIP3    H136205   2.837   4.579  16.339  1.4888 -0.3506  0.4246
 4930TIP3    H236206   2.910   4.712  16.338  2.7884 -1.0492  0.0629
 4931TIP3   OH236207   0.400   1.267   5.665 -0.0185 -0.0210  0.2032
 4931TIP3    H136208   0.478   1.242   5.614 -0.9027 -1.4221 -0.5322
 4931TIP3    H236209   0.348   1.319   5.604 -0.6946 -1.0016 -0.0770
 4932TIP3   OH236210   3.503   4.473   0.697  0.3437 -0.5843 -0.5381
 4932TIP3    H136211   3.545   4.414   0.759 -0.9946 -1.9279 -0.8573
 4932TIP3    H236212   3.549   4.457   0.614 -0.4200 -1.7025 -0.7753
 4933TIP3   OH236213   5.141   5.896  15.924  0.4222 -0.3675 -0.0175
 4933TIP3    H136214   5.230   5.901  15.957  0.2716  1.5621  0.2186
 4933TIP3    H236215   5.104   5.983  15.941 -1.6568 -1.2412  0.3219
 4934TIP3   OH236216   2.108   6.193  16.108  0.2408 -0.5326 -0.2592
 4934TIP3    H136217   2.040   6.259  16.097  0.5743 -0.3339 -1.2341
 4934TIP3    H236218   2.060   6.110  16.110 -0.2145 -0.2671  1.3490
 4935TIP3   OH236219   1.126   3.595   4.500 -0.8159  0.3894 -0.2955
 4935TIP3    H136220   1.167   3.671   4.542 -1.6137  0.6428  0.0554
 4935TIP3    H236221   1.131   3.526   4.565  0.6358 -0.1050 -0.9177
 4936TIP3   OH236222   5.071   0.747  15.705 -0.6057  0.0871  0.3982
 4936TIP3    H136223   5.059   0.739  15.611 -1.2470  1.2464  0.3620
 4936TIP3    H236224   5.149   0.801  15.715 -0.7046  0.2050  0.5330
 4937TIP3   OH236225   1.391   3.078   6.340  0.0349  0.0206 -0.6236
 4937TIP3    H136226   1.349   2.993   6.353 -1.2996  0.3916 -2.2290
 4937TIP3    H236227   1.319   3.141   6.341  0.6674  0.8203 -2.1324
 4938TIP3   OH236228   3.617   3.413  13.846 -0.1087  0.2522 -0.5255
 4938TIP3    H136229   3.574   3.483  13.895  0.2190  0.9436 -1.2064
 4938TIP3    H236230   3.687   3.457  13.797 -1.1505 -0.1796 -2.5303
 4939TIP3   OH236231   2.358   3.326   0.208 -0.7838  0.2819  0.4193
 4939TIP3    H136232   2.421   3.324   0.136 -0.4973 -0.9651  0.6732
 4939TIP3    H236233   2.395   3.386   0.272  0.9787 -1.5671  1.2513
 4940TIP3   OH236234   3.668   2.205  14.527 -0.1374 -0.3117  0.8234
 4940TIP3    H136235   3.701   2.281  14.479  0.7824 -1.4187 -0.3383
 4940TIP3    H236236   3.618   2.155  14.463 -1.6657 -0.1830  1.8479
 4941TIP3   OH236237   2.992   6.520   1.290  0.5014  0.3354 -0.1788
 4941TIP3    H136238   2.912   6.519   1.342 -0.1065 -0.4724 -1.0977
 4941TIP3    H236239   3.002   6.612   1.264  0.4229  0.6152  0.7410
 4942TIP3   OH236240   5.300   6.324  12.212  0.0021 -0.3145  0.1828
 4942TIP3    H136241   5.333   6.413  12.219  0.4510 -0.4088 -0.6242
 4942TIP3    H236242   5.300   6.305  12.118 -0.7803 -0.9082  0.2836
 4943TIP3   OH236243   5.142   4.343  11.839 -0.2976 -0.6167  0.0086
 4943TIP3    H136244   5.220   4.287  11.840 -0.2501 -0.6888  3.6435
 4943TIP3    H236245   5.150   4.396  11.918 -2.7213  1.2348 -0.8694
 4944TIP3   OH236246   0.996   3.461   0.822  0.0108  0.0754 -0.6352
 4944TIP3    H136247   1.024   3.445   0.912 -1.1612  0.3785 -0.1968
 4944TIP3    H236248   0.980   3.373   0.787 -1.7023  0.0118  0.2009
 4945TIP3   OH236249   2.239   4.463  11.527 -0.3259  0.1606 -0.2801
 4945TIP3    H136250   2.325   4.456  11.487 -0.4041  2.5325 -1.0298
 4945TIP3    H236251   2.185   4.401  11.479  0.5292  0.0325 -1.1079
 4946TIP3   OH236252   4.825   2.813  14.902 -0.6924 -0.4055 -0.0075
 4946TIP3    H136253   4.845   2.886  14.960 -0.7914  0.8279 -1.4649
 4946TIP3    H236254   4.732   2.797  14.914 -1.2124  1.2871 -1.3300
 4947TIP3   OH236255   5.494   0.651   0.219  0.0528  0.0040 -0.6086
 4947TIP3    H136256   5.423   0.597   0.182  0.5182 -0.4427 -0.8581
 4947TIP3    H236257   5.492   0.732   0.168 -0.3737  0.0570 -0.5156
 4948TIP3   OH236258   2.610   3.099  15.534  0.3579 -0.2865 -0.9860
 4948TIP3    H136259   2.557   3.059  15.466 -1.2177  1.4895 -0.8979
 4948TIP3    H236260   2.696   3.109  15.495  0.2156 -1.7426 -1.7335
 4949TIP3   OH236261   2.271   6.277   1.867  0.1513 -0.3187 -0.2661
 4949TIP3    H136262   2.255   6.227   1.787 -0.3463  0.9514 -0.9985
 4949TIP3    H236263   2.220   6.358   1.855 -0.2171 -0.2525  1.4944
 4950TIP3   OH236264   1.100   1.632   3.393  0.5793 -0.6308  0.1888
 4950TIP3    H136265   1.149   1.688   3.453  3.9938 -1.6834 -1.3632
 4950TIP3    H236266   1.057   1.693   3.334  0.2116  0.3641  1.4307
 4951TIP3   OH236267   6.675   5.032   0.247  0.3301  0.1194 -0.3386
 4951TIP3    H136268   6.689   4.938   0.251  0.8650  0.1664 -0.9948
 4951TIP3    H236269   6.723   5.061   0.169  3.0916  1.4169  1.6562
 4952TIP3   OH236270   3.583   2.830   1.629 -0.2961 -0.2024 -0.5725
 4952TIP3    H136271   3.623   2.856   1.712 -1.3385  1.1138 -0.4383
 4952TIP3    H236272   3.597   2.735   1.624  2.7788  0.1701 -0.5734
 4953TIP3   OH236273   3.312   4.605   4.856  0.0095 -0.1174 -0.3337
 4953TIP3    H136274   3.389   4.574   4.808 -0.5159 -3.1152  0.5319
 4953TIP3    H236275   3.240   4.598   4.793  0.2983  2.4146 -1.0550
 4954TIP3   OH236276   1.600   1.515   0.832 -0.0926  0.0896  0.1505
 4954TIP3    H136277   1.646   1.580   0.780  0.8159 -0.8361 -0.2370
 4954TIP3    H236278   1.665   1.484   0.895 -0.3867 -0.7183  0.0713
 4955TIP3   OH236279   0.339   0.055   2.857 -0.1267  0.3101 -0.5280
 4955TIP3    H136280   0.302  -0.013   2.800 -0.4372  0.4200 -0.4628
 4955TIP3    H236281   0.362   0.127   2.798  2.4630 -0.7539 -0.9383
 4956TIP3   OH236282   3.713   3.374  12.000  1.0802  0.1235 -0.0027
 4956TIP3    H136283   3.645   3.369  12.067  1.2508 -0.6106  0.1199
 4956TIP3    H236284   3.735   3.467  11.995 -1.7523  0.8184 -1.8736
 4957TIP3   OH236285   4.959   6.443   0.431 -0.3209 -0.7445  0.0123
 4957TIP3    H136286   4.918   6.440   0.517 -0.1473  1.0299  0.1893
 4957TIP3    H236287   5.047   6.476   0.446 -0.5226  0.2817 -0.8931
 4958TIP3   OH236288   3.789   6.035   0.372  0.4895  0.0049  0.2021
 4958TIP3    H136289   3.807   6.106   0.309 -1.3836  0.5201  0.1949
 4958TIP3    H236290   3.704   6.057   0.410 -0.2641 -2.3217  0.0657
 4959TIP3   OH236291   5.617   4.847  13.317 -0.3854 -0.6811 -0.6521
 4959TIP3    H136292   5.603   4.754  13.303  0.9945 -1.1571  0.8884
 4959TIP3    H236293   5.684   4.871  13.253 -2.1300 -0.2376 -2.4150
 4960TIP3   OH236294   5.208   0.816   0.429 -0.8833  0.7880  0.2844
 4960TIP3    H136295   5.219   0.900   0.386  0.5526 -0.0317 -1.0705
 4960TIP3    H236296   5.125   0.782   0.396  0.4296 -0.0648 -2.4402
 4961TIP3   OH236297   3.457   4.186  14.246  0.3132 -0.3583  0.7023
 4961TIP3    H136298   3.365   4.179  14.223 -0.0773  2.5591  1.0145
 4961TIP3    H236299   3.499   4.221  14.168  1.0237 -0.9052  0.8277
 4962TIP3   OH236300   0.296   1.725   3.988 -0.3149 -0.1725  0.1369
 4962TIP3    H136301   0.373   1.773   3.957  0.1819  0.3770  2.0805
 4962TIP3    H236302   0.307   1.637   3.951  0.9906  0.0383 -0.0462
 4963TIP3   OH236303   5.761   6.225   6.038 -0.1690  0.2099 -0.4309
 4963TIP3    H136304   5.747   6.134   6.067  0.5348 -0.6124 -2.4927
 4963TIP3    H236305   5.837   6.254   6.088 -0.2335 -0.4353  0.0579
 4964TIP3   OH236306   1.425   0.914  16.806 -0.1457  1.1538 -0.7830
 4964TIP3    H136307   1.507   0.886  16.765 -0.0440 -0.0978  0.2268
 4964TIP3    H236308   1.412   0.854  16.879 -3.1304 -0.1619 -2.2341
 4965TIP3   OH236309   0.473   1.904  11.734 -0.0094 -0.1934  0.4645
 4965TIP3    H136310   0.478   1.969  11.804  0.9649  1.1828 -0.8251
 4965TIP3    H236311   0.560   1.905  11.694 -0.1629 -1.8774  0.0374
 4966TIP3   OH236312   5.264   3.876   5.090  0.3750 -0.0541  1.0997
 4966TIP3    H136313   5.170   3.880   5.109  0.3679  0.4536  0.9701
 4966TIP3    H236314   5.272   3.805   5.025 -0.0849  0.7308  0.1544
 4967TIP3   OH236315   3.725   0.446   0.297 -0.1409  0.5488 -0.2553
 4967TIP3    H136316   3.786   0.501   0.345 -0.3532  1.2030 -0.7238
 4967TIP3    H236317   3.644   0.448   0.348  0.4961 -1.1567  0.9293
 4968TIP3   OH236318   3.463   3.118  15.785  0.5200  0.3819 -0.2849
 4968TIP3    H136319   3.465   3.023  15.771  1.7086  0.0154  2.0083
 4968TIP3    H236320   3.370   3.141  15.776  0.2351 -0.9475 -1.0613
 4969TIP3   OH236321   1.031   6.718  11.524 -0.0192  0.4851 -0.1939
 4969TIP3    H136322   1.000   6.803  11.557  0.8654  1.1537 -1.0262
 4969TIP3    H236323   1.044   6.733  11.431 -0.7151 -0.8441 -0.5274
 4970TIP3   OH236324   5.215   4.051  14.883  0.1289 -0.8456 -0.8881
 4970TIP3    H136325   5.175   4.002  14.812  1.8174 -0.5140 -2.1398
 4970TIP3    H236326   5.166   4.133  14.886 -0.7552 -1.3646 -0.8047
 4971TIP3   OH236327   2.385   3.285  11.848  0.0704  0.0582 -0.2085
 4971TIP3    H136328   2.376   3.199  11.806  1.9695 -1.0259  1.3755
 4971TIP3    H236329   2.410   3.264  11.938 -1.7728  2.2872  0.9250
 4972TIP3   OH236330   4.774   1.029  14.480 -0.1044  0.5820  0.0360
 4972TIP3    H136331   4.774   0.935  14.501 -0.2750  0.9428  1.7937
 4972TIP3    H236332   4.691   1.061  14.514 -0.6641  1.1649 -1.7605
 4973TIP3   OH236333   1.206   4.207   1.376  0.2811 -0.5140 -0.7802
 4973TIP3    H136334   1.138   4.274   1.368  2.3910  2.0298  0.8797
 4973TIP3    H236335   1.278   4.240   1.322  2.0109 -0.4166  1.4111
 4974TIP3   OH236336   1.079   4.729   5.682  0.2266 -0.0005  0.2210
 4974TIP3    H136337   1.061   4.806   5.735 -0.1894 -0.4396  0.7396
 4974TIP3    H236338   1.149   4.683   5.730  0.8191  0.3094 -0.3467
 4975TIP3   OH236339   5.380   4.502   0.906 -0.1260 -0.3541  0.3386
 4975TIP3    H136340   5.434   4.488   0.984 -0.4311  1.1321  0.8658
 4975TIP3    H236341   5.401   4.430   0.848  0.4822 -1.2247  1.6029
 4976TIP3   OH236342   1.322   0.046   5.585 -0.2017 -0.0990 -0.0104
 4976TIP3    H136343   1.362   0.010   5.664  1.7799  1.2065 -0.3615
 4976TIP3    H236344   1.246   0.094   5.616  0.6020  0.4721  1.1403
 4977TIP3   OH236345   2.017   6.325  10.728  0.1949  0.8635 -0.5512
 4977TIP3    H136346   1.988   6.256  10.668  2.0978  0.6865 -1.3409
 4977TIP3    H236347   1.989   6.407  10.686 -1.9291  0.6365  0.3099
 4978TIP3   OH236348   4.862   3.246  16.305 -0.0988  0.1488 -0.1286
 4978TIP3    H136349   4.906   3.331  16.312 -0.5459  0.3655  0.1758
 4978TIP3    H236350   4.797   3.248  16.376 -2.4187  0.9535 -2.1411
 4979TIP3   OH236351   5.909   0.501  14.666 -0.2857  0.2540 -0.4561
 4979TIP3    H136352   5.822   0.514  14.704 -0.3994  0.1114 -0.6665
 4979TIP3    H236353   5.968   0.498  14.742 -0.3775  0.9946 -0.3405
 4980TIP3   OH236354   2.632   1.504  16.114 -0.0373 -0.4520  0.2671
 4980TIP3    H136355   2.589   1.550  16.042 -2.2315  0.8627  2.2724
 4980TIP3    H236356   2.713   1.470  16.076 -0.3606  1.4630 -2.4084
 4981TIP3   OH236357   4.995   1.555   4.021  0.0700 -0.0600 -0.1991
 4981TIP3    H136358   5.018   1.639   3.983 -2.0687 -0.0023 -1.4556
 4981TIP3    H236359   5.043   1.553   4.104  0.6031  2.1270 -0.4002
 4982TIP3   OH236360   1.969   1.321  14.360  0.2487  0.0924 -0.4922
 4982TIP3    H136361   1.951   1.323  14.266 -3.8014 -0.9625  0.0579
 4982TIP3    H236362   1.995   1.230  14.377 -0.3873 -0.0919 -0.4587
 4983TIP3   OH236363   0.522   4.303   1.477  0.0766 -0.7933  0.3089
 4983TIP3    H136364   0.572   4.302   1.558  0.8126  0.8966 -0.0733
 4983TIP3    H236365   0.435   4.332   1.502  0.1133 -0.9125  0.5757
 4984TIP3   OH236366   3.282   2.074   5.058  0.3412 -0.6069 -0.4978
 4984TIP3    H136367   3.290   1.982   5.085 -1.0148 -0.1285  1.7857
 4984TIP3    H236368   3.336   2.122   5.121 -0.1882  0.3080 -0.7351
 4985TIP3   OH236369   4.460   5.537   3.857  0.2925 -0.5277  0.4458
 4985TIP3    H136370   4.431   5.622   3.891  1.1489 -0.4588  1.0455
 4985TIP3    H236371   4.480   5.486   3.935 -1.3575 -1.7286  0.1389
 4986TIP3   OH236372   3.187   0.563  16.488 -0.6026  0.2121 -0.2278
 4986TIP3    H136373   3.096   0.587  16.506 -0.5223  0.3313  0.0277
 4986TIP3    H236374   3.183   0.473  16.457 -0.6959 -0.1847  0.8952
 4987TIP3   OH236375   0.899   1.012  15.245  0.0404  0.3085  0.0518
 4987TIP3    H136376   0.827   0.956  15.215  0.3019 -1.6644  2.6560
 4987TIP3    H236377   0.940   1.044  15.165 -2.0828 -0.6775 -1.5358
 4988TIP3   OH236378   4.595   3.347   5.462 -0.6746 -0.3640  0.2067
 4988TIP3    H136379   4.515   3.357   5.513  0.7095  2.0886  2.1137
 4988TIP3    H236380   4.592   3.418   5.398  0.4948  0.5529  1.1226
 4989TIP3   OH236381   6.340   2.533  12.249  0.2787  0.4497 -0.7088
 4989TIP3    H136382   6.331   2.481  12.329  0.4903  0.6100 -0.5814
 4989TIP3    H236383   6.407   2.487  12.198  0.9545  0.9594 -0.3023
 4990TIP3   OH236384   5.228   5.909   3.304  0.4253 -0.1834  0.1418
 4990TIP3    H136385   5.205   5.888   3.213  0.2469 -2.2251  0.6121
 4990TIP3    H236386   5.177   5.847   3.357  1.0697  0.4841  1.6001
 4991TIP3   OH236387   0.048   1.036  15.672 -0.9290 -0.0918  0.1583
 4991TIP3    H136388  -0.033   1.076  15.640  0.1095  0.1791 -2.3703
 4991TIP3    H236389   0.116   1.073  15.616  0.9542 -0.4212  2.1193
 4992TIP3   OH236390   2.307   3.727  16.143  0.2850 -0.5411  1.0720
 4992TIP3    H136391   2.337   3.709  16.232  2.3216  1.4785  0.8755
 4992TIP3    H236392   2.227   3.779  16.155 -1.4128 -3.0994  1.6182
 4993TIP3   OH236393   2.318   2.169   0.645  0.3031 -0.1094  0.4687
 4993TIP3    H136394   2.259   2.147   0.717  1.4747 -1.3515  1.0925
 4993TIP3    H236395   2.307   2.098   0.582  1.1116 -0.3556  0.5919
 4994TIP3   OH236396   6.537   2.137  16.778  0.3028 -0.2375  0.3821
 4994TIP3    H136397   6.629   2.131  16.807  0.5464 -1.3523 -0.5771
 4994TIP3    H236398   6.538   2.204  16.710  0.4456 -0.3994  0.2233
 4995TIP3   OH236399   0.748   2.340   2.059 -0.9929 -0.1881 -0.1704
 4995TIP3    H136400   0.744   2.360   2.152  0.9747  0.0038 -0.0738
 4995TIP3    H236401   0.687   2.268   2.047 -1.3257 -0.1756  1.2568
 4996TIP3   OH236402   6.550   0.067   0.657  0.2922  0.7610 -0.3418
 4996TIP3    H136403   6.567   0.101   0.745  0.4066  2.0002 -0.8334
 4996TIP3    H236404   6.462   0.097   0.636 -1.4008 -2.7441  0.8233
 4997TIP3   OH236405   2.212   1.769   5.281  0.6819 -0.5947  0.2250
 4997TIP3    H136406   2.136   1.808   5.325 -0.1434 -0.9334 -0.8625
 4997TIP3    H236407   2.286   1.797   5.334 -0.2538 -0.8796  1.7507
 4998TIP3   OH236408   6.229   2.007  13.382  0.3864 -0.5009 -0.1787
 4998TIP3    H136409   6.225   1.956  13.462 -0.5345 -0.7336 -0.3551
 4998TIP3    H236410   6.311   2.056  13.388  0.8968 -1.4001  0.3536
 4999TIP3   OH236411   1.031   5.232  16.131 -0.3866  0.5239 -0.0632
 4999TIP3    H136412   0.985   5.289  16.193 -1.0965  0.5778 -0.6335
 4999TIP3    H236413   1.108   5.202  16.180 -1.5469 -0.4235  1.2962
 5000TIP3   OH236414   2.083   0.470  16.217  0.1169 -0.4875  0.4022
 5000TIP3    H136415   2.068   0.391  16.165  0.2596 -0.4080  0.2418
 5000TIP3    H236416   2.055   0.542  16.161 -2.0631 -0.5438  1.3223
 5001TIP3   OH236417   1.038   5.929   3.510 -0.8485  0.1030 -0.3642
 5001TIP3    H136418   1.024   5.898   3.420 -0.3523  1.6220 -0.9993
 5001TIP3    H236419   1.132   5.951   3.513 -0.4663 -1.4920  1.0645
 5002TIP3   OH236420   0.839   4.963   4.093 -0.4931  0.3390 -0.2443
 5002TIP3    H136421   0.921   4.986   4.137 -0.4262 -1.5889  0.7565
 5002TIP3    H236422   0.834   5.023   4.018  2.0382  0.2341 -0.5862
 5003TIP3   OH236423   3.678   2.731   0.216  0.5883 -0.4236 -0.0643
 5003TIP3    H136424   3.633   2.721   0.132  0.6248 -2.6512  0.1261
 5003TIP3    H236425   3.644   2.659   0.270  2.6672 -0.7731  0.8510
 5004TIP3   OH236426   1.323   2.956   3.039 -0.5714 -0.0219  0.3793
 5004TIP3    H136427   1.241   2.991   3.074  0.5579  0.5478  2.6289
 5004TIP3    H236428   1.383   3.030   3.043  0.1781 -0.5331 -0.9036
 5005TIP3   OH236429   2.593   3.559  15.152 -0.0488 -0.1879 -0.2886
 5005TIP3    H136430   2.556   3.541  15.066  1.1655 -1.6494 -0.5552
 5005TIP3    H236431   2.675   3.605  15.134 -0.2245  0.2927  0.1316
 5006TIP3   OH236432   2.385   1.682   2.772 -0.0488 -0.1460 -0.2536
 5006TIP3    H136433   2.413   1.634   2.850 -1.3400  1.1733  1.0960
 5006TIP3    H236434   2.463   1.687   2.717  1.2021 -0.1912  1.4443
 5007TIP3   OH236435   4.146   4.116   0.165  0.1092  0.0673  0.4531
 5007TIP3    H136436   4.128   4.028   0.135  1.4836 -0.4957  1.1764
 5007TIP3    H236437   4.238   4.131   0.142 -0.6038  2.0948 -1.4892
 5008TIP3   OH236438   5.048   5.753   1.369  0.0522 -0.1602 -0.2171
 5008TIP3    H136439   4.999   5.675   1.395 -1.9544  1.0233 -0.2578
 5008TIP3    H236440   5.049   5.808   1.448 -2.4313  1.6378 -1.3163
 5009TIP3   OH236441   5.434   1.328   0.419  0.4096  0.4814 -0.3620
 5009TIP3    H136442   5.450   1.362   0.331 -0.7061 -0.2669 -0.8798
 5009TIP3    H236443   5.358   1.376   0.449  0.9509  0.9255  0.3179
 5010TIP3   OH236444   0.039   6.005   2.645  0.2395  0.3432 -0.0446
 5010TIP3    H136445   0.039   6.042   2.557  0.9728  3.1609  1.0200
 5010TIP3    H236446  -0.043   5.956   2.652 -1.0031  2.1085 -1.5050
 5011TIP3   OH236447   1.394   0.392  14.028  0.5195  0.0240  0.2647
 5011TIP3    H136448   1.395   0.466  13.968  1.5363  0.8255  1.2212
 5011TIP3    H236449   1.315   0.342  14.004 -0.2591  1.4774 -0.3032
 5012TIP3   OH236450   0.465   5.010  16.547  0.1334  0.2781  0.0613
 5012TIP3    H136451   0.401   4.959  16.497 -0.9191  1.8978 -0.3268
 5012TIP3    H236452   0.413   5.077  16.591  1.3964  0.6609  1.0361
 5013TIP3   OH236453   2.979   0.394   2.398  0.0336  0.1436  0.6438
 5013TIP3    H136454   2.917   0.321   2.395  0.6469 -0.3734  0.4859
 5013TIP3    H236455   3.051   0.367   2.341  1.5608 -0.3260  2.6838
 5014TIP3   OH236456   2.350   5.802   5.055 -0.2383  0.6157  0.2872
 5014TIP3    H136457   2.445   5.792   5.044 -0.5631 -1.9266 -0.9570
 5014TIP3    H236458   2.338   5.894   5.079  2.5964  0.7975  1.3894
 5015TIP3   OH236459   5.210   0.220  13.478  0.5766 -0.1599 -0.1608
 5015TIP3    H136460   5.158   0.144  13.453  0.4490  0.6760 -2.7517
 5015TIP3    H236461   5.290   0.183  13.515 -0.4521 -1.4769  0.8725
 5016TIP3   OH236462   6.294   4.886   4.468 -0.1115 -0.6174  0.5851
 5016TIP3    H136463   6.251   4.971   4.476  1.2219  0.4353 -2.0377
 5016TIP3    H236464   6.314   4.860   4.558 -1.9957  1.0306  1.5528
 5017TIP3   OH236465   2.460   6.286  16.317 -0.0092 -0.1572 -0.2862
 5017TIP3    H136466   2.450   6.297  16.223 -2.5057  1.2826  0.0528
 5017TIP3    H236467   2.385   6.233  16.343  0.9453 -1.0034  0.8532
 5018TIP3   OH236468   3.677   0.581   3.272  0.0391  0.3721 -0.3052
 5018TIP3    H136469   3.686   0.492   3.306  0.6931  0.2206 -0.8498
 5018TIP3    H236470   3.671   0.636   3.350  1.4636  0.0256  0.0847
 5019TIP3   OH236471   0.071   0.995   0.638  0.2644  0.1682 -0.4567
 5019TIP3    H136472  -0.012   1.037   0.614  1.0226  0.8766 -1.9225
 5019TIP3    H236473   0.138   1.056   0.608  1.3412 -0.5254  0.4659
 5020TIP3   OH236474   4.458   4.647  14.454 -0.3585  0.3902 -0.2251
 5020TIP3    H136475   4.518   4.704  14.405 -1.7018  0.6816 -1.6094
 5020TIP3    H236476   4.470   4.672  14.545  1.3213  0.7121 -0.4997
 5021TIP3   OH236477   4.651   6.593  15.028  0.3238  0.3569 -0.2212
 5021TIP3    H136478   4.646   6.498  15.037  0.9134  0.4477  1.3358
 5021TIP3    H236479   4.733   6.618  15.070  0.8507  1.4575 -1.7843
 5022TIP3   OH236480   4.614   5.765   4.916  0.2279  0.1485  0.4072
 5022TIP3    H136481   4.543   5.722   4.868 -2.9078  2.4740  2.5145
 5022TIP3    H236482   4.675   5.793   4.848 -0.8582 -1.9083 -1.5669
 5023TIP3   OH236483   0.728   4.228   4.163  0.1871 -0.5368 -0.1279
 5023TIP3    H136484   0.819   4.198   4.167  0.1526 -0.6478 -0.1521
 5023TIP3    H236485   0.716   4.279   4.243  0.1282 -0.9365  0.1219
 5024TIP3   OH236486   4.484   0.204   1.066  0.3935 -0.3256 -0.0354
 5024TIP3    H136487   4.400   0.182   1.026 -0.6711  0.9279  1.4131
 5024TIP3    H236488   4.517   0.121   1.101  0.8064 -1.2332 -2.3908
 5025TIP3   OH236489   2.788   1.207   1.093  0.0072  0.6236 -0.1686
 5025TIP3    H136490   2.831   1.278   1.046 -1.5330 -0.1971 -3.0144
 5025TIP3    H236491   2.736   1.251   1.160  0.4019  2.0501 -0.7597
 5026TIP3   OH236492   2.500   2.580   2.638 -0.6704 -0.6030  0.3000
 5026TIP3    H136493   2.482   2.647   2.703 -1.7743 -1.3521  0.7900
 5026TIP3    H236494   2.438   2.510   2.657 -0.0710 -1.4383 -0.6857
 5027TIP3   OH236495   3.598   0.641   1.451 -0.4595  0.2732 -0.3749
 5027TIP3    H136496   3.523   0.648   1.510  0.4982  1.1883  0.7903
 5027TIP3    H236497   3.567   0.679   1.368 -1.5691 -0.2663 -0.2212
 5028TIP3   OH236498   5.968   3.483   4.089 -0.7373 -0.2528  0.3884
 5028TIP3    H136499   5.897   3.428   4.122  0.0298 -0.3708  1.9230
 5028TIP3    H236500   6.021   3.424   4.037 -2.4616  0.1376 -1.9874
 5029TIP3   OH236501   6.039   4.903  14.473  0.4388 -0.2645  0.1659
 5029TIP3    H136502   6.049   4.885  14.379  1.3557  1.3492 -0.0776
 5029TIP3    H236503   5.954   4.946  14.480 -0.8332 -2.6314  0.4842
 5030TIP3   OH236504   5.196   3.899   1.504 -0.4212  0.3850 -0.2792
 5030TIP3    H136505   5.230   3.989   1.510 -0.6060  0.3647  1.7307
 5030TIP3    H236506   5.154   3.895   1.418  0.6529  1.8333 -0.9220
 5031TIP3   OH236507   6.275   6.206   4.697 -0.3099 -0.2032  0.3650
 5031TIP3    H136508   6.352   6.221   4.642 -0.7610 -0.7330 -0.4439
 5031TIP3    H236509   6.297   6.244   4.782  1.0045 -0.7348  0.2762
 5032TIP3   OH236510   5.130   3.885  15.148 -0.5318  0.1118  0.3030
 5032TIP3    H136511   5.130   3.900  15.053  0.6117  1.5191  0.4878
 5032TIP3    H236512   5.187   3.809  15.160  0.8287  1.0234 -0.0449
 5033TIP3   OH236513   5.297   2.292   3.465 -0.6261  0.2681  0.0043
 5033TIP3    H136514   5.330   2.210   3.428 -2.0260 -0.0933 -0.5056
 5033TIP3    H236515   5.203   2.292   3.444 -0.9877  1.2153  1.4359
 5034TIP3   OH236516   4.887   6.701   0.143 -0.1264 -0.5527  0.0147
 5034TIP3    H136517   4.924   6.732   0.226 -0.8983 -0.4762  0.3486
 5034TIP3    H236518   4.877   6.780   0.090  1.3458 -0.7400 -0.5676
 5035TIP3   OH236519   6.017   1.921  13.130 -0.5930  0.1334  0.6889
 5035TIP3    H136520   5.946   1.857  13.119 -0.3803 -0.0030  0.0026
 5035TIP3    H236521   6.070   1.911  13.050  0.1758  0.2600  1.1675
 5036TIP3   OH236522   3.898   5.473  14.541  0.1102  0.1109  0.0277
 5036TIP3    H136523   3.945   5.410  14.596  0.0263  0.5990  0.6635
 5036TIP3    H236524   3.967   5.522  14.496  0.1826 -0.1556 -0.1537
 5037TIP3   OH236525   2.831   5.302   4.068 -0.3012 -0.4592 -0.1218
 5037TIP3    H136526   2.816   5.257   3.985 -0.3025 -1.3115  0.3252
 5037TIP3    H236527   2.777   5.253   4.131 -1.4712  1.0762  0.1223
 5038TIP3   OH236528   0.758   5.798  16.630 -0.1112  0.5984  0.1666
 5038TIP3    H136529   0.737   5.889  16.654  0.4625  1.0311 -0.9062
 5038TIP3    H236530   0.679   5.764  16.590 -0.7403  0.2004  1.6776
 5039TIP3   OH236531   3.074   0.136   0.180  0.0611 -0.0479 -0.2274
 5039TIP3    H136532   3.128   0.204   0.220 -0.0650  1.2503 -2.1247
 5039TIP3    H236533   3.035   0.178   0.104 -2.5749 -1.3461  0.3000
 5040TIP3   OH236534   3.379   1.134   3.346 -0.2087  0.6448  0.0890
 5040TIP3    H136535   3.323   1.094   3.413  0.0681  2.0752  1.2287
 5040TIP3    H236536   3.343   1.221   3.333  0.6954  0.9476 -0.4725
 5041TIP3   OH236537   0.981   0.552  16.603 -0.7894  0.0384  0.5326
 5041TIP3    H136538   1.066   0.582  16.636 -0.5151 -0.3727  0.2136
 5041TIP3    H236539   0.918   0.616  16.637 -0.2441  0.8749  0.0389
 5042TIP3   OH236540   0.150   2.284   5.370 -0.0839  0.1400 -0.1028
 5042TIP3    H136541   0.128   2.197   5.336 -1.4040  1.0318 -1.6476
 5042TIP3    H236542   0.246   2.283   5.377 -0.1069 -1.6998  0.7471
 5043TIP3   OH236543   4.280   0.800  13.726  0.3336 -0.0831  0.1885
 5043TIP3    H136544   4.375   0.790  13.715  0.7510  2.2749  1.0572
 5043TIP3    H236545   4.255   0.727  13.782  1.7488 -0.4566  0.3830
 5044TIP3   OH236546   0.443   1.909   2.214  0.1342  0.3894  0.0899
 5044TIP3    H136547   0.411   1.819   2.220  0.3739  0.3412  0.6873
 5044TIP3    H236548   0.369   1.958   2.178 -0.2024  0.0649  0.3370
 5045TIP3   OH236549   0.645   2.561   1.926 -0.6315 -0.5122  0.5748
 5045TIP3    H136550   0.676   2.610   2.003  2.1668  0.0591 -0.7915
 5045TIP3    H236551   0.687   2.476   1.933 -0.1618 -0.3688 -0.4393
 5046TIP3   OH236552   4.321   3.813   4.840 -0.5108  0.2431 -0.1460
 5046TIP3    H136553   4.263   3.774   4.904 -1.3255  1.0365 -0.3843
 5046TIP3    H236554   4.268   3.880   4.797  0.5098  0.8324 -0.5222
 5047TIP3   OH236555   1.639   4.145  11.754  0.1298 -0.0605 -0.2819
 5047TIP3    H136556   1.595   4.068  11.719 -0.7328  0.6025 -0.7020
 5047TIP3    H236557   1.571   4.191  11.803  0.3686  0.9309 -0.8475
 5048TIP3   OH236558   2.091   2.114   1.855  0.4866  0.0567  0.3295
 5048TIP3    H136559   2.033   2.187   1.875 -0.5683 -0.7703  0.4138
 5048TIP3    H236560   2.085   2.103   1.760 -1.2667 -1.3906  0.5448
 5049TIP3   OH236561   3.353   4.783   5.759  0.0993  0.1733  0.1223
 5049TIP3    H136562   3.265   4.757   5.784  1.0867 -1.5055  2.1179
 5049TIP3    H236563   3.385   4.834   5.834  1.4221 -0.7465  0.2120
 5050TIP3   OH236564   3.501   5.239   0.390 -0.2390  0.2159  0.1043
 5050TIP3    H136565   3.521   5.296   0.316  0.7873 -2.5843 -1.9821
 5050TIP3    H236566   3.425   5.188   0.361  0.2836 -1.0583  0.8841
 5051TIP3   OH236567   3.338   1.202   2.741  0.3263 -0.1611  0.1079
 5051TIP3    H136568   3.253   1.229   2.775  0.9746  0.3271  1.4087
 5051TIP3    H236569   3.383   1.283   2.719  0.6665 -0.3879 -0.0499
 5052TIP3   OH236570   0.288   5.165  11.971 -0.5377  0.1092 -0.3521
 5052TIP3    H136571   0.205   5.123  11.993 -0.1816 -0.3420  0.1596
 5052TIP3    H236572   0.329   5.106  11.908 -0.5815  0.3089 -0.5689
 5053TIP3   OH236573   0.085   3.325   2.326 -0.2219 -0.2460 -0.6829
 5053TIP3    H136574   0.053   3.337   2.237  0.0895  1.7328 -0.5607
 5053TIP3    H236575   0.035   3.386   2.379  1.5394  0.6756  0.0222
 5054TIP3   OH236576   3.611   0.733   2.651  0.1482 -0.2344  0.1754
 5054TIP3    H136577   3.662   0.706   2.727 -1.2655  0.6902  1.5020
 5054TIP3    H236578   3.530   0.683   2.657 -0.0568 -0.0240 -0.6443
 5055TIP3   OH236579   0.581   1.663  16.745 -0.1220 -0.1632  0.4430
 5055TIP3    H136580   0.583   1.752  16.710 -1.3151 -0.7504 -1.2249
 5055TIP3    H236581   0.666   1.626  16.722  0.1582  0.3652  0.6339
 5056TIP3   OH236582   1.717   4.609   5.535 -0.1901 -0.4263 -0.2492
 5056TIP3    H136583   1.735   4.630   5.627  0.2537 -0.0994 -0.4037
 5056TIP3    H236584   1.791   4.647   5.488 -0.3556 -0.7019 -0.7298
 5057TIP3   OH236585   4.415   6.724  11.715 -0.4026  1.0376 -0.1464
 5057TIP3    H136586   4.471   6.756  11.787  1.0498 -0.4259 -0.5737
 5057TIP3    H236587   4.410   6.798  11.654  2.1165  0.8478 -0.6763
 5058TIP3   OH236588   0.762   1.511   5.365  0.1287  0.0727  0.4933
 5058TIP3    H136589   0.816   1.548   5.296  0.5466 -1.5786 -0.1037
 5058TIP3    H236590   0.772   1.417   5.356 -1.2255 -0.2252  1.6882
 5059TIP3   OH236591   4.429   0.467  17.093 -0.1902 -0.2894  1.0493
 5059TIP3    H136592   4.439   0.484  17.000 -0.8747 -0.1375  0.9981
 5059TIP3    H236593   4.491   0.397  17.112 -0.1806 -0.4467  0.4438
 5060TIP3   OH236594   2.529   2.900  14.331  0.7948  0.1882 -0.5159
 5060TIP3    H136595   2.452   2.867  14.285 -0.2784 -0.0352  1.3195
 5060TIP3    H236596   2.578   2.821  14.354 -1.1130 -0.2549  2.7375
 5061TIP3   OH236597   0.964   3.746  12.227 -0.1599  0.1788  0.0808
 5061TIP3    H136598   0.991   3.727  12.137  1.9844  0.5057  0.5919
 5061TIP3    H236599   0.905   3.821  12.220 -1.9266 -1.2388 -1.2095
 5062TIP3   OH236600   6.318   5.725   5.831  0.4336  0.3975  0.1437
 5062TIP3    H136601   6.302   5.766   5.745  2.0740 -1.0201 -0.9159
 5062TIP3    H236602   6.403   5.683   5.821  1.1799  1.1014  2.8664
 5063TIP3   OH236603   2.811   5.861  14.619 -0.7914  0.4756  0.3506
 5063TIP3    H136604   2.894   5.815  14.607 -1.1566  0.3807 -2.6216
 5063TIP3    H236605   2.834   5.942  14.664  0.8142  0.1943  0.0942
 5064TIP3   OH236606   2.220   5.737   5.330  0.4137  0.4347 -0.0922
 5064TIP3    H136607   2.188   5.827   5.327 -1.5034 -0.1956 -0.0778
 5064TIP3    H236608   2.173   5.692   5.260  0.1223 -0.9023  0.9091
 5065TIP3   OH236609   4.685   1.714  14.508 -0.0328 -0.2829 -0.3913
 5065TIP3    H136610   4.649   1.671  14.586 -3.4507 -0.6184 -1.9405
 5065TIP3    H236611   4.716   1.799  14.540 -1.2428 -0.4490  1.3940
 5066TIP3   OH236612   3.894   2.175  12.484 -0.1746 -0.6033 -0.2916
 5066TIP3    H136613   3.874   2.237  12.555 -1.6160 -0.5512 -0.7136
 5066TIP3    H236614   3.852   2.213  12.407  3.2128  0.5065 -1.7769
 5067TIP3   OH236615   2.250   6.161   0.301  0.2287  0.3090  0.2613
 5067TIP3    H136616   2.265   6.071   0.272 -0.1750  0.2817  0.1318
 5067TIP3    H236617   2.286   6.215   0.230  0.5013  0.2522  0.3545
 5068TIP3   OH236618   1.474   0.684  12.822 -0.6780 -0.3554  0.3750
 5068TIP3    H136619   1.386   0.665  12.789 -0.9638  2.2024 -0.6295
 5068TIP3    H236620   1.533   0.648  12.756 -1.0869  0.2369 -0.3341
 5069TIP3   OH236621   5.644   5.268   2.557 -0.4271 -0.6007 -0.0483
 5069TIP3    H136622   5.566   5.221   2.528  0.4112 -2.0186 -0.1016
 5069TIP3    H236623   5.616   5.313   2.637 -1.3624 -0.8563 -0.2195
 5070TIP3   OH236624   3.442   2.012  16.095  0.0658 -0.2568  0.0882
 5070TIP3    H136625   3.381   1.956  16.143  0.7707 -1.3273 -0.2254
 5070TIP3    H236626   3.489   2.061  16.163 -2.3958  2.0401  0.2999
 5071TIP3   OH236627   5.299   5.949  10.965 -0.1047  0.1008  0.3083
 5071TIP3    H136628   5.353   6.028  10.953 -0.9277  0.4930 -1.1095
 5071TIP3    H236629   5.226   5.961  10.904 -0.2571 -1.7595  0.0778
 5072TIP3   OH236630   0.779   2.676   5.399 -0.8135 -0.2245 -0.1820
 5072TIP3    H136631   0.784   2.727   5.480  0.8537 -0.9224  0.1959
 5072TIP3    H236632   0.789   2.741   5.329  1.1146  0.0432  0.2841
 5073TIP3   OH236633   6.704   1.334  12.116  0.1060 -0.8033 -0.0871
 5073TIP3    H136634   6.681   1.277  12.189 -0.7571  0.8767  1.0256
 5073TIP3    H236635   6.637   1.315  12.049 -0.9598 -0.2034  0.7808
 5074TIP3   OH236636   3.993   6.566   1.490  0.0998  0.7649 -0.6762
 5074TIP3    H136637   4.027   6.573   1.579 -1.4174  0.0043  0.0044
 5074TIP3    H236638   4.022   6.647   1.447  0.5096  1.3348  0.6284
 5075TIP3   OH236639   1.655   0.044  16.323 -0.2327 -0.2113  0.4441
 5075TIP3    H136640   1.627   0.078  16.239 -0.7899 -2.3582 -0.3035
 5075TIP3    H236641   1.596  -0.029  16.341 -0.6909  0.6890  3.1381
 5076TIP3   OH236642   4.295   5.776  17.163  0.0913 -0.8470 -0.1918
 5076TIP3    H136643   4.360   5.845  17.172 -0.4884 -0.3000 -0.1540
 5076TIP3    H236644   4.321   5.728  17.085  0.3669 -0.4393 -0.3531
 5077TIP3   OH236645   3.858   6.535   2.009 -0.3850  0.2815  0.2688
 5077TIP3    H136646   3.937   6.590   2.006 -0.1332 -0.0540 -2.5406
 5077TIP3    H236647   3.849   6.511   2.101  2.8541  0.2603  0.7103
 5078TIP3   OH236648   5.460   6.279   4.460  0.5071 -0.1088 -0.0443
 5078TIP3    H136649   5.473   6.293   4.366  0.1893  2.7877  0.2497
 5078TIP3    H236650   5.515   6.345   4.502  1.2626 -1.8694  1.8791
 5079TIP3   OH236651   2.306   4.309   1.963  0.0766  0.1287 -0.0116
 5079TIP3    H136652   2.322   4.309   1.869 -0.2310 -0.4139 -0.0705
 5079TIP3    H236653   2.233   4.248   1.975  0.9800 -0.8345  0.7195
 5080TIP3   OH236654   2.276   5.688   2.367  0.5685  0.0568  0.3898
 5080TIP3    H136655   2.243   5.659   2.452  1.0383  0.9626  0.9016
 5080TIP3    H236656   2.287   5.608   2.316 -1.3535 -0.3563  0.5739
 5081TIP3   OH236657   0.547   3.984  12.113  0.4085 -0.2633  0.2285
 5081TIP3    H136658   0.475   3.923  12.127  1.4327 -1.1118  2.0344
 5081TIP3    H236659   0.574   3.968  12.022 -0.2055 -1.5145  0.2479
 5082TIP3   OH236660   2.958   4.591   2.378 -0.2665  0.6185 -0.9232
 5082TIP3    H136661   2.933   4.585   2.470  1.4157  0.1946 -0.4728
 5082TIP3    H236662   2.904   4.663   2.344 -0.2622  1.3854  0.6003
 5083TIP3   OH236663   6.041   0.243   1.746  0.3596 -0.6803  0.1119
 5083TIP3    H136664   6.022   0.149   1.744  0.2722 -0.7587  2.2388
 5083TIP3    H236665   6.002   0.273   1.828  0.8936  1.1200 -0.2559
 5084TIP3   OH236666   4.852   3.991  15.467 -0.1520 -0.0114 -0.0986
 5084TIP3    H136667   4.921   4.054  15.490  0.3131 -0.5913  0.1169
 5084TIP3    H236668   4.840   4.002  15.372  1.4554 -1.0773 -0.4691
 5085TIP3   OH236669   4.586   4.353  11.304  0.7148  0.0535  0.0899
 5085TIP3    H136670   4.590   4.298  11.226 -0.6464 -0.1631  0.1398
 5085TIP3    H236671   4.516   4.416  11.285  1.1527  0.7405  0.6846
 5086TIP3   OH236672   2.112   0.657   3.059  0.3238  0.2197  0.0638
 5086TIP3    H136673   2.040   0.714   3.085  0.0102 -0.9259  1.8961
 5086TIP3    H236674   2.189   0.712   3.064 -0.3103  1.2550 -1.1427
 5087TIP3   OH236675   2.751   0.189   3.083  0.1578  0.2735  0.2515
 5087TIP3    H136676   2.797   0.121   3.132 -0.8529  0.5259  1.6103
 5087TIP3    H236677   2.658   0.168   3.094 -0.1330  1.1503 -0.3810
 5088TIP3   OH236678   2.597   4.689   4.552 -0.8634 -0.8053  0.6795
 5088TIP3    H136679   2.561   4.760   4.499  2.3876 -0.0250 -0.7190
 5088TIP3    H236680   2.621   4.621   4.488  0.0974 -1.2621  1.4840
 5089TIP3   OH236681   6.616   3.478   3.441  0.0552 -0.2709  0.0687
 5089TIP3    H136682   6.701   3.520   3.428  0.8149 -1.2361  1.5560
 5089TIP3    H236683   6.575   3.528   3.511 -0.7936  0.4312 -0.9118
 5090TIP3   OH236684   5.837   5.876   2.368  0.5315  0.3659 -0.0237
 5090TIP3    H136685   5.867   5.914   2.286  1.8757  0.3391  0.4254
 5090TIP3    H236686   5.911   5.824   2.399 -0.3952 -0.6502  0.5900
 5091TIP3   OH236687   6.239   2.623  17.189  0.0895 -0.6253 -0.0440
 5091TIP3    H136688   6.301   2.686  17.228 -0.5357 -0.2577  0.3700
 5091TIP3    H236689   6.268   2.614  17.098 -1.5484  2.6054 -1.0419
 5092TIP3   OH236690   2.240   3.407  13.545  0.2825 -0.2180 -0.3536
 5092TIP3    H136691   2.241   3.313  13.567  0.4453 -0.1220  0.0633
 5092TIP3    H236692   2.313   3.443  13.595 -0.2924  0.2758  0.1319
 5093TIP3   OH236693   4.327   2.542  12.091  0.4701  0.2400 -0.0116
 5093TIP3    H136694   4.380   2.622  12.085  2.7866 -1.1009  1.3270
 5093TIP3    H236695   4.354   2.491  12.014 -1.0723  0.7241 -0.9124
 5094TIP3   OH236696   1.662   4.182   0.597  0.2742  0.0947 -0.5241
 5094TIP3    H136697   1.726   4.180   0.668 -0.8423  0.9130  0.5646
 5094TIP3    H236698   1.623   4.095   0.597  0.5393 -0.0241 -0.3647
 5095TIP3   OH236699   3.040   0.306   5.068 -0.0321 -0.0835  0.3244
 5095TIP3    H136700   3.065   0.388   5.024 -0.1664 -1.2790 -2.1266
 5095TIP3    H236701   3.123   0.258   5.077 -0.1490 -0.2435  0.5410
 5096TIP3   OH236702   1.990   1.048   0.918 -0.5207  0.0406 -0.3640
 5096TIP3    H136703   1.995   0.981   0.850  1.7043 -0.6988  0.4242
 5096TIP3    H236704   2.031   1.007   0.995 -2.9819  0.8092  1.5000
 5097TIP3   OH236705   6.389   6.470   0.086  0.2612  0.6643  0.2513
 5097TIP3    H136706   6.471   6.438   0.049 -0.0616  0.1542 -0.0272
 5097TIP3    H236707   6.399   6.458   0.181  0.1170 -0.3477  0.1505
 5098TIP3   OH236708   0.365   6.374   1.801 -0.3964 -0.0529  0.3634
 5098TIP3    H136709   0.409   6.459   1.808  0.5456 -0.6286  1.9693
 5098TIP3    H236710   0.289   6.391   1.745  1.0999  1.2908 -1.3966
 5099TIP3   OH236711   0.226   3.744  12.543  0.2984  0.2135  0.2462
 5099TIP3    H136712   0.187   3.816  12.493  0.1970 -0.0341 -0.0340
 5099TIP3    H236713   0.251   3.679  12.476  0.0655 -0.1660  0.5239
 5100TIP3   OH236714   4.407   2.779  14.222 -0.2094  0.0036  0.3926
 5100TIP3    H136715   4.351   2.708  14.254 -2.6564  2.2223  1.3751
 5100TIP3    H236716   4.366   2.807  14.140  2.0529 -1.0879 -1.2255
 5101TIP3   OH236717   0.370   5.013   3.901 -0.2431 -0.0656 -0.0686
 5101TIP3    H136718   0.342   5.032   3.811 -0.9257 -1.2698 -0.1372
 5101TIP3    H236719   0.437   5.078   3.919  0.1361  0.0146 -1.5738
 5102TIP3   OH236720   1.769   0.842   2.840  0.0829  0.8382 -0.0222
 5102TIP3    H136721   1.714   0.829   2.918 -0.4191  1.5603 -0.2432
 5102TIP3    H236722   1.718   0.803   2.769  1.2450 -1.2377  0.2352
 5103TIP3   OH236723   1.678   0.090  14.282  0.1065 -0.3448  0.5886
 5103TIP3    H136724   1.771   0.080  14.261  0.3501  0.2728  1.3121
 5103TIP3    H236725   1.666   0.041  14.363 -0.1046 -0.0994  0.7081
 5104TIP3   OH236726   5.876   5.525  14.591  0.0876  0.3774 -0.4747
 5104TIP3    H136727   5.904   5.531  14.683 -2.3279  0.9262  0.2863
 5104TIP3    H236728   5.926   5.593  14.546  2.3332 -0.8009  0.1054
 5105TIP3   OH236729   0.652   0.966   4.748 -0.1788  0.2122 -0.3552
 5105TIP3    H136730   0.656   0.874   4.772 -0.3102 -0.1363 -1.5957
 5105TIP3    H236731   0.733   1.003   4.782 -0.6458 -0.0895  1.1604
 5106TIP3   OH236732   3.185   4.714   0.130  0.2070  0.6254  0.1774
 5106TIP3    H136733   3.201   4.650   0.061  1.2449 -0.8291  1.6813
 5106TIP3    H236734   3.249   4.783   0.115 -0.9866  1.4391 -1.5166
 5107TIP3   OH236735   2.456   4.319   4.952  0.0630  0.1557  0.4252
 5107TIP3    H136736   2.484   4.406   4.921 -1.7490  0.8333  0.5836
 5107TIP3    H236737   2.364   4.312   4.926  0.0985 -1.6238  0.6598
 5108TIP3   OH236738   5.346   5.043   1.411  0.5970 -0.4225 -0.0719
 5108TIP3    H136739   5.368   4.950   1.422  2.1800 -0.1450 -0.6512
 5108TIP3    H236740   5.298   5.047   1.328 -0.3273 -0.8311  0.4266
 5109TIP3   OH236741   1.101   2.162  16.275  0.4253  0.4824 -0.0103
 5109TIP3    H136742   1.104   2.176  16.181 -2.0980 -1.5603 -0.5028
 5109TIP3    H236743   1.037   2.226  16.307 -0.6560 -0.5006 -0.1350
 5110TIP3   OH236744   2.946   1.313  11.921 -0.2327 -0.8474 -0.5612
 5110TIP3    H136745   2.862   1.267  11.919 -0.5991 -0.2007 -0.5592
 5110TIP3    H236746   2.986   1.286  12.003 -1.1258 -0.0175  0.1858
 5111TIP3   OH236747   0.802   2.198  15.000  0.2682 -0.3660 -0.0112
 5111TIP3    H136748   0.834   2.272  14.949  0.0790 -0.3755 -0.1432
 5111TIP3    H236749   0.881   2.149  15.023  0.3236 -0.5692 -0.6179
 5112TIP3   OH236750   1.646   5.371   2.381  0.4333 -0.0881  0.5644
 5112TIP3    H136751   1.718   5.338   2.328 -0.4222 -0.6437 -0.2712
 5112TIP3    H236752   1.682   5.374   2.470  1.0878 -1.5883  0.3821
 5113TIP3   OH236753   6.098   5.356   5.303 -0.0199  0.1852 -0.0216
 5113TIP3    H136754   6.081   5.291   5.235  2.2031  0.3225 -0.7942
 5113TIP3    H236755   6.182   5.395   5.279 -0.4326  2.1053  1.3969
 5114TIP3   OH236756   4.438   6.165   0.665 -0.1595  0.1336 -0.8607
 5114TIP3    H136757   4.362   6.196   0.615 -2.2956 -2.4740  0.5118
 5114TIP3    H236758   4.487   6.112   0.602 -1.7525 -1.4932 -0.8243
 5115TIP3   OH236759   5.870   6.226  13.159 -0.6049  0.0140  0.4452
 5115TIP3    H136760   5.909   6.312  13.146 -2.6617  1.0408  0.5816
 5115TIP3    H236761   5.776   6.240  13.146 -0.9628 -2.3352 -0.0880
 5116TIP3   OH236762   5.879   3.400  15.113 -0.0416 -0.5964 -0.3346
 5116TIP3    H136763   5.786   3.387  15.093 -0.7711  1.2049  1.4694
 5116TIP3    H236764   5.906   3.318  15.155 -0.6820 -1.2899 -1.2392
 5117TIP3   OH236765   3.277   0.194  11.884 -1.0667 -0.3750  0.0971
 5117TIP3    H136766   3.213   0.249  11.930 -3.1722 -1.8401 -0.8855
 5117TIP3    H236767   3.289   0.118  11.941  1.5334  0.8218  1.2706
 5118TIP3   OH236768   5.849   2.716   1.696  0.1187 -0.1777  0.4322
 5118TIP3    H136769   5.929   2.722   1.749  0.9635 -1.7827 -0.5820
 5118TIP3    H236770   5.780   2.696   1.759  0.6624  0.3615  1.2215
 5119TIP3   OH236771   3.385   3.793  17.047  0.2890 -0.1374  0.3721
 5119TIP3    H136772   3.468   3.782  17.001  0.3903  1.8467  0.0050
 5119TIP3    H236773   3.321   3.809  16.977 -0.1824 -0.4199  0.7291
 5120TIP3   OH236774   3.999   0.811   2.256  0.4034  0.2288  0.0081
 5120TIP3    H136775   3.910   0.841   2.237  0.7591  1.5002  0.2567
 5120TIP3    H236776   3.995   0.777   2.345  0.1092  0.0571 -0.0712
 5121TIP3   OH236777   2.430   2.787  17.050 -0.3744  0.0372  0.0569
 5121TIP3    H136778   2.457   2.867  17.095  0.3331 -0.3497  0.3266
 5121TIP3    H236779   2.413   2.724  17.120  0.1263 -0.3754 -0.1849
 5122TIP3   OH236780   0.645   1.365   3.845  0.0061  0.0050  0.2575
 5122TIP3    H136781   0.725   1.352   3.794  0.5490 -1.4633  1.4264
 5122TIP3    H236782   0.672   1.422   3.917 -0.3886  0.7840 -0.1997
 5123TIP3   OH236783   1.287   0.570   4.961 -0.0067  0.2374 -0.2243
 5123TIP3    H136784   1.224   0.498   4.970  0.7562 -0.4363 -0.1656
 5123TIP3    H236785   1.337   0.548   4.883  0.0120  0.8907 -0.4024
 5124TIP3   OH236786   4.039   3.738   3.153  0.2782 -0.0495  0.3257
 5124TIP3    H136787   4.040   3.768   3.244 -0.5190 -0.4140  0.4668
 5124TIP3    H236788   3.947   3.719   3.135  0.1612  1.5995 -1.0959
 5125TIP3   OH236789   1.409   0.781  15.207 -0.0485 -0.7019  0.0540
 5125TIP3    H136790   1.318   0.783  15.178  0.2881  0.4669 -1.0086
 5125TIP3    H236791   1.416   0.700  15.258 -1.0279 -2.1792 -1.9907
 5126TIP3   OH236792   2.971   2.688  11.235 -0.0820 -0.4437 -0.1561
 5126TIP3    H136793   2.940   2.603  11.205 -1.2139 -0.5813  1.2419
 5126TIP3    H236794   3.048   2.706  11.182  0.4122 -2.5077 -0.2319
 5127TIP3   OH236795   3.112   2.247  16.919  0.8156  0.4248  0.5385
 5127TIP3    H136796   3.044   2.306  16.887  1.7014  1.7792  1.0624
 5127TIP3    H236797   3.190   2.272  16.871  1.3757  0.1718  1.2910
 5128TIP3   OH236798   0.614   5.583  11.860 -0.4590 -0.4855 -0.0752
 5128TIP3    H136799   0.566   5.504  11.835 -2.1963  0.7971 -1.0458
 5128TIP3    H236800   0.575   5.609  11.943 -0.2101 -0.3850  0.0106
 5129TIP3   OH236801   3.049   3.345   3.282  0.2740 -0.1343 -0.3258
 5129TIP3    H136802   3.116   3.347   3.214  0.5503  0.7834 -0.0368
 5129TIP3    H236803   2.980   3.403   3.250  0.9267  1.2566  0.6751
 5130TIP3   OH236804   1.764   0.772  11.962  0.5006 -0.1780  0.0332
 5130TIP3    H136805   1.681   0.725  11.957  1.3892 -1.8976  0.6141
 5130TIP3    H236806   1.750   0.837  12.031 -1.3739  1.8599 -2.0851
 5131TIP3   OH236807   4.888   1.189   4.602 -0.4196  0.1091  0.7887
 5131TIP3    H136808   4.900   1.099   4.632  2.0955 -0.0550 -0.5048
 5131TIP3    H236809   4.868   1.181   4.509  0.4427  0.8780  0.5249
 5132TIP3   OH236810   2.022   2.075  10.957  0.0714  0.2941  0.0881
 5132TIP3    H136811   1.983   2.143  10.901  1.7129  1.1650 -0.0747
 5132TIP3    H236812   2.039   2.002  10.898 -0.1735  0.3719 -0.0819
 5133TIP3   OH236813   3.824   5.860   0.860  0.2052 -0.5673 -0.2754
 5133TIP3    H136814   3.806   5.832   0.950 -1.5602  0.0120 -0.4150
 5133TIP3    H236815   3.919   5.871   0.857  0.3646 -1.2643  1.3166
 5134TIP3   OH236816   2.656   3.149  12.223  0.2373  0.9627 -0.1950
 5134TIP3    H136817   2.648   3.063  12.183 -2.8690  0.6605  0.8174
 5134TIP3    H236818   2.622   3.210  12.158  1.5205  1.3662 -0.5280
 5135TIP3   OH236819   2.160   2.765  12.438 -0.8490 -0.1360  0.7614
 5135TIP3    H136820   2.237   2.809  12.404 -0.5965 -1.0393  0.1265
 5135TIP3    H236821   2.106   2.835  12.474 -0.9510  0.8235 -1.1399
 5136TIP3   OH236822   6.728   4.777   1.379  0.0924  0.0001 -0.2827
 5136TIP3    H136823   6.798   4.840   1.396 -0.5052  0.3744  0.9347
 5136TIP3    H236824   6.763   4.694   1.411  0.1132  0.1227  0.0188
 5137TIP3   OH236825   5.965   0.045   3.228 -0.1813  0.4410 -0.2543
 5137TIP3    H136826   6.041   0.090   3.265  0.3518 -0.8062  0.2573
 5137TIP3    H236827   5.993  -0.047   3.223 -1.4589  0.0547 -0.6137
 5138TIP3   OH236828   4.621   4.882   3.273  0.0627  0.4843 -0.3686
 5138TIP3    H136829   4.639   4.887   3.367 -0.1412 -1.3638 -0.1906
 5138TIP3    H236830   4.585   4.968   3.251  2.5538  1.9061  0.6544
 5139TIP3   OH236831   4.493   2.005  13.185  0.0687 -0.3305 -1.1519
 5139TIP3    H136832   4.442   1.998  13.266  0.2168 -2.6877 -1.1814
 5139TIP3    H236833   4.428   2.007  13.115 -0.0800  2.2668 -1.0245
 5140TIP3   OH236834   0.507   6.148   0.192 -0.4200 -0.2418  0.4880
 5140TIP3    H136835   0.438   6.150   0.126 -1.2418 -0.7802  1.2966
 5140TIP3    H236836   0.494   6.064   0.237  0.2663  0.0075  1.1690
 5141TIP3   OH236837   1.799   3.845   5.295  0.3356 -0.0395  0.3305
 5141TIP3    H136838   1.731   3.802   5.244 -0.6012  2.7522 -0.9949
 5141TIP3    H236839   1.880   3.800   5.270 -0.3665 -0.0513 -2.1780
 5142TIP3   OH236840   1.421   5.384  16.163 -0.4160 -0.5898 -0.4668
 5142TIP3    H136841   1.414   5.395  16.068  0.1483  0.9099 -0.3630
 5142TIP3    H236842   1.413   5.472  16.198  1.5785 -0.8217  0.7293
 5143TIP3   OH236843   1.775   2.377   0.330  0.4124 -0.1466 -0.5210
 5143TIP3    H136844   1.822   2.331   0.261  0.7267 -2.6863  1.2390
 5143TIP3    H236845   1.831   2.367   0.408 -1.7565 -0.9605  1.0205
 5144TIP3   OH236846   5.989   2.176   3.947  0.1255  0.3909  0.0800
 5144TIP3    H136847   5.907   2.154   3.992  0.8326  0.9767  1.7334
 5144TIP3    H236848   6.001   2.269   3.963  0.6377  0.5235 -0.9899
 5145TIP3   OH236849   6.263   3.833   1.576 -0.1118 -0.6834  0.2714
 5145TIP3    H136850   6.354   3.809   1.559  0.0676 -1.0272  1.6045
 5145TIP3    H236851   6.268   3.914   1.626 -0.5588 -0.5169  0.0547
 5146TIP3   OH236852   4.059   1.994  16.413 -0.0420  0.4418  0.1057
 5146TIP3    H136853   4.107   1.911  16.419  0.2381  0.5820 -0.1852
 5146TIP3    H236854   4.120   2.060  16.448  0.0767  0.6560 -0.4882
 5147TIP3   OH236855   1.037   4.823  14.151  0.7087  0.1660  0.0164
 5147TIP3    H136856   1.016   4.887  14.083  0.4988 -0.1012 -0.1753
 5147TIP3    H236857   0.965   4.760  14.147  1.3427 -0.5581 -0.3885
 5148TIP3   OH236858   6.740   1.499   4.533  0.7675  0.2861  0.3991
 5148TIP3    H136859   6.728   1.587   4.496  0.0532  0.2047  0.4206
 5148TIP3    H236860   6.689   1.442   4.475 -0.9567  0.2405  1.8725
 5149TIP3   OH236861   0.204   5.750   4.410  0.0826 -0.2897  0.6210
 5149TIP3    H136862   0.199   5.681   4.343 -1.3473  0.8078 -0.4610
 5149TIP3    H236863   0.282   5.800   4.387  2.3677 -2.6173  2.6063
 5150TIP3   OH236864   6.071   6.731   1.482 -0.1228  0.6203  0.1503
 5150TIP3    H136865   6.017   6.744   1.560 -0.6013 -2.2957  0.4072
 5150TIP3    H236866   6.160   6.750   1.511 -0.6307  2.6433  0.5069
 5151TIP3   OH236867   3.782   5.898  16.208 -0.1608  0.0734 -0.4950
 5151TIP3    H136868   3.805   5.915  16.300  0.6849  0.2085 -0.7248
 5151TIP3    H236869   3.796   5.982  16.164  0.5262 -0.2740 -0.9545
 5152TIP3   OH236870   6.223   1.218   5.952  0.3939  0.3219  0.8276
 5152TIP3    H136871   6.228   1.312   5.933 -0.2730  0.3884  0.9526
 5152TIP3    H236872   6.304   1.199   6.000  2.1483  0.1467 -1.9709
 5153TIP3   OH236873   2.161   5.893  11.944  0.0763  0.2894 -0.1632
 5153TIP3    H136874   2.200   5.814  11.981  0.1720  0.9022  1.0867
 5153TIP3    H236875   2.084   5.910  11.999 -0.8886  0.1722 -1.4180
 5154TIP3   OH236876   5.523   3.422  15.304  0.3473 -0.4804  0.7294
 5154TIP3    H136877   5.567   3.361  15.244  0.9291 -1.1965  1.8515
 5154TIP3    H236878   5.526   3.506  15.259  2.8875 -0.4915  0.7638
 5155TIP3   OH236879   0.776   5.060   1.943  0.1427  0.0123  0.6752
 5155TIP3    H136880   0.737   4.977   1.970  1.1427 -1.0085 -0.8858
 5155TIP3    H236881   0.832   5.038   1.869 -1.2015  2.4127 -1.1971
 5156TIP3   OH236882   5.787   4.671   1.914 -0.0561 -0.0296  0.4223
 5156TIP3    H136883   5.814   4.659   2.005  0.9746  1.5156  0.3558
 5156TIP3    H236884   5.717   4.736   1.918 -0.7916 -0.7872  0.1897
 5157TIP3   OH236885   5.776   3.608  15.471 -0.6194 -0.3913  0.0833
 5157TIP3    H136886   5.791   3.701  15.490  2.4345 -0.7920  0.1392
 5157TIP3    H236887   5.684   3.593  15.495 -0.8083  2.2867  1.3825
 5158TIP3   OH236888   2.910   5.830  11.072  0.0159 -0.2274  0.2383
 5158TIP3    H136889   2.999   5.835  11.036  0.3873 -1.1538  0.9827
 5158TIP3    H236890   2.870   5.913  11.047  0.4428 -0.5653 -1.7690
 5159TIP3   OH236891   0.701   0.533   1.065  0.1206 -0.1304  0.1646
 5159TIP3    H136892   0.691   0.446   1.105 -3.5502 -0.1982 -0.5040
 5159TIP3    H236893   0.650   0.527   0.984  3.5922  1.3546 -2.3709
 5160TIP3   OH236894   6.270   5.159  14.885  0.0167 -0.7097 -0.3099
 5160TIP3    H136895   6.251   5.081  14.833  0.5801 -1.6909  0.8968
 5160TIP3    H236896   6.203   5.159  14.954  0.3013 -0.4052 -0.0264
 5161TIP3   OH236897   0.419   2.292   2.400 -0.6828  0.3385  0.1779
 5161TIP3    H136898   0.472   2.365   2.369  0.3267 -0.9258 -1.2015
 5161TIP3    H236899   0.335   2.331   2.424 -0.5360  1.7984 -1.5304
 5162TIP3   OH236900   0.541   3.089  10.772 -0.1055 -0.0314 -0.2953
 5162TIP3    H136901   0.495   3.022  10.822  1.4515  0.0052  1.2510
 5162TIP3    H236902   0.585   3.041  10.702  0.4539 -0.5427  0.4002
 5163TIP3   OH236903   6.010   6.366  12.511  0.2403 -0.1893 -0.4851
 5163TIP3    H136904   6.030   6.445  12.459 -1.3365  1.2863  1.0265
 5163TIP3    H236905   5.977   6.303  12.446 -1.1922  1.4140 -1.4182
 5164TIP3   OH236906   3.438   6.453  10.699  0.6778 -0.4322 -0.5197
 5164TIP3    H136907   3.488   6.522  10.656  0.6144  0.9346  1.4856
 5164TIP3    H236908   3.348   6.484  10.697  0.8894  0.5901  2.1140
 5165TIP3   OH236909   6.057   4.273  14.442 -0.7793 -0.6118  0.4878
 5165TIP3    H136910   6.060   4.291  14.536 -1.4153 -1.4815  0.6852
 5165TIP3    H236911   6.059   4.177  14.435  1.7874 -0.5841 -0.4923
 5166TIP3   OH236912   0.882   2.473  10.973 -0.0902  0.5644 -0.1240
 5166TIP3    H136913   0.879   2.378  10.977  0.8908  0.5371  3.3888
 5166TIP3    H236914   0.795   2.501  11.003  0.6630  0.6301  2.2463
 5167TIP3   OH236915   0.509   2.560   1.374  0.0446  0.1472  0.1775
 5167TIP3    H136916   0.558   2.538   1.454 -0.8447  0.5401  0.8441
 5167TIP3    H236917   0.430   2.507   1.379 -0.9163  1.5623  0.5263
 5168TIP3   OH236918   4.127   4.021  13.537 -0.0547  0.5316  0.0096
 5168TIP3    H136919   4.049   3.989  13.491 -0.2341  1.3373 -0.2471
 5168TIP3    H236920   4.112   3.997  13.628  1.3683 -3.2812 -0.5452
 5169TIP3   OH236921   3.138   1.854  13.375 -0.5288 -0.7156 -0.4333
 5169TIP3    H136922   3.228   1.861  13.344 -1.3568  1.1641 -2.7536
 5169TIP3    H236923   3.146   1.842  13.470  2.1389  0.6595 -0.3886
 5170TIP3   OH236924   4.944   5.019  16.059  0.1729 -0.2736 -0.0002
 5170TIP3    H136925   4.964   4.928  16.084  1.2357 -0.5260 -1.6259
 5170TIP3    H236926   4.983   5.072  16.128  2.4167 -0.9588 -0.6582
 5171TIP3   OH236927   5.093   1.410  16.981  0.5997 -0.0162  0.5674
 5171TIP3    H136928   5.082   1.384  16.890 -0.1869 -2.0270  1.1779
 5171TIP3    H236929   5.034   1.484  16.993  0.2745 -0.1065 -0.4152
 5172TIP3   OH236930   0.131   4.293  11.765  0.1551 -0.6064 -1.3893
 5172TIP3    H136931   0.063   4.251  11.818 -0.5454 -1.3207 -2.7792
 5172TIP3    H236932   0.197   4.225  11.752  1.6088  0.3340  0.6519
 5173TIP3   OH236933   1.511   0.058   2.588  0.3443 -0.3254 -0.3148
 5173TIP3    H136934   1.571   0.128   2.613 -0.4262  0.9310 -1.7972
 5173TIP3    H236935   1.445   0.057   2.658  0.6978 -0.0173  0.0277
 5174TIP3   OH236936   3.582   4.215  15.941 -0.0574  0.1038  0.3428
 5174TIP3    H136937   3.488   4.198  15.943 -0.1713  0.1244 -1.9635
 5174TIP3    H236938   3.622   4.131  15.917  0.1862  0.7488 -1.7434
 5175TIP3   OH236939   5.626   5.019  15.781  0.4225  0.5326  0.1984
 5175TIP3    H136940   5.533   4.994  15.780  0.4088  0.5839  0.0720
 5175TIP3    H236941   5.657   4.992  15.867 -0.1214  1.9931  0.8951
 5176TIP3   OH236942   1.471   5.836  16.615 -0.3452 -0.3781  0.1014
 5176TIP3    H136943   1.519   5.816  16.535 -0.0773  0.8007 -0.0554
 5176TIP3    H236944   1.462   5.752  16.660 -0.0274 -0.9625 -0.9028
 5177TIP3   OH236945   0.053   4.169  15.528 -0.5327  0.1380 -0.1718
 5177TIP3    H136946   0.030   4.076  15.533 -0.6489  0.2226  1.4536
 5177TIP3    H236947   0.133   4.171  15.476 -1.2179 -0.7198 -1.3116
 5178TIP3   OH236948   5.844   1.638  14.309 -0.0008 -0.1604  0.4639
 5178TIP3    H136949   5.866   1.686  14.229 -0.1136  1.0647  1.1481
 5178TIP3    H236950   5.897   1.558  14.305  1.0255  0.5423 -0.1739
 5179TIP3   OH236951   0.104   5.805  17.192  0.2261  0.0259  0.4673
 5179TIP3    H136952   0.137   5.802  17.102 -1.3970 -3.1482 -0.1468
 5179TIP3    H236953   0.174   5.766  17.245 -0.1242 -1.1794  0.0584
 5180TIP3   OH236954   0.357   5.049  15.004  0.3515 -0.0843  0.6683
 5180TIP3    H136955   0.375   5.090  14.919 -1.3250  0.4731  0.5343
 5180TIP3    H236956   0.326   5.122  15.059 -0.5218 -0.7764  1.1179
 5181TIP3   OH236957   3.604   0.763  15.639 -0.5181  0.1899  0.8576
 5181TIP3    H136958   3.555   0.685  15.611 -0.2029  0.3057 -0.0528
 5181TIP3    H236959   3.655   0.733  15.715 -0.5639 -0.4411  0.6500
 5182TIP3   OH236960   6.176   0.427  15.801 -0.0524  0.0958 -0.6785
 5182TIP3    H136961   6.088   0.394  15.782 -0.1143  0.2099 -0.5886
 5182TIP3    H236962   6.233   0.351  15.790 -0.1654  0.0165 -0.7137
 5183TIP3   OH236963   6.377   4.129  11.663  0.1645 -0.6598 -0.0950
 5183TIP3    H136964   6.294   4.081  11.654  0.0767 -0.5084 -0.0955
 5183TIP3    H236965   6.413   4.098  11.747 -1.0801  1.0547  1.1488
 5184TIP3   OH236966   0.545   4.692  12.905  0.2134  0.0544 -0.0909
 5184TIP3    H136967   0.641   4.695  12.911  0.1625  1.2145  0.2934
 5184TIP3    H236968   0.525   4.598  12.903  1.3729 -0.2095 -0.5569
 5185TIP3   OH236969   4.379   0.839   2.252  0.6072 -0.3722  0.4927
 5185TIP3    H136970   4.473   0.829   2.242  0.4580 -1.2588 -0.1553
 5185TIP3    H236971   4.357   0.788   2.330  0.3627 -2.2591 -0.7242
 5186TIP3   OH236972   1.936   2.014  15.722  0.3577 -0.2943 -0.4278
 5186TIP3    H136973   2.017   2.065  15.728  0.1357  0.0384 -0.1688
 5186TIP3    H236974   1.878   2.068  15.667 -0.4148  0.4823  1.0760
 5187TIP3   OH236975   0.497   1.845   3.513  1.2394 -0.1337  0.4345
 5187TIP3    H136976   0.411   1.853   3.554  0.7120  0.5616 -0.7482
 5187TIP3    H236977   0.520   1.753   3.522 -0.8518 -0.9521 -1.5374
 5188TIP3   OH236978   4.944   5.904  13.242  0.3174 -0.1362 -0.3617
 5188TIP3    H136979   4.924   5.846  13.169 -1.1372 -0.9255  0.6111
 5188TIP3    H236980   4.864   5.955  13.254  0.9419  0.7960 -0.0356
 5189TIP3   OH236981   6.418   3.988  14.641  0.0493 -0.1943 -0.1456
 5189TIP3    H136982   6.425   4.029  14.555  1.0043 -1.0891 -0.5260
 5189TIP3    H236983   6.375   3.904  14.624 -2.0357  0.6689  0.6409
 5190TIP3   OH236984   2.135   3.873   2.565 -0.1120 -0.0900 -0.0742
 5190TIP3    H136985   2.228   3.867   2.586 -0.5349  0.8690  2.3457
 5190TIP3    H236986   2.131   3.938   2.494  1.2618 -2.5167 -2.5703
 5191TIP3   OH236987   1.321   6.556  11.223 -0.2237 -0.4349 -0.4307
 5191TIP3    H136988   1.353   6.642  11.196 -0.6770 -0.3595 -0.7366
 5191TIP3    H236989   1.395   6.497  11.210  0.0217 -0.1254 -0.4240
 5192TIP3   OH236990   0.264   5.442   2.392 -0.2153  0.2909  0.2822
 5192TIP3    H136991   0.243   5.349   2.393  1.0041  0.0017  0.9218
 5192TIP3    H236992   0.257   5.469   2.483  0.2354  0.6307  0.2210
 5193TIP3   OH236993   6.077   2.209  16.690  0.1070  0.3430  0.1285
 5193TIP3    H136994   6.113   2.120  16.687  0.7113  0.5642 -2.8504
 5193TIP3    H236995   6.115   2.249  16.768  1.6233 -1.3111  0.2943
 5194TIP3   OH236996   5.945   4.338  12.350 -0.0777 -0.2894  0.1591
 5194TIP3    H136997   5.936   4.336  12.445 -2.1375  0.7972  0.0418
 5194TIP3    H236998   5.952   4.246  12.325 -0.6483 -0.6636  1.2933
 5195TIP3   OH236999   0.262   4.146  16.336  0.2162 -0.1245  0.8098
 5195TIP3    H137000   0.311   4.215  16.292 -1.7244  1.9047  1.6619
 5195TIP3    H237001   0.302   4.065  16.304  1.2947  1.2962 -1.7730
 5196TIP3   OH237002   3.313   1.370  16.572 -0.3275  0.3644 -0.0063
 5196TIP3    H137003   3.349   1.349  16.658 -3.8619  0.6221  1.6912
 5196TIP3    H237004   3.341   1.460  16.555 -2.0436  1.4582  2.4204
 5197TIP3   OH237005   1.673   2.340   3.901 -0.7636  0.3086  0.3515
 5197TIP3    H137006   1.586   2.300   3.903 -1.0529  0.8087 -0.9254
 5197TIP3    H237007   1.657   2.432   3.878  0.2151 -0.2052 -2.8961
 5198TIP3   OH237008   4.454   1.888  11.885 -0.0066 -0.1527  0.3412
 5198TIP3    H137009   4.405   1.966  11.910 -1.9867 -1.0403 -0.5807
 5198TIP3    H237010   4.426   1.820  11.946  1.6338 -0.2067  1.0854
 5199TIP3   OH237011   4.803   1.213   4.946 -0.1240  0.6510 -0.2719
 5199TIP3    H137012   4.785   1.186   4.856 -0.1263  1.1530 -0.4248
 5199TIP3    H237013   4.790   1.308   4.946  1.4174  0.8901 -0.1142
 5200TIP3   OH237014   3.936   4.771  13.562 -0.2785 -0.3443 -0.2028
 5200TIP3    H137015   4.026   4.748  13.542 -0.6560 -0.7245 -1.5990
 5200TIP3    H237016   3.942   4.835  13.633  0.9999 -1.5029  0.7871
 5201TIP3   OH237017   3.169   1.194  16.414 -0.2513  0.5398  0.2507
 5201TIP3    H137018   3.189   1.116  16.464 -0.6491  0.1218 -0.2283
 5201TIP3    H237019   3.217   1.264  16.458  1.2583 -0.2069 -0.1512
 5202TIP3   OH237020   2.014   1.121  13.031  0.2662  0.2981  0.1385
 5202TIP3    H137021   1.994   1.209  12.999  1.0682  0.9331  1.2973
 5202TIP3    H237022   1.939   1.068  13.004 -1.9545  2.0825  2.2677
 5203TIP3   OH237023   4.219   4.868   2.327 -0.1770 -0.3084 -0.1959
 5203TIP3    H137024   4.227   4.937   2.261  2.1310 -0.2862  0.0166
 5203TIP3    H237025   4.205   4.788   2.277 -1.0554  0.0513 -0.5459
 5204TIP3   OH237026   5.302   6.524  13.029 -0.0148  0.4187  0.2355
 5204TIP3    H137027   5.373   6.588  13.030  0.0571  0.3381  0.3096
 5204TIP3    H237028   5.345   6.441  13.009 -0.3596  0.6958 -1.9170
 5205TIP3   OH237029   6.359   4.497   5.160  0.1581 -0.2879  0.7109
 5205TIP3    H137030   6.381   4.587   5.139  0.7791  0.0989  2.8737
 5205TIP3    H237031   6.403   4.445   5.092  1.1338  0.9372  0.3817
 5206TIP3   OH237032   5.340   4.265   5.653  0.2329 -0.4361  0.2660
 5206TIP3    H137033   5.376   4.293   5.569 -0.1726 -1.2615 -0.1962
 5206TIP3    H237034   5.400   4.197   5.683 -1.1184 -2.1445 -0.7280
 5207TIP3   OH237035   0.322   0.804   2.534  0.3030  0.3485  0.0348
 5207TIP3    H137036   0.399   0.754   2.561  0.0387  0.2636  0.6622
 5207TIP3    H237037   0.287   0.756   2.459  1.2887  0.8129 -0.7515
 5208TIP3   OH237038   2.354   1.834   4.873 -0.1729  0.0211  0.2884
 5208TIP3    H137039   2.340   1.921   4.912  3.8096  0.4666  1.2027
 5208TIP3    H237040   2.422   1.794   4.928  0.9360 -2.0668 -2.3717
 5209TIP3   OH237041   5.376   1.876   1.833  0.3206  0.0062 -0.1582
 5209TIP3    H137042   5.331   1.882   1.917 -0.8124 -1.7373 -0.6005
 5209TIP3    H237043   5.446   1.812   1.848 -0.4843 -1.0429 -0.7651
 5210TIP3   OH237044   2.038   5.458  14.915  0.7907  0.1401  0.0575
 5210TIP3    H137045   1.979   5.487  14.984  0.8011  0.5661 -0.1070
 5210TIP3    H237046   2.068   5.372  14.943 -0.7523 -0.5812 -0.3705
 5211TIP3   OH237047   1.046   1.594   4.224  0.0562 -0.1143  0.3003
 5211TIP3    H137048   1.136   1.618   4.246  0.2859  0.6581 -1.3530
 5211TIP3    H237049   0.993   1.644   4.286  0.6847  1.7432 -0.5825
 5212TIP3   OH237050   6.533   4.414   3.522  0.5377  0.2903  0.0579
 5212TIP3    H137051   6.501   4.363   3.597  0.3814 -2.1130 -1.5525
 5212TIP3    H237052   6.627   4.421   3.536  0.7619 -1.5710 -0.2655
 5213TIP3   OH237053   2.234   2.693  11.682  0.3467  0.2264 -0.0948
 5213TIP3    H137054   2.241   2.744  11.602 -0.6543 -0.0495 -0.3810
 5213TIP3    H237055   2.242   2.602  11.654  0.5150  0.1496  0.1908
 5214TIP3   OH237056   2.954   4.762  16.738 -0.3779  0.1635 -0.2713
 5214TIP3    H137057   2.873   4.784  16.783  0.2614  3.0074 -0.3000
 5214TIP3    H237058   3.018   4.751  16.808 -0.0307  1.6534 -0.3140
 5215TIP3   OH237059   4.196   1.217   6.003 -0.3357  0.0031 -0.8018
 5215TIP3    H137060   4.226   1.301   5.968  0.7532 -0.0555 -0.0381
 5215TIP3    H237061   4.255   1.199   6.076 -1.8021 -0.4643  0.3081
 5216TIP3   OH237062   5.904   4.405  11.239  0.9558 -0.1789  0.2743
 5216TIP3    H137063   5.879   4.404  11.331  0.9482  0.3684  0.2793
 5216TIP3    H237064   5.882   4.317  11.208 -2.1151  0.5438  0.0019
 5217TIP3   OH237065   2.077   4.302  14.683 -0.4398 -0.1668 -0.2463
 5217TIP3    H137066   2.163   4.310  14.642 -0.3424  1.0181  0.1579
 5217TIP3    H237067   2.075   4.212  14.716  0.3763 -0.4178 -0.8346
 5218TIP3   OH237068   5.457   4.396  12.983 -0.1985  0.0848 -0.1497
 5218TIP3    H137069   5.542   4.359  13.005  0.3347  0.4942 -1.4542
 5218TIP3    H237070   5.471   4.442  12.900 -1.9093 -0.6958 -0.9275
 5219TIP3   OH237071   4.520   4.977  15.584 -0.5682 -0.4100 -0.0206
 5219TIP3    H137072   4.479   4.906  15.633  0.1786 -0.2562  0.8486
 5219TIP3    H237073   4.599   4.997  15.633 -0.0347  0.0630 -1.0418
 5220TIP3   OH237074   4.842   3.448  15.123  0.1396 -0.0210 -0.2851
 5220TIP3    H137075   4.820   3.363  15.085 -2.1027 -0.3911  1.6017
 5220TIP3    H237076   4.785   3.510  15.078 -0.3171 -0.0042  0.2917
 5221TIP3   OH237077   2.924   3.047  13.336  0.2315 -0.1516  0.2956
 5221TIP3    H137078   2.833   3.018  13.336 -0.4406  1.7291 -1.2146
 5221TIP3    H237079   2.961   3.014  13.254 -0.7082  3.2970 -1.7444
 5222TIP3   OH237080   4.006   2.617  13.298 -0.2625  0.4474  0.5359
 5222TIP3    H137081   4.013   2.526  13.270 -0.2692  0.0265  1.8496
 5222TIP3    H237082   3.925   2.648  13.258 -0.1578 -0.0504 -0.0880
 5223TIP3   OH237083   6.260   5.568   4.989 -0.0814 -0.0202  0.1339
 5223TIP3    H137084   6.282   5.590   4.899 -0.4549 -0.3503 -0.0408
 5223TIP3    H237085   6.239   5.652   5.029 -0.5245  0.0612 -0.2601
 5224TIP3   OH237086   1.058   5.898   3.251 -0.4340 -0.0677 -0.1314
 5224TIP3    H137087   1.060   5.992   3.237 -1.6528 -0.3012 -2.1686
 5224TIP3    H237088   0.965   5.874   3.244 -0.0334 -1.5564 -0.8119
 5225TIP3   OH237089   3.919   5.916   4.560  0.3269 -0.0539  0.0670
 5225TIP3    H137090   3.925   5.829   4.598  3.3068  0.0745  0.1402
 5225TIP3    H237091   3.853   5.961   4.612 -1.4237 -2.2721 -0.1118
 5226TIP3   OH237092   5.443   1.111  14.097  0.0846  0.5658 -0.8907
 5226TIP3    H137093   5.348   1.103  14.100  0.0119  1.5352 -0.0531
 5226TIP3    H237094   5.469   1.060  14.021 -0.9949 -0.7096 -0.4314
 5227TIP3   OH237095   5.997   0.025   0.103  0.4635 -0.3984 -0.1670
 5227TIP3    H137096   5.918   0.078   0.089  1.0891  0.5710 -0.0851
 5227TIP3    H237097   5.964  -0.065   0.110 -0.5691 -0.0905 -0.7997
 5228TIP3   OH237098   4.389   2.385   0.638 -0.1656 -0.4454  0.0116
 5228TIP3    H137099   4.471   2.430   0.656  0.3649 -0.6521 -1.6793
 5228TIP3    H237100   4.355   2.427   0.559 -1.3160 -0.8668  0.2590
 5229TIP3   OH237101   1.166   3.040   4.636  0.3809 -0.1427 -0.2760
 5229TIP3    H137102   1.167   3.064   4.543  0.6250 -0.4035 -0.3407
 5229TIP3    H237103   1.082   2.998   4.649  0.4422 -0.3145 -0.4321
 5230TIP3   OH237104   6.482   4.740   1.248 -0.0855  0.9458  0.1303
 5230TIP3    H137105   6.568   4.769   1.280  0.8861 -0.4654 -1.0644
 5230TIP3    H237106   6.457   4.669   1.308 -0.7412  1.7604  0.8498
 5231TIP3   OH237107   1.160   4.589   4.580  0.7137  0.5974  0.0062
 5231TIP3    H137108   1.112   4.636   4.648  0.0491  1.6306 -1.1503
 5231TIP3    H237109   1.099   4.585   4.506  1.2842 -0.8295 -0.4241
 5232TIP3   OH237110   1.102   2.212  12.669 -0.0972  0.2381 -0.5289
 5232TIP3    H137111   1.087   2.141  12.608 -1.2539 -0.1561  0.1850
 5232TIP3    H237112   1.182   2.187  12.716  0.4783  0.2727 -1.4542
 5233TIP3   OH237113   3.873   4.257   5.304 -0.2735  0.3698 -0.4612
 5233TIP3    H137114   3.817   4.324   5.343 -3.4786 -1.0106 -2.3720
 5233TIP3    H237115   3.832   4.174   5.328  0.0719 -0.6625 -3.1343
 5234TIP3   OH237116   5.653   5.720   5.576  0.4524  0.2796  0.2845
 5234TIP3    H137117   5.677   5.707   5.484  0.6938  0.2698  0.3478
 5234TIP3    H237118   5.716   5.667   5.625  0.0479 -0.0680  0.4373
 5235TIP3   OH237119   3.465   6.499   1.546 -0.0473  0.3353  0.1454
 5235TIP3    H137120   3.446   6.462   1.632 -2.2660 -0.1184 -0.4651
 5235TIP3    H237121   3.453   6.425   1.485  1.6369  0.6036 -0.5761
 5236TIP3   OH237122   2.670   4.886   0.576  0.6781 -0.0929  0.0265
 5236TIP3    H137123   2.745   4.859   0.629 -0.0177 -0.4467  0.8688
 5236TIP3    H237124   2.594   4.852   0.624 -0.0270  0.3847 -0.7263
 5237TIP3   OH237125   4.444   4.967  12.059  0.0592  0.2494  0.0720
 5237TIP3    H137126   4.359   5.002  12.085 -0.9371 -1.1751 -1.1039
 5237TIP3    H237127   4.461   4.897  12.121 -0.6859 -0.8823 -0.9559
 5238TIP3   OH237128   0.483   4.791  14.218  0.7173 -0.0201  0.0231
 5238TIP3    H137129   0.537   4.721  14.255 -0.5908 -1.1063 -0.0783
 5238TIP3    H237130   0.485   4.774  14.123  0.6636  0.2760 -0.0309
 5239TIP3   OH237131   1.473   0.915   0.986 -0.1788  0.4310  0.2212
 5239TIP3    H137132   1.535   0.985   0.965  0.7288 -0.8067 -1.4638
 5239TIP3    H237133   1.419   0.906   0.907 -0.7467 -0.3075  0.6730
 5240TIP3   OH237134   6.603   1.615  11.771 -0.0155  0.5249  0.1554
 5240TIP3    H137135   6.681   1.595  11.822  0.4512 -0.3352 -0.8547
 5240TIP3    H237136   6.570   1.529  11.742  0.4825  1.0087 -2.0481
 5241TIP3   OH237137   1.589   4.506  16.839  0.5056 -0.1511 -0.1391
 5241TIP3    H137138   1.572   4.468  16.753 -0.2383  0.2539 -0.1806
 5241TIP3    H237139   1.623   4.593  16.820  1.4657 -0.5012 -0.0353
 5242TIP3   OH237140   4.084   0.281  15.868 -0.1017 -0.4373  0.4088
 5242TIP3    H137141   4.153   0.217  15.884  0.5371 -0.0194 -0.6103
 5242TIP3    H237142   4.049   0.258  15.782 -1.1576 -0.5697  0.8635
 5243TIP3   OH237143   3.516   6.478   0.366  0.3607 -0.3562  0.4340
 5243TIP3    H137144   3.499   6.567   0.333  2.8422 -0.3597 -1.1723
 5243TIP3    H237145   3.493   6.421   0.292  0.5760 -0.8713  0.7636
 5244TIP3   OH237146   5.403   0.505  12.836  0.6002  0.2527  0.1128
 5244TIP3    H137147   5.333   0.568  12.849  0.1339 -0.1515 -0.4006
 5244TIP3    H237148   5.432   0.482  12.924 -0.4900 -0.2197  0.3596
 5245TIP3   OH237149   4.736   3.665  14.086  0.3721 -0.1281 -0.7997
 5245TIP3    H137150   4.698   3.682  14.000 -1.1822 -0.0757 -0.1327
 5245TIP3    H237151   4.683   3.594  14.122 -0.4687  1.3246  0.9968
 5246TIP3   OH237152   5.104   3.535   1.642 -0.1184 -0.2983 -0.6073
 5246TIP3    H137153   5.070   3.543   1.731  3.0528  0.3992  0.6655
 5246TIP3    H237154   5.157   3.455   1.644  2.5073  1.3239 -0.8506
 5247TIP3   OH237155   4.929   1.104   3.051 -0.1761  0.0350 -0.0638
 5247TIP3    H137156   4.907   1.130   2.961 -0.5727  2.8511  0.7466
 5247TIP3    H237157   5.024   1.114   3.056 -0.1789  0.0807 -0.1009
 5248TIP3   OH237158   5.499   0.141   2.114  0.1696 -0.1995 -0.0074
 5248TIP3    H137159   5.567   0.102   2.169  2.5211 -0.7907 -3.0385
 5248TIP3    H237160   5.520   0.110   2.026 -3.3099  0.7235 -1.3133
 5249TIP3   OH237161   5.095   6.618   4.907  0.2385 -0.3382  0.0796
 5249TIP3    H137162   5.184   6.631   4.941 -0.0965 -0.5122  1.0761
 5249TIP3    H237163   5.099   6.536   4.859  0.4559 -0.7309  0.7538
 5250TIP3   OH237164   4.542   2.763  11.586  0.1966  0.5930 -0.9095
 5250TIP3    H137165   4.561   2.761  11.492  1.3736  2.1918 -0.7485
 5250TIP3    H237166   4.450   2.789  11.592  0.3457  1.3314 -1.6214
 5251TIP3   OH237167   1.411   1.892  11.554  0.4125 -0.5424  0.0263
 5251TIP3    H137168   1.451   1.813  11.518 -1.4309 -1.2753 -0.5312
 5251TIP3    H237169   1.434   1.961  11.492  2.8011 -0.3731  0.9785
 5252TIP3   OH237170   4.651   2.389   5.313 -0.3666 -0.1668  0.3452
 5252TIP3    H137171   4.606   2.458   5.265 -0.2883 -1.5907 -1.9335
 5252TIP3    H237172   4.616   2.395   5.402 -0.3014  2.7919  0.2567
 5253TIP3   OH237173   2.338   1.647   4.210 -0.1920  0.0945  0.5249
 5253TIP3    H137174   2.402   1.690   4.154 -0.9616  1.7188  0.8422
 5253TIP3    H237175   2.261   1.703   4.206 -1.9188 -2.2109 -0.4538
 5254TIP3   OH237176   3.591   0.876  12.303  0.1792 -0.1638  0.6505
 5254TIP3    H137177   3.632   0.874  12.389  0.2896 -0.9544  0.5887
 5254TIP3    H237178   3.523   0.942  12.310  0.1100 -0.3047  1.3813
 5255TIP3   OH237179   6.453   3.372   2.897  0.3125 -0.1355  0.4277
 5255TIP3    H137180   6.546   3.395   2.905  0.6907 -1.9955  2.1639
 5255TIP3    H237181   6.408   3.442   2.945  0.7730  0.7959 -0.4528
 5256TIP3   OH237182   4.574   1.009   6.217 -0.3805  0.1075  0.3271
 5256TIP3    H137183   4.664   1.031   6.239  1.8572 -2.0626 -4.9976
 5256TIP3    H237184   4.534   1.093   6.193  0.8970  0.8672  0.7489
 5257TIP3   OH237185   6.046   1.072  11.060  0.1910  0.1721  0.1023
 5257TIP3    H137186   6.041   0.997  11.001 -1.4397 -1.3020  1.9617
 5257TIP3    H237187   6.109   1.046  11.127  0.5860  1.0146  0.0690
 5258TIP3   OH237188   5.752   4.574   3.091  0.0557 -0.0565  0.0979
 5258TIP3    H137189   5.721   4.489   3.122 -0.3482 -0.2258 -0.7420
 5258TIP3    H237190   5.848   4.568   3.096  0.0836 -1.0417 -1.1389
 5259TIP3   OH237191   0.899   1.162   6.060 -0.0494 -0.2865 -0.1388
 5259TIP3    H137192   0.979   1.211   6.040 -1.1532  1.3263 -0.8421
 5259TIP3    H237193   0.858   1.213   6.130 -0.7815 -0.7298 -0.2421
 5260TIP3   OH237194   3.950   3.986   0.632  0.0477 -0.1025 -0.0521
 5260TIP3    H137195   3.900   3.991   0.551  1.7680 -1.5932 -1.2906
 5260TIP3    H237196   3.955   3.892   0.651 -0.1477  0.2049  1.6988
 5261TIP3   OH237197   6.614   1.563   2.694  0.1026  0.2148  0.4287
 5261TIP3    H137198   6.626   1.471   2.718 -0.4190  0.2277  0.7689
 5261TIP3    H237199   6.627   1.611   2.776  0.9536  0.5021  0.1343
 5262TIP3   OH237200   2.678   5.940  15.203  0.5115  0.0892  0.3026
 5262TIP3    H137201   2.707   5.853  15.228  1.3743  0.5989  1.1474
 5262TIP3    H237202   2.755   5.995  15.212 -0.2692  1.1451  0.8396
 5263TIP3   OH237203   2.324   2.313   6.223  0.1854  0.0370  0.1031
 5263TIP3    H137204   2.341   2.219   6.217 -0.7210 -0.1838  0.6892
 5263TIP3    H237205   2.339   2.335   6.315  0.9317  0.5850 -0.1412
 5264TIP3   OH237206   6.140   5.809   5.118 -0.6512  0.1539 -0.6150
 5264TIP3    H137207   6.223   5.853   5.136 -0.4309 -0.9859  1.4280
 5264TIP3    H237208   6.107   5.852   5.039  1.1573  1.6307 -0.6364
 5265TIP3   OH237209   4.885   4.065   3.665  0.0255 -0.0579  0.3004
 5265TIP3    H137210   4.922   4.035   3.749  0.0552 -1.1472 -0.0797
 5265TIP3    H237211   4.958   4.061   3.604  0.3399  2.0155  0.4803
 5266TIP3   OH237212   4.455   6.351  14.086  0.6050  0.0482  0.5675
 5266TIP3    H137213   4.528   6.295  14.115  0.5966 -1.0036 -1.2881
 5266TIP3    H237214   4.389   6.342  14.155 -0.1922 -3.8651 -0.4553
 5267TIP3   OH237215   4.591   6.131   5.195  0.3122 -0.0082  0.1273
 5267TIP3    H137216   4.663   6.190   5.173  1.5702 -1.5055 -0.0411
 5267TIP3    H237217   4.570   6.151   5.286  0.4660  0.9300 -0.0369
 5268TIP3   OH237218   6.546   0.460   6.041 -0.6621  0.5765  0.1389
 5268TIP3    H137219   6.455   0.447   6.068 -0.3950  0.7034  1.1364
 5268TIP3    H237220   6.540   0.523   5.969 -1.4162  0.0689 -0.2543
 5269TIP3   OH237221   1.158   6.082  10.981 -0.1454 -0.0285 -0.0970
 5269TIP3    H137222   1.184   6.058  11.069 -1.3618 -0.4720  0.1711
 5269TIP3    H237223   1.063   6.070  10.980 -0.4519  2.0196 -0.8312
 5270TIP3   OH237224   0.931   2.437  14.419  0.5524  0.1251  0.5782
 5270TIP3    H137225   0.882   2.365  14.378 -0.6070  1.0615  0.2500
 5270TIP3    H237226   0.975   2.480  14.345  2.1819 -0.9071  0.9116
 5271TIP3   OH237227   6.280   1.837   2.591  0.4404 -0.1516 -0.4886
 5271TIP3    H137228   6.243   1.914   2.547  0.1454 -0.7233 -1.2823
 5271TIP3    H237229   6.356   1.869   2.639 -0.0218  0.7302 -0.3399
 5272TIP3   OH237230   6.250   3.868   0.904  0.4347  0.6007 -0.1179
 5272TIP3    H137231   6.189   3.817   0.851  2.2941 -1.2775 -0.5792
 5272TIP3    H237232   6.272   3.943   0.848  0.8975 -0.3457 -1.2611
 5273TIP3   OH237233   5.061   1.979  15.842 -0.3703 -0.2736  0.3220
 5273TIP3    H137234   5.001   1.943  15.777 -0.4904  1.4295 -0.5724
 5273TIP3    H237235   5.023   1.955  15.926 -3.0788  1.8247 -0.1714
 5274TIP3   OH237236   5.520   1.731   3.602  0.5655 -0.1731  0.2111
 5274TIP3    H137237   5.483   1.793   3.665 -3.0836 -1.1456 -0.7791
 5274TIP3    H237238   5.597   1.777   3.567  0.8771  1.7072  2.9668
 5275TIP3   OH237239   0.468   1.982  14.462  0.0232 -0.1555  0.1849
 5275TIP3    H137240   0.542   2.019  14.510  0.7908  2.1633 -2.4769
 5275TIP3    H237241   0.498   1.981  14.371 -2.6277 -0.8012 -0.7627
 5276TIP3   OH237242   3.850   2.947  14.475 -0.0978 -0.4877  0.4781
 5276TIP3    H137243   3.789   2.881  14.442 -1.7304  0.0695  2.2124
 5276TIP3    H237244   3.893   2.904  14.549  1.1380 -0.6177 -0.2804
 5277TIP3   OH237245   3.385   4.203  10.980 -0.3591 -0.0064  0.1511
 5277TIP3    H137246   3.380   4.110  10.999 -1.0083 -0.5375 -2.2647
 5277TIP3    H237247   3.458   4.235  11.034  0.2229 -2.0132  0.6181
 5278TIP3   OH237248   2.186   6.206  11.625  0.3886  0.0572  0.4570
 5278TIP3    H137249   2.131   6.284  11.632 -2.5238 -1.9574  2.6770
 5278TIP3    H237250   2.164   6.169  11.540 -1.7579 -0.6580  1.2644
 5279TIP3   OH237251   0.140   5.085  12.312 -0.2866 -0.0546 -0.0936
 5279TIP3    H137252   0.231   5.056  12.320 -0.1758  0.6731  1.6510
 5279TIP3    H237253   0.137   5.171  12.354 -1.6083  0.3487 -0.9283
 5280TIP3   OH237254   5.328   4.229  14.573  0.7200  0.5193 -0.6953
 5280TIP3    H137255   5.341   4.173  14.649  0.3062 -0.9804 -1.6745
 5280TIP3    H237256   5.416   4.256  14.547  1.1102 -1.1081 -1.1984
 5281TIP3   OH237257   4.070   4.716   0.815 -0.2050 -0.0253  0.1536
 5281TIP3    H137258   4.112   4.731   0.731 -1.6067 -2.1149 -1.0127
 5281TIP3    H237259   4.135   4.667   0.866  0.8280  1.6612  0.5312
 5282TIP3   OH237260   5.055   6.607   6.529 -0.0480 -0.4522  0.4743
 5282TIP3    H137261   5.111   6.682   6.549  0.4325 -0.5089 -0.5868
 5282TIP3    H237262   5.067   6.547   6.602 -0.1862  0.3564  1.1789
 5283TIP3   OH237263   2.080   5.366  17.185  0.1061  0.6349  0.2963
 5283TIP3    H137264   2.089   5.364  17.280  2.3728 -0.4257  0.1443
 5283TIP3    H237265   2.116   5.452  17.160  0.9188  0.3121  0.3239
 5284TIP3   OH237266   2.482   4.280  11.647 -0.2434 -0.3713  0.3296
 5284TIP3    H137267   2.398   4.294  11.603  0.3866  0.0037 -0.8181
 5284TIP3    H237268   2.459   4.260  11.738 -1.5091  1.2279  0.4110
 5285TIP3   OH237269   3.589   6.195   0.512  0.3067  0.8749 -0.0952
 5285TIP3    H137270   3.497   6.222   0.523  0.0809 -0.3311  1.1197
 5285TIP3    H237271   3.598   6.116   0.564  1.7183  0.2177 -1.2533
 5286TIP3   OH237272   3.310   6.317  13.440  0.8884  0.4095 -0.5607
 5286TIP3    H137273   3.300   6.258  13.365  1.5427 -0.7650  0.2310
 5286TIP3    H237274   3.342   6.260  13.510 -0.8393  1.2155  0.9695
 5287TIP3   OH237275   4.469   4.899   1.198 -0.2510 -0.0598  0.3054
 5287TIP3    H137276   4.401   4.935   1.255 -0.2011 -0.6174  0.7338
 5287TIP3    H237277   4.423   4.875   1.118 -0.6196 -0.6764  0.6917
 5288TIP3   OH237278   3.958   3.092   4.817 -0.3436  0.5465 -0.0630
 5288TIP3    H137279   3.941   3.014   4.869 -1.1326  0.6775 -0.1029
 5288TIP3    H237280   4.052   3.090   4.799  0.0015  0.6509  1.5815
 5289TIP3   OH237281   4.400   5.857  11.542  0.5974 -0.3729  0.2322
 5289TIP3    H137282   4.407   5.808  11.624  0.5948  1.2816  1.2768
 5289TIP3    H237283   4.451   5.937  11.557 -1.7794  1.3663 -0.2493
 5290TIP3   OH237284   4.532   2.295   5.549 -0.0841  0.3326 -0.0912
 5290TIP3    H137285   4.485   2.312   5.630 -2.3690 -2.9106 -0.5681
 5290TIP3    H237286   4.624   2.289   5.576  0.1610  5.3430  1.1096
 5291TIP3   OH237287   5.098   4.337   2.660 -0.3689 -0.7899 -0.2785
 5291TIP3    H137288   5.178   4.307   2.616 -0.0468 -0.3934  0.0242
 5291TIP3    H237289   5.103   4.297   2.747  0.8132  1.2476  0.6693
 5292TIP3   OH237290   0.077   6.571  14.955 -0.1807 -0.4929  0.2171
 5292TIP3    H137291   0.086   6.565  14.860 -0.5776  0.4164  0.1087
 5292TIP3    H237292   0.009   6.638  14.968 -2.2403 -2.5810  1.0614
 5293TIP3   OH237293   1.714   2.638  13.568 -0.4192 -0.0540 -0.0303
 5293TIP3    H137294   1.764   2.653  13.648 -1.8859 -0.1047  0.9542
 5293TIP3    H237295   1.747   2.555  13.534 -0.0047 -0.2090  0.7251
 5294TIP3   OH237296   1.258   0.138  13.651 -0.0973 -0.7386 -0.7298
 5294TIP3    H137297   1.238   0.110  13.562  1.1756  0.8928 -1.5935
 5294TIP3    H237298   1.256   0.234  13.647 -0.1499 -0.6315  1.0413
 5295TIP3   OH237299   0.837   4.926  15.954  0.6282  0.6465 -0.1259
 5295TIP3    H137300   0.875   5.011  15.929  1.2339  1.1032  2.1072
 5295TIP3    H237301   0.849   4.922  16.049 -2.6648 -0.3649  0.3496
 5296TIP3   OH237302   3.443   1.723   3.602 -0.7140 -0.4038 -0.4646
 5296TIP3    H137303   3.455   1.630   3.618 -0.5470 -0.2298  0.4795
 5296TIP3    H237304   3.348   1.736   3.602 -0.7302 -0.5197 -0.2552
 5297TIP3   OH237305   0.915   0.295  14.216  0.2883 -0.0721 -0.1648
 5297TIP3    H137306   0.888   0.331  14.300  0.1106  0.5999 -0.5040
 5297TIP3    H237307   0.859   0.339  14.151 -1.3512 -2.3948 -0.4524
 5298TIP3   OH237308   0.911   3.833   0.241  0.2570 -0.0713  0.3600
 5298TIP3    H137309   0.836   3.775   0.226 -0.5589  1.1085 -0.3409
 5298TIP3    H237310   0.986   3.785   0.207 -0.2546 -1.0865  0.6347
 5299TIP3   OH237311   3.847   4.276  14.182  0.1665 -0.1245  0.5790
 5299TIP3    H137312   3.913   4.234  14.127 -0.4862  0.3196 -0.5555
 5299TIP3    H237313   3.887   4.277  14.270  1.2229 -0.8141  0.1237
 5300TIP3   OH237314   1.945   3.430   5.739 -0.0569 -1.2740 -0.0052
 5300TIP3    H137315   1.911   3.345   5.712 -0.4158 -0.1558 -3.6387
 5300TIP3    H237316   1.970   3.473   5.657  1.5115  1.5736  1.7915
 5301TIP3   OH237317   4.890   6.599   1.344 -0.2682  0.0834  0.0465
 5301TIP3    H137318   4.839   6.557   1.275 -1.8353 -1.4673  2.0298
 5301TIP3    H237319   4.827   6.653   1.392  0.2087 -0.7553  1.6955
 5302TIP3   OH237320   3.761   2.461  12.584 -0.0745  0.0146 -0.0485
 5302TIP3    H137321   3.677   2.471  12.630 -0.9711  0.5967 -1.7134
 5302TIP3    H237322   3.764   2.535  12.523  0.4479 -1.3684 -1.8003
 5303TIP3   OH237323   1.246   2.690  12.240  0.6209  0.3289  0.6174
 5303TIP3    H137324   1.191   2.755  12.284 -1.1720 -0.6889 -0.0505
 5303TIP3    H237325   1.293   2.646  12.312 -0.4411  0.3212  1.3348
 5304TIP3   OH237326   0.659   0.988   5.674 -0.4219 -0.1155 -0.4101
 5304TIP3    H137327   0.698   1.075   5.682 -0.8659  0.0958 -0.5328
 5304TIP3    H237328   0.617   0.989   5.588 -0.0286 -0.6135 -0.6154
 5305TIP3   OH237329   3.845   2.561   5.469 -0.2285 -0.4779  0.3765
 5305TIP3    H137330   3.924   2.576   5.416 -0.4298  0.0186  0.2109
 5305TIP3    H237331   3.863   2.604   5.552  0.4314 -1.9768  1.0532
 5306TIP3   OH237332   2.900   3.409  14.252  0.4086 -0.3868  0.0482
 5306TIP3    H137333   2.807   3.387  14.246 -0.0851  1.3092  0.7773
 5306TIP3    H237334   2.930   3.368  14.333  0.1115 -0.3154  0.1938
 5307TIP3   OH237335   1.577   4.757  11.856 -0.2519 -0.7591 -0.1677
 5307TIP3    H137336   1.593   4.720  11.770 -0.7338 -2.1583  0.3125
 5307TIP3    H237337   1.626   4.839  11.857 -0.5172 -0.5623 -1.8758
 5308TIP3   OH237338   5.878   5.031   2.512  0.3405 -0.4746  0.0772
 5308TIP3    H137339   5.825   5.078   2.447  0.1821 -1.3485 -0.4493
 5308TIP3    H237340   5.828   5.039   2.593  0.4632  0.5028  0.0680
 5309TIP3   OH237341   3.027   6.556   6.058  0.3234  0.7613  0.4316
 5309TIP3    H137342   3.096   6.560   5.992  0.7334 -2.6216  0.4522
 5309TIP3    H237343   3.073   6.538   6.140 -0.4525 -0.7373  0.5819
 5310TIP3   OH237344   3.253   3.833   0.568  0.0797 -0.0772  0.2774
 5310TIP3    H137345   3.228   3.925   0.558  1.7179  0.2941 -0.8405
 5310TIP3    H237346   3.258   3.819   0.663  0.4160  1.1784  0.4610
 5311TIP3   OH237347   2.441   1.894   5.417  0.7729 -0.1256  0.6163
 5311TIP3    H137348   2.451   1.987   5.396 -1.6935 -0.0561 -0.6212
 5311TIP3    H237349   2.407   1.893   5.506 -2.6523  0.4744 -0.5456
 5312TIP3   OH237350   0.363   3.691   2.461 -0.5076  0.1871 -0.0362
 5312TIP3    H137351   0.439   3.640   2.491 -1.9924 -0.9390  2.1312
 5312TIP3    H237352   0.383   3.781   2.485  0.0361 -0.1417  0.7729
 5313TIP3   OH237353   6.500   4.457   0.328  0.5340  0.0005  1.5000
 5313TIP3    H137354   6.474   4.454   0.420 -0.8886  0.3862  1.1318
 5313TIP3    H237355   6.442   4.522   0.289  1.2214 -0.0515  0.3542
 5314TIP3   OH237356   6.230   2.187   3.146  0.1458 -0.1503  0.4574
 5314TIP3    H137357   6.276   2.260   3.187  1.6826  0.1587 -1.6441
 5314TIP3    H237358   6.196   2.223   3.064  0.5340 -1.6514 -0.4005
 5315TIP3   OH237359   0.833   3.288   3.878 -0.1417  0.3906 -0.1992
 5315TIP3    H137360   0.737   3.293   3.876 -0.1387  0.7801  0.5061
 5315TIP3    H237361   0.855   3.275   3.970  0.5694  2.5389  0.0059
 5316TIP3   OH237362   4.512   2.556  12.557 -0.2657 -0.8351 -0.1374
 5316TIP3    H137363   4.589   2.612  12.546 -0.5026 -0.2109  1.2343
 5316TIP3    H237364   4.504   2.509  12.473  0.9127 -0.0536 -0.7057
 5317TIP3   OH237365   4.316   2.831  13.575  0.1752 -0.5109 -0.2633
 5317TIP3    H137366   4.242   2.773  13.558  1.9032 -2.5527 -1.1109
 5317TIP3    H237367   4.393   2.782  13.548  1.9904  1.1188  1.5727
 5318TIP3   OH237368   0.609   5.548  15.740  0.1051  0.0346 -0.1147
 5318TIP3    H137369   0.680   5.485  15.730  0.2450 -0.1044  1.4952
 5318TIP3    H237370   0.595   5.583  15.652  0.8039 -1.3866 -0.8166
 5319TIP3   OH237371   5.683   2.667   4.009 -0.1106  0.1339  0.2372
 5319TIP3    H137372   5.601   2.706   3.980  0.7815  0.3021 -2.4024
 5319TIP3    H237373   5.744   2.741   4.012  0.7130 -0.4422 -1.1960
 5320TIP3   OH237374   1.895   2.645  13.762  0.5459  0.5169 -0.1309
 5320TIP3    H137375   1.931   2.706  13.827  2.1689 -0.4632 -0.0448
 5320TIP3    H237376   1.971   2.618  13.711 -0.5351  0.4370 -1.7717
 5321TIP3   OH237377   4.331   5.435   4.508 -0.0536 -0.0292 -0.0368
 5321TIP3    H137378   4.335   5.367   4.575 -1.5748 -1.2908 -1.1513
 5321TIP3    H237379   4.247   5.478   4.522  0.0325  0.3178 -0.5614
 5322TIP3   OH237380   1.774   1.743   1.335 -0.6955 -0.3772 -0.3588
 5322TIP3    H137381   1.731   1.659   1.324  0.4106 -0.8824 -1.0372
 5322TIP3    H237382   1.796   1.771   1.246  0.2640 -0.0851 -0.0464
 5323TIP3   OH237383   1.533   6.313  11.977 -0.2076  0.4709 -0.0442
 5323TIP3    H137384   1.471   6.316  12.050 -0.4496 -2.6183 -0.0132
 5323TIP3    H237385   1.525   6.225  11.941  1.5547  1.1511 -2.3953
 5324TIP3   OH237386   6.265   3.807  10.480 -0.0494 -0.3544  0.0724
 5324TIP3    H137387   6.315   3.880  10.444 -0.7535  0.5420  0.8462
 5324TIP3    H237388   6.183   3.846  10.510 -1.0532 -1.7113 -0.7845
 5325TIP3   OH237389   4.083   2.300   0.352  0.6050 -0.6226  0.3124
 5325TIP3    H137390   4.129   2.254   0.422  0.0573  0.1974  1.2384
 5325TIP3    H237391   4.063   2.386   0.389  1.3457  0.2793 -1.2601
 5326TIP3   OH237392   0.348   6.747   3.790  0.3839 -0.2306  0.4183
 5326TIP3    H137393   0.324   6.698   3.869 -0.3944  1.3151  1.1785
 5326TIP3    H237394   0.297   6.827   3.795  1.2490  0.4515 -1.0518
 5327TIP3   OH237395   3.509   2.020   1.204  0.8435  0.3641  0.7031
 5327TIP3    H137396   3.596   2.048   1.175  0.2372  1.6509  0.0669
 5327TIP3    H237397   3.482   1.954   1.139  0.5356  1.4207 -0.2775
 5328TIP3   OH237398   2.082   4.592  12.022  0.3774 -0.4275 -0.3214
 5328TIP3    H137399   2.176   4.609  12.018  0.0393  1.4220 -1.2817
 5328TIP3    H237400   2.062   4.589  12.115  0.8997  2.3391 -0.0387
 5329TIP3   OH237401   1.766   5.660   2.520 -1.1488 -0.1085  0.1645
 5329TIP3    H137402   1.791   5.743   2.560  2.1132 -0.8436 -0.0170
 5329TIP3    H237403   1.849   5.613   2.511 -2.4200 -2.0842 -2.6656
 5330TIP3   OH237404   1.060   0.878  11.931 -0.3654 -0.7454 -0.5743
 5330TIP3    H137405   1.020   0.796  11.900  0.5548 -0.9064 -1.3762
 5330TIP3    H237406   1.154   0.862  11.926 -0.0983  1.0669 -2.7990
 5331TIP3   OH237407   5.042   4.444   0.229  0.5553 -0.6385  0.9490
 5331TIP3    H137408   5.080   4.492   0.155  0.3601 -1.7696  0.0825
 5331TIP3    H237409   5.101   4.460   0.302  1.1667 -0.1188  0.3488
 5332TIP3   OH237410   2.252   6.455  17.270 -0.2738  0.4586  0.4273
 5332TIP3    H137411   2.269   6.403  17.349 -0.6031 -1.0243 -0.4513
 5332TIP3    H237412   2.157   6.455  17.261 -0.1692 -0.7421 -0.8424
 5333TIP3   OH237413   2.099   5.839  11.206 -0.4519 -0.4166  0.3631
 5333TIP3    H137414   2.129   5.753  11.235  1.0416 -0.8112 -2.0191
 5333TIP3    H237415   2.007   5.826  11.182 -0.3708 -1.2317  0.4610
 5334TIP3   OH237416   2.892   6.138   1.781  0.0794  0.3876 -0.0039
 5334TIP3    H137417   2.805   6.145   1.742  0.5313 -1.0167 -1.4034
 5334TIP3    H237418   2.893   6.051   1.821  1.6849 -0.8293 -2.4436
 5335TIP3   OH237419   0.941   4.702   4.181  0.1862  0.1122 -0.0568
 5335TIP3    H137420   0.971   4.640   4.115  1.7120  1.5279 -0.7822
 5335TIP3    H237421   0.911   4.778   4.131 -0.1072  0.5989  0.8320
 5336TIP3   OH237422   6.187   3.347  17.052  0.0604 -0.1222 -0.1454
 5336TIP3    H137423   6.135   3.282  17.101 -0.6410  0.7290  0.2726
 5336TIP3    H237424   6.161   3.431  17.090 -0.1466  0.5318 -1.6707
 5337TIP3   OH237425   4.323   4.572  15.885 -0.2525  0.0514 -0.0278
 5337TIP3    H137426   4.298   4.545  15.797  0.2418 -0.5041 -0.0051
 5337TIP3    H237427   4.364   4.495  15.924 -1.8490 -0.2162  1.2548
 5338TIP3   OH237428   2.358   1.287   4.927  0.4315  0.5060 -0.5193
 5338TIP3    H137429   2.297   1.307   4.998  1.6191  0.9854  0.4127
 5338TIP3    H237430   2.403   1.207   4.956 -0.2155 -0.2478 -1.5228
 5339TIP3   OH237431   1.058   1.326  16.229  0.1340 -0.3863 -0.5923
 5339TIP3    H137432   0.967   1.353  16.242  1.1908  1.9590  3.4083
 5339TIP3    H237433   1.086   1.375  16.151 -1.4460  0.3952 -0.7110
 5340TIP3   OH237434   4.704   5.122  15.958 -0.0555 -0.2497 -0.4295
 5340TIP3    H137435   4.627   5.124  16.015 -0.1762  0.5075 -0.6120
 5340TIP3    H237436   4.775   5.091  16.015 -0.3979 -0.5357 -0.1517
 5341TIP3   OH237437   0.290   3.493   4.431 -0.0902 -0.0126 -0.1244
 5341TIP3    H137438   0.341   3.518   4.354 -0.1216 -2.0419 -0.8622
 5341TIP3    H237439   0.321   3.551   4.500 -0.3604  2.1618 -1.7173
 5342TIP3   OH237440   2.023   3.150  14.883 -0.6811 -0.3450 -0.8663
 5342TIP3    H137441   2.088   3.220  14.877 -0.3938 -0.4748  0.4340
 5342TIP3    H237442   2.028   3.105  14.799 -1.9031  2.0666 -2.3375
 5343TIP3   OH237443   5.243   6.737  11.852 -0.0605  0.6449 -0.2525
 5343TIP3    H137444   5.337   6.747  11.865  0.1919  0.7206 -1.9259
 5343TIP3    H237445   5.213   6.822  11.820 -0.9382  0.9811  1.3370
 5344TIP3   OH237446   1.336   1.348  12.938 -0.0371 -0.1640 -0.2389
 5344TIP3    H137447   1.311   1.356  12.846  0.3712  0.4522 -0.2981
 5344TIP3    H237448   1.314   1.432  12.977 -2.7498 -1.2782  0.8800
 5345TIP3   OH237449   4.918   2.623   2.603  0.3364  0.0704 -0.1656
 5345TIP3    H137450   4.861   2.680   2.551 -0.0782  1.5507  1.7663
 5345TIP3    H237451   4.880   2.626   2.691  1.8625 -1.0803  0.5736
 5346TIP3   OH237452   2.738   3.567  12.522 -0.1495  0.2456  0.4906
 5346TIP3    H137453   2.814   3.513  12.544 -0.6119 -1.1379 -1.0788
 5346TIP3    H237454   2.706   3.599  12.607 -0.5737 -2.9882  1.6871
 5347TIP3   OH237455   1.489   1.840   3.939 -0.2417  0.0972  0.1601
 5347TIP3    H137456   1.471   1.790   3.859 -1.0939  0.2749  0.2319
 5347TIP3    H237457   1.563   1.896   3.915  0.3674 -0.7828 -0.0884
 5348TIP3   OH237458   4.571   2.139   1.902 -0.4168  0.3623  0.3471
 5348TIP3    H137459   4.548   2.227   1.872 -1.1876  0.1382  0.2704
 5348TIP3    H237460   4.542   2.136   1.993  1.9537  1.0529  1.2187
 5349TIP3   OH237461   4.846   0.428   3.614  0.0153 -0.0513 -0.2455
 5349TIP3    H137462   4.874   0.361   3.552 -0.4513 -0.6023  0.1278
 5349TIP3    H237463   4.824   0.503   3.560 -0.5741 -0.5867 -0.7699
 5350TIP3   OH237464   5.479   6.300  15.487 -0.0539  0.1669 -0.3667
 5350TIP3    H137465   5.571   6.315  15.507  0.1804 -2.1709  0.6057
 5350TIP3    H237466   5.439   6.387  15.494  1.5154  0.8055  2.4149
 5351TIP3   OH237467   6.250   4.669  15.935 -0.5108 -0.1439  0.3425
 5351TIP3    H137468   6.272   4.702  15.848 -1.2990  1.8958  0.8536
 5351TIP3    H237469   6.162   4.632  15.925 -0.5704  0.0220  0.2485
 5352TIP3   OH237470   4.758   0.280  11.424 -0.4049 -0.0612  0.0131
 5352TIP3    H137471   4.792   0.192  11.406  1.3793  0.9068 -1.9472
 5352TIP3    H237472   4.711   0.303  11.344  0.2616  1.2069 -0.0356
 5353TIP3   OH237473   3.156   4.878   0.437  0.3205  0.6959  0.6024
 5353TIP3    H137474   3.126   4.899   0.526 -1.3606  1.1498 -0.0262
 5353TIP3    H237475   3.180   4.786   0.442 -1.2634  0.2834  1.1779
 5354TIP3   OH237476   0.641   5.587  16.303 -0.7162  0.1851 -0.2298
 5354TIP3    H137477   0.596   5.663  16.339  1.1850  0.7044  1.2351
 5354TIP3    H237478   0.692   5.622  16.231 -1.5066 -0.1349 -0.9589
 5355TIP3   OH237479   5.634   3.299  15.064  0.5503 -0.4129  0.2461
 5355TIP3    H137480   5.587   3.304  14.981 -0.0214 -2.1309  0.4409
 5355TIP3    H237481   5.665   3.209  15.070 -2.2448 -1.3794  3.3770
 5356TIP3   OH237482   1.074   3.760  14.128  0.2340  0.1808  0.2327
 5356TIP3    H137483   1.133   3.756  14.203  1.0606  0.2368 -0.3992
 5356TIP3    H237484   1.027   3.676  14.129  0.9067 -0.2003  0.2774
 5357TIP3   OH237485   1.495   5.824  13.913  0.6023 -0.6106 -0.8203
 5357TIP3    H137486   1.409   5.838  13.952  1.5732  0.7985  0.9910
 5357TIP3    H237487   1.503   5.892  13.847  0.5086 -0.4427 -0.6604
 5358TIP3   OH237488   2.799   3.645   6.146 -0.6571  0.2461  0.4058
 5358TIP3    H137489   2.760   3.566   6.184  0.6318 -0.3528  0.5378
 5358TIP3    H237490   2.865   3.672   6.209  0.5370  0.0543 -0.7244
 5359TIP3   OH237491   3.039   4.041   3.603 -0.2174  0.2872 -0.4902
 5359TIP3    H137492   3.010   4.015   3.691  0.2925 -1.0277 -0.6856
 5359TIP3    H237493   3.093   3.967   3.573  1.5126  1.6895 -0.9975
 5360TIP3   OH237494   6.754   5.439   0.532  0.0596  0.2990  0.2312
 5360TIP3    H137495   6.800   5.494   0.468  2.3293 -0.8734  0.7279
 5360TIP3    H237496   6.667   5.425   0.495  0.8085  0.8792 -1.8708
 5361TIP3   OH237497   5.580   2.073   6.068 -0.3383  0.0046  0.0219
 5361TIP3    H137498   5.526   2.124   6.128 -1.2232  1.0022 -1.5305
 5361TIP3    H237499   5.553   1.982   6.081 -4.1470  0.6053 -2.1760
 5362TIP3   OH237500   4.113   3.717   4.344  0.7951 -0.3691 -0.1790
 5362TIP3    H137501   4.140   3.778   4.413  1.4463 -1.5031  0.5917
 5362TIP3    H237502   4.191   3.704   4.291  0.3923  0.2157 -0.9269
 5363TIP3   OH237503   5.388   0.728   4.530  0.1232  0.1964  0.6666
 5363TIP3    H137504   5.370   0.765   4.443  1.0992 -0.0166  0.3604
 5363TIP3    H237505   5.365   0.798   4.591 -0.0346  0.5503  0.2086
 5364TIP3   OH237506   5.195   3.929   0.457 -0.1504 -0.3251 -0.1031
 5364TIP3    H137507   5.266   3.896   0.513 -1.0978 -1.3278  0.5489
 5364TIP3    H237508   5.117   3.886   0.491 -1.1043  0.8941 -0.6975
 5365TIP3   OH237509   6.216   4.535   0.795 -0.2169 -0.2779  0.4634
 5365TIP3    H137510   6.213   4.548   0.890  1.1237  1.5118  0.3015
 5365TIP3    H237511   6.124   4.530   0.769 -0.6156 -2.0349  1.9564
 5366TIP3   OH237512   2.330   2.452  15.768 -0.2790  0.4179  0.2916
 5366TIP3    H137513   2.304   2.487  15.854  0.8694 -1.9710  1.7210
 5366TIP3    H237514   2.299   2.361  15.769  0.7608  0.0040 -1.3418
 5367TIP3   OH237515   3.059   0.570   3.471 -0.6577 -0.1761  0.7537
 5367TIP3    H137516   3.103   0.568   3.387 -1.0714 -0.6914  0.5494
 5367TIP3    H237517   3.115   0.626   3.526 -0.6926  0.6431 -0.0252
 5368TIP3   OH237518   3.148   1.449   2.733 -0.5475  0.1737 -0.2030
 5368TIP3    H137519   3.099   1.517   2.687 -0.0159 -0.9515 -2.6347
 5368TIP3    H237520   3.102   1.368   2.713  0.5104 -0.5251  0.0744
 5369TIP3   OH237521   6.258   5.856  17.171 -0.0978  0.1496 -0.2937
 5369TIP3    H137522   6.180   5.909  17.191  0.5453  1.1630 -0.4069
 5369TIP3    H237523   6.302   5.847  17.256 -0.7370 -1.1174 -0.0728
 5370TIP3   OH237524   5.288   2.053  17.025 -0.2293  0.1953 -0.2887
 5370TIP3    H137525   5.216   1.990  17.025 -0.9653  1.0146 -0.3947
 5370TIP3    H237526   5.246   2.136  17.002  0.6565  0.8011  0.2635
 5371TIP3   OH237527   1.064   5.189  14.772 -0.0770 -0.5128  0.0166
 5371TIP3    H137528   1.121   5.224  14.704  0.2889 -0.9838  0.0809
 5371TIP3    H237529   1.087   5.239  14.850  1.8910 -2.2272  0.6136
 5372TIP3   OH237530   0.272   4.829   0.737  0.0747  0.3439  0.2801
 5372TIP3    H137531   0.201   4.802   0.796  0.0083  1.1348  0.5804
 5372TIP3    H237532   0.352   4.810   0.786  0.0140  1.2411  0.7543
 5373TIP3   OH237533   1.731   0.638   2.310  0.1610 -0.3175 -0.7459
 5373TIP3    H137534   1.641   0.665   2.294  0.2247 -0.5533 -1.5554
 5373TIP3    H237535   1.731   0.544   2.292  0.8696 -0.0727 -2.1896
 5374TIP3   OH237536   1.219   3.319  13.559 -0.1002 -0.5117 -0.5807
 5374TIP3    H137537   1.172   3.238  13.576 -0.5141 -0.3305 -0.8429
 5374TIP3    H237538   1.274   3.299  13.483 -1.1977 -0.1692 -1.4983
 5375TIP3   OH237539   6.125   3.936   1.147 -0.4892 -0.2129  0.1491
 5375TIP3    H137540   6.160   3.875   1.213 -0.5756  0.0032  0.3984
 5375TIP3    H237541   6.177   3.919   1.069  0.2265  0.1639  0.5364
 5376TIP3   OH237542   4.509   0.111   5.864  0.7732 -0.1567 -0.3787
 5376TIP3    H137543   4.603   0.127   5.878  0.8007 -0.5482 -0.0631
 5376TIP3    H237544   4.468   0.143   5.944  0.6346  0.0401 -0.5294
 5377TIP3   OH237545   3.604   0.006  15.247  0.0909  0.4649 -0.4844
 5377TIP3    H137546   3.626   0.093  15.280 -0.2341 -0.0163  1.0446
 5377TIP3    H237547   3.665  -0.053  15.290  0.2694 -0.0940 -1.4701
 5378TIP3   OH237548   6.066   1.853  10.786  0.3280  0.1422  0.0377
 5378TIP3    H137549   6.114   1.809  10.715 -0.7674 -1.6043  0.2993
 5378TIP3    H237550   6.133   1.877  10.849  1.1819  0.5942 -1.0001
 5379TIP3   OH237551   3.622   5.891   2.214 -0.1215  0.7988  0.1487
 5379TIP3    H137552   3.634   5.800   2.189 -3.0213  0.6890 -1.3037
 5379TIP3    H237553   3.535   5.914   2.180  0.7395  4.2946 -0.0862
 5380TIP3   OH237554   3.258   3.697   5.239  0.4175  0.4290 -0.1337
 5380TIP3    H137555   3.242   3.732   5.151 -0.5595 -0.3331 -0.2694
 5380TIP3    H237556   3.327   3.631   5.226 -1.4672 -1.5348 -0.8091
 5381TIP3   OH237557   4.106   5.037   5.371 -0.3925  0.4485  0.8872
 5381TIP3    H137558   4.033   5.014   5.429 -1.1479 -3.3832 -1.1858
 5381TIP3    H237559   4.179   4.982   5.401  0.1351  0.6752  0.0648
 5382TIP3   OH237560   2.441   3.046  17.179  0.3860  0.5108  0.9790
 5382TIP3    H137561   2.370   3.100  17.212  1.3977  1.4636  1.6822
 5382TIP3    H237562   2.511   3.108  17.159  0.7975 -0.3257 -0.3361
 5383TIP3   OH237563   4.564   5.228   5.694  0.0175  0.0325  0.6806
 5383TIP3    H137564   4.480   5.186   5.713 -1.5806  2.7685  0.3028
 5383TIP3    H237565   4.607   5.169   5.631 -0.8207 -2.2411  2.1137
 5384TIP3   OH237566   5.477   5.097  12.480  0.2081 -0.6941  0.0371
 5384TIP3    H137567   5.480   5.191  12.460  1.5492 -0.4995  1.0149
 5384TIP3    H237568   5.411   5.062  12.420 -1.5458  1.1360  0.8034
 5385TIP3   OH237569   4.412   4.998  17.206 -0.5810  0.2096 -0.3824
 5385TIP3    H137570   4.321   5.009  17.234  0.0465  1.4941  1.3434
 5385TIP3    H237571   4.431   5.077  17.156 -0.8891 -0.8858 -2.3733
 5386TIP3   OH237572   3.081   2.437  11.381  0.3213  0.2295 -0.7515
 5386TIP3    H137573   3.134   2.483  11.317  2.2393 -2.0162 -0.8952
 5386TIP3    H237574   3.034   2.370  11.331  0.3368 -0.2952 -0.0794
 5387TIP3   OH237575   4.974   2.519   1.724  0.1323 -0.3664  0.5944
 5387TIP3    H137576   4.919   2.585   1.765 -1.8258 -2.4297  1.5168
 5387TIP3    H237577   4.919   2.480   1.656  1.4068 -0.7354 -0.2679
 5388TIP3   OH237578   5.482   5.483   1.667  0.2890  0.1104  0.3284
 5388TIP3    H137579   5.527   5.398   1.672 -0.7744 -0.6192 -1.5947
 5388TIP3    H237580   5.548   5.544   1.634  0.3653 -0.5544 -0.7730
 5389TIP3   OH237581   5.765   5.499  12.289  0.2236  0.1134  0.0100
 5389TIP3    H137582   5.755   5.592  12.269  0.5726  0.1706  0.0953
 5389TIP3    H237583   5.727   5.454  12.214 -0.2237  0.3219  0.1041
 5390TIP3   OH237584   2.954   1.663  11.570 -0.8137  0.0514  0.3480
 5390TIP3    H137585   2.941   1.673  11.476 -0.4178  0.7623  0.3661
 5390TIP3    H237586   2.951   1.568  11.584 -1.5512 -0.0281 -0.2755
 5391TIP3   OH237587   4.146   3.299  11.947 -0.0075  0.0126  0.3768
 5391TIP3    H137588   4.196   3.289  11.865 -0.2923 -0.8353  0.3055
 5391TIP3    H237589   4.065   3.252  11.932 -0.6414  0.9869  0.6731
 5392TIP3   OH237590   4.735   1.232  14.861  0.0259 -0.3551  0.9328
 5392TIP3    H137591   4.735   1.143  14.897 -1.3260 -1.2411 -1.0203
 5392TIP3    H237592   4.644   1.246  14.834  0.3886  1.3121  0.4793
 5393TIP3   OH237593   3.592   4.130   3.704 -0.7324 -0.3986 -0.4661
 5393TIP3    H137594   3.671   4.138   3.756 -1.1127 -2.2094  0.5062
 5393TIP3    H237595   3.587   4.211   3.654  1.1945  0.1680  0.1708
 5394TIP3   OH237596   2.057   4.050  14.818  0.3516  0.5821  0.2820
 5394TIP3    H137597   2.075   3.990  14.891 -2.1998 -1.9587 -0.9683
 5394TIP3    H237598   1.963   4.067  14.824 -0.0160  0.0002 -2.5699
 5395TIP3   OH237599   5.533   3.905   4.432 -0.4853 -0.1593  0.0790
 5395TIP3    H137600   5.561   3.996   4.422 -2.2940  0.4221 -0.0085
 5395TIP3    H237601   5.555   3.865   4.348  0.7591  0.0412  0.2831
 5396TIP3   OH237602   6.054   1.105   1.066 -0.1179 -0.5431 -0.1779
 5396TIP3    H137603   6.034   1.190   1.105 -0.2605  0.0741 -1.5426
 5396TIP3    H237604   6.001   1.042   1.115  0.6258  0.0269  1.4006
 5397TIP3   OH237605   1.408   1.632  14.229  0.6465 -0.2841 -0.3562
 5397TIP3    H137606   1.420   1.588  14.144  1.8425  1.3368 -1.0969
 5397TIP3    H237607   1.458   1.713  14.220 -0.3315  0.5626  1.4406
 5398TIP3   OH237608   4.009   2.018  15.896 -0.6514 -0.0030  0.6318
 5398TIP3    H137609   4.086   1.968  15.927  0.6619  0.8606 -1.0899
 5398TIP3    H237610   3.967   1.959  15.833 -0.4909  0.1363  0.3950
 5399TIP3   OH237611   1.339   2.017  11.166  0.1431 -0.0351  0.4527
 5399TIP3    H137612   1.383   2.086  11.116  0.8048 -0.8096 -0.0850
 5399TIP3    H237613   1.399   1.942  11.160 -0.2477 -0.4603  1.5669
 5400TIP3   OH237614   6.325   2.923  13.279  0.2656 -0.4750 -0.2807
 5400TIP3    H137615   6.344   2.885  13.365 -2.4018 -1.7892 -0.1851
 5400TIP3    H237616   6.382   2.875  13.219 -0.0914 -1.7660  0.3788
 5401TIP3   OH237617   2.896   1.863   0.126  0.2600  0.1776 -0.4882
 5401TIP3    H137618   2.991   1.857   0.124  0.4153  1.0501  1.6137
 5401TIP3    H237619   2.866   1.775   0.150  0.5728  0.0233 -0.6708
 5402TIP3   OH237620   0.679   2.972  17.076 -0.6845 -0.1703 -0.0372
 5402TIP3    H137621   0.591   2.946  17.049 -1.3604  0.3929  1.5064
 5402TIP3    H237622   0.675   2.974  17.172  0.6028  1.2771  0.0158
 5403TIP3   OH237623   4.901   1.102  12.997  0.1082  0.0174 -0.3385
 5403TIP3    H137624   4.878   1.089  12.905 -1.0065  0.1594 -0.0952
 5403TIP3    H237625   4.847   1.176  13.026 -1.1453 -1.3166  0.9631
 5404TIP3   OH237626   6.395   4.248  13.857 -0.1121 -0.0555 -0.4785
 5404TIP3    H137627   6.349   4.165  13.844  0.6004 -0.5452  0.0592
 5404TIP3    H237628   6.460   4.229  13.924 -0.9291  1.3316  0.7534
 5405TIP3   OH237629   0.651   4.421  15.265 -0.0104 -0.1183  0.2808
 5405TIP3    H137630   0.697   4.492  15.220 -0.9428  0.1817 -0.2458
 5405TIP3    H237631   0.613   4.462  15.343 -0.0521 -0.1749  0.2906
 5406TIP3   OH237632   1.378   6.132  13.003  0.3238 -0.0578  0.7167
 5406TIP3    H137633   1.403   6.070  13.072  1.1870 -1.0265 -0.4407
 5406TIP3    H237634   1.411   6.093  12.922 -1.3324  0.6962 -0.3571
 5407TIP3   OH237635   1.037   2.996   1.822 -0.4757  0.2808 -0.0267
 5407TIP3    H137636   1.105   2.929   1.829 -1.5010 -0.8580 -0.6071
 5407TIP3    H237637   0.973   2.973   1.890 -1.6236 -0.3103 -1.2584
 5408TIP3   OH237638   6.517   1.329   4.831  0.1057  0.1925 -0.5811
 5408TIP3    H137639   6.435   1.376   4.815  0.7281  1.1840 -0.9797
 5408TIP3    H237640   6.514   1.306   4.923  1.0325  3.6282  0.4572
 5409TIP3   OH237641   3.936   5.282   4.076  0.0903 -0.1058  0.3593
 5409TIP3    H137642   3.849   5.250   4.100  0.4991 -1.5522  0.0557
 5409TIP3    H237643   3.956   5.236   3.994  0.1930  1.9754 -0.8493
 5410TIP3   OH237644   3.117   4.694  16.974  0.6941 -0.2709  0.3956
 5410TIP3    H137645   3.173   4.763  17.008  1.1678 -0.5836  0.2652
 5410TIP3    H237646   3.083   4.650  17.052  1.7654 -0.9776  0.4887
 5411TIP3   OH237647   0.826   2.155   1.605 -1.0613  0.1014  0.4666
 5411TIP3    H137648   0.916   2.160   1.637 -1.5449 -0.1802  1.9221
 5411TIP3    H237649   0.804   2.245   1.582 -0.4863  0.2043  0.2927
 5412TIP3   OH237650   2.481   1.186   6.689  0.1043 -0.4857 -0.3994
 5412TIP3    H137651   2.440   1.217   6.770 -1.0868 -1.1462 -0.7130
 5412TIP3    H237652   2.501   1.094   6.706 -3.1118 -1.6089 -1.8271
 5413TIP3   OH237653   6.139   5.261   2.051  0.1353  0.3940 -0.3034
 5413TIP3    H137654   6.189   5.222   2.123 -0.0530 -2.5129 -1.6282
 5413TIP3    H237655   6.048   5.252   2.078 -0.1142 -2.9819 -1.7606
 5414TIP3   OH237656   5.881   1.485   4.133 -0.3026 -0.5793 -0.1642
 5414TIP3    H137657   5.902   1.549   4.065  3.3767  1.1850  2.2889
 5414TIP3    H237658   5.785   1.479   4.132 -0.9835  5.0370 -0.6151
 5415TIP3   OH237659   6.353   1.557   1.735 -0.3038  0.4640 -0.0245
 5415TIP3    H137660   6.432   1.543   1.787  0.8055 -0.0459 -1.7826
 5415TIP3    H237661   6.309   1.472   1.735  0.7660 -0.1261 -1.5810
 5416TIP3   OH237662   2.311   4.803  12.072  0.1221 -0.1835  0.2221
 5416TIP3    H137663   2.239   4.867  12.071  1.4015  1.3055  0.0452
 5416TIP3    H237664   2.389   4.854  12.052  1.0720 -2.0054 -1.0568
 5417TIP3   OH237665   1.190   6.386  15.639 -0.1275  0.1778 -0.4117
 5417TIP3    H137666   1.152   6.362  15.554 -0.9769 -1.1475  0.3128
 5417TIP3    H237667   1.186   6.482  15.640  0.2421  0.2433 -2.0132
 5418TIP3   OH237668   3.647   5.930  17.012 -0.4338  0.3122  0.7644
 5418TIP3    H137669   3.700   5.992  17.061 -0.4243  1.6229 -0.8377
 5418TIP3    H237670   3.710   5.869  16.973 -0.4622 -0.9673  2.5823
 5419TIP3   OH237671   2.431   6.203  13.994  0.0084 -0.1335  0.4544
 5419TIP3    H137672   2.400   6.114  14.006 -1.0438  0.3023  1.0830
 5419TIP3    H237673   2.396   6.230  13.909 -1.8357  0.5280  1.3779
 5420TIP3   OH237674   5.026   1.369   0.715 -0.1225  0.2967 -0.0778
 5420TIP3    H137675   4.999   1.459   0.732 -0.5150  0.0704  0.5303
 5420TIP3    H237676   5.097   1.354   0.778 -0.1145  0.1582 -0.1199
 5421TIP3   OH237677   2.986   5.329  13.516  0.6922  0.4042 -0.7165
 5421TIP3    H137678   2.928   5.256  13.536  1.2041  0.3927  0.8869
 5421TIP3    H237679   2.988   5.333  13.420 -2.2702  0.7058 -0.8506
 5422TIP3   OH237680   0.376   2.998  15.727  0.5148  0.5562 -0.0286
 5422TIP3    H137681   0.290   2.995  15.684 -0.7932 -0.6347  2.4602
 5422TIP3    H237682   0.393   2.907  15.751  0.9387  1.1907  2.2715
 5423TIP3   OH237683   6.319   2.131  15.467  0.6832 -1.0125 -0.0726
 5423TIP3    H137684   6.353   2.068  15.529  2.0417 -0.0275  0.2305
 5423TIP3    H237685   6.312   2.213  15.517 -0.6221 -0.7954 -0.5641
 5424TIP3   OH237686   5.718   5.727   5.277  0.1074  0.1904  1.1809
 5424TIP3    H137687   5.720   5.720   5.181  1.9306  2.3804  1.0110
 5424TIP3    H237688   5.800   5.687   5.306 -0.7581 -1.1151  1.9291
 5425TIP3   OH237689   0.436   6.163  14.457  0.6548 -0.0497 -0.3420
 5425TIP3    H137690   0.467   6.208  14.379  2.1373  0.2546  0.3877
 5425TIP3    H237691   0.516   6.135  14.502 -0.1641 -0.2180  1.0694
 5426TIP3   OH237692   5.916   2.438  13.432  0.3515  0.2016 -0.0754
 5426TIP3    H137693   5.953   2.512  13.481 -0.2017  0.0175  0.6447
 5426TIP3    H237694   5.939   2.455  13.341  2.8489 -0.2804  0.3941
 5427TIP3   OH237695   1.532   0.583   6.388 -0.3987  0.1822 -0.3217
 5427TIP3    H137696   1.560   0.559   6.476  0.9537  0.2257 -0.7301
 5427TIP3    H237697   1.530   0.500   6.340  1.0046  0.4214 -0.8272
 5428TIP3   OH237698   5.782   5.681  13.585  0.2900  0.0648  0.3121
 5428TIP3    H137699   5.785   5.769  13.624 -0.4291  0.2756 -0.0958
 5428TIP3    H237700   5.708   5.638  13.628  3.1803 -1.9851  3.8366
 5429TIP3   OH237701   1.456   2.323  17.249  0.2812  0.4609 -0.4702
 5429TIP3    H137702   1.411   2.310  17.333  0.0787  1.3096 -0.4363
 5429TIP3    H237703   1.542   2.356  17.273 -0.0706  1.5251 -0.6011
 5430TIP3   OH237704   5.945   2.103  17.331 -0.6351 -0.7717 -0.0176
 5430TIP3    H137705   5.932   2.009  17.336  2.4461 -1.3379 -0.6889
 5430TIP3    H237706   5.965   2.120  17.239  0.6574  0.2174  0.4075
 5431TIP3   OH237707   2.609   0.842  13.806 -0.0507  0.0169  0.0086
 5431TIP3    H137708   2.523   0.863  13.843 -0.1664 -0.1214 -0.1755
 5431TIP3    H237709   2.652   0.927  13.794  0.7310 -0.0190  2.1865
 5432TIP3   OH237710   4.472   1.773  17.199 -0.1358  0.3420 -0.1494
 5432TIP3    H137711   4.436   1.847  17.150  0.3016  0.4904 -0.2555
 5432TIP3    H237712   4.525   1.813  17.268 -0.3846  0.1291  0.1711
 5433TIP3   OH237713   5.376   4.911  15.794 -0.2009 -0.1811  0.0476
 5433TIP3    H137714   5.347   4.873  15.876  0.7875 -0.7670  0.1363
 5433TIP3    H237715   5.319   4.872  15.728  0.0751 -0.9667  0.2671
 5434TIP3   OH237716   1.203   3.059  11.081 -0.0336  0.1733  0.5431
 5434TIP3    H137717   1.205   3.104  10.996  0.4890  0.3553  0.6447
 5434TIP3    H237718   1.123   3.008  11.079  0.2906 -0.3340 -0.3284
 5435TIP3   OH237719   0.456   4.389  12.883 -0.0146  0.9504  0.1199
 5435TIP3    H137720   0.463   4.296  12.860 -0.5482  1.1437 -0.8968
 5435TIP3    H237721   0.386   4.393  12.948  0.0717  0.6341  0.2336
 5436TIP3   OH237722   5.678   2.288   6.482 -0.4278  0.3425 -0.2103
 5436TIP3    H137723   5.766   2.309   6.451  0.7002  0.1473  2.5747
 5436TIP3    H237724   5.663   2.348   6.555 -1.7621 -1.0020  0.6936
 5437TIP3   OH237725   0.037   0.424   1.962 -0.0982  0.1435 -0.1237
 5437TIP3    H137726   0.026   0.331   1.940 -1.0290  0.0668  0.5947
 5437TIP3    H237727  -0.051   0.461   1.952  0.3496  1.0478 -0.8144
 5438TIP3   OH237728   6.555   6.476   5.512  0.3521 -0.2585 -0.2620
 5438TIP3    H137729   6.502   6.553   5.490 -0.7342 -0.9458 -0.1068
 5438TIP3    H237730   6.574   6.434   5.428 -0.3572 -0.6538 -0.2314
 5439TIP3   OH237731   6.162   6.002   2.966 -0.1239 -0.6210  0.2684
 5439TIP3    H137732   6.111   5.933   3.008 -0.3507  0.2716  1.5402
 5439TIP3    H237733   6.122   6.083   2.998 -0.6565  0.1360 -2.1361
 5440TIP3   OH237734   3.030   3.992  17.073  0.5459 -0.4790 -0.2342
 5440TIP3    H137735   3.114   4.006  17.116  1.3805 -1.0550 -1.6027
 5440TIP3    H237736   3.022   4.064  17.010 -0.4706  0.1356  0.5689
 5441TIP3   OH237737   0.487   0.994  13.602  0.7638  0.3181 -0.3280
 5441TIP3    H137738   0.566   1.036  13.637  1.5780 -1.5714  0.2356
 5441TIP3    H237739   0.519   0.921  13.551 -0.6261 -1.0967  0.7224
 5442TIP3   OH237740   3.020   2.934   2.858 -0.4295  0.1490  0.1413
 5442TIP3    H137741   3.061   2.925   2.772  1.4604  0.1952  0.9888
 5442TIP3    H237742   3.046   3.021   2.887 -0.0297 -0.3302  1.2574
 5443TIP3   OH237743   4.314   1.287  13.198  0.0472  0.5054  0.7130
 5443TIP3    H137744   4.291   1.233  13.274  1.0591  1.3846  1.6737
 5443TIP3    H237745   4.243   1.351  13.193 -0.3517  0.0569  0.5147
 5444TIP3   OH237746   2.844   5.554  10.608 -0.3936 -0.2990 -0.1402
 5444TIP3    H137747   2.890   5.471  10.603 -0.3356 -0.2436 -0.5657
 5444TIP3    H237748   2.903   5.617  10.568  0.3101  0.2850  1.7017
 5445TIP3   OH237749   6.570   4.429   2.504  0.2086  0.9577  0.2046
 5445TIP3    H137750   6.636   4.375   2.462  0.1934  0.5625  0.6739
 5445TIP3    H237751   6.494   4.424   2.446  0.0437  0.0708  0.4872
 5446TIP3   OH237752   2.312   1.439  14.653  0.3215  0.3056  0.6904
 5446TIP3    H137753   2.262   1.508  14.611  0.7002  1.6546  2.3535
 5446TIP3    H237754   2.382   1.485  14.699  0.5889 -1.1960  1.8479
 5447TIP3   OH237755   1.494   4.479  13.263  0.3321 -0.2866  0.3337
 5447TIP3    H137756   1.526   4.389  13.268 -2.0858 -1.1992  0.6356
 5447TIP3    H237757   1.471   4.491  13.171  0.7273  0.0682  0.2784
 5448TIP3   OH237758   0.192   0.446   5.034 -0.5639  0.1167  0.0556
 5448TIP3    H137759   0.140   0.427   4.956 -1.1025 -0.7674  0.6120
 5448TIP3    H237760   0.173   0.374   5.094  0.5973  0.2602  0.6355
 5449TIP3   OH237761   6.091   4.461   1.375 -0.3411  0.6071 -0.6320
 5449TIP3    H137762   6.057   4.421   1.295  0.3559  1.1118 -1.1982
 5449TIP3    H237763   6.039   4.541   1.385  0.6533  1.3951 -1.5144
 5450TIP3   OH237764   4.081   2.067  13.937 -0.0094  0.2813  0.0642
 5450TIP3    H137765   4.086   2.157  13.905 -0.0945 -0.2483 -1.5344
 5450TIP3    H237766   4.171   2.044  13.960  0.7685 -0.4630 -3.2557
 5451TIP3   OH237767   2.698   5.729   5.619  0.3249 -0.0006 -0.1545
 5451TIP3    H137768   2.674   5.673   5.545 -0.2336 -0.3512  0.2889
 5451TIP3    H237769   2.693   5.672   5.696 -0.1681  0.6278  0.2950
 5452TIP3   OH237770   0.068   0.904   5.805 -0.1852 -0.1008  0.3136
 5452TIP3    H137771   0.128   0.832   5.822  0.8129  0.3818 -0.9931
 5452TIP3    H237772   0.086   0.967   5.874  0.6104 -0.1038  0.1202
 5453TIP3   OH237773   1.203   4.209   5.898  0.0588  0.3386 -0.3164
 5453TIP3    H137774   1.258   4.172   5.829 -0.6759 -1.7164  0.1441
 5453TIP3    H237775   1.204   4.144   5.968 -1.0194  1.3546  0.6930
 5454TIP3   OH237776   6.051   0.740   3.253 -0.1000 -0.1295  0.2241
 5454TIP3    H137777   6.031   0.673   3.318  0.5367  1.7873  2.5492
 5454TIP3    H237778   5.968   0.758   3.209 -0.7568 -0.8498  1.1572
 5455TIP3   OH237779   4.932   6.453  12.540  0.0218 -0.7289  0.1447
 5455TIP3    H137780   4.951   6.517  12.608 -3.2581 -1.2163  1.7344
 5455TIP3    H237781   4.889   6.503  12.470  1.9373 -0.5006 -0.9540
 5456TIP3   OH237782   4.328   3.816   5.649 -0.3488  0.4893  0.2020
 5456TIP3    H137783   4.266   3.748   5.622  1.3403 -0.8597 -0.4585
 5456TIP3    H237784   4.309   3.891   5.593  0.2406 -0.7882 -1.7776
 5457TIP3   OH237785   5.288   0.668  15.464  0.0500 -0.2717 -0.3637
 5457TIP3    H137786   5.364   0.680  15.521 -0.6023  0.6075  0.3608
 5457TIP3    H237787   5.229   0.611  15.513 -0.0746 -0.3601 -0.6111
 5458TIP3   OH237788   1.576   6.441  11.134 -0.1030 -0.7238 -0.6417
 5458TIP3    H137789   1.594   6.407  11.222 -0.6234  0.2418 -0.1440
 5458TIP3    H237790   1.650   6.498  11.115 -0.1908 -0.6126 -0.6530
 5459TIP3   OH237791   3.785   0.435  10.459  0.8015 -0.0871  0.9256
 5459TIP3    H137792   3.810   0.405  10.546 -0.6441  0.7940  1.6726
 5459TIP3    H237793   3.702   0.392  10.441  0.9024  0.0394  0.1366
 5460TIP3   OH237794   2.711   5.434  16.206  0.2246 -0.5521 -0.7060
 5460TIP3    H137795   2.769   5.504  16.236 -1.0550  0.8878 -1.4370
 5460TIP3    H237796   2.700   5.377  16.282  0.1136  0.8883  0.3961
 5461TIP3   OH237797   5.435   2.072   2.254  0.2044  0.2150  0.1867
 5461TIP3    H137798   5.440   2.162   2.285  1.2310  0.3084 -0.2183
 5461TIP3    H237799   5.453   2.019   2.332 -0.7244  0.3371  0.4969
 5462TIP3   OH237800   2.684   0.728   1.413 -0.0252  0.2162  0.1089
 5462TIP3    H137801   2.773   0.732   1.447 -0.1209  0.6015  0.3105
 5462TIP3    H237802   2.686   0.781   1.333 -0.0498  0.1469  0.0619
 5463TIP3   OH237803   6.469   3.240   3.442 -0.3553 -0.3608  0.4403
 5463TIP3    H137804   6.525   3.316   3.453  0.0172 -0.7301  1.1830
 5463TIP3    H237805   6.460   3.229   3.347 -0.0517  0.3346  0.3295
 5464TIP3   OH237806   0.979   5.816  11.515  0.2936 -0.3655 -0.2955
 5464TIP3    H137807   0.895   5.810  11.561  0.8165 -1.1439  0.5965
 5464TIP3    H237808   1.002   5.725  11.496  1.2971 -0.2245  0.1708
 5465TIP3   OH237809   6.007   2.903  12.153 -0.5904  0.0598  0.0721
 5465TIP3    H137810   6.040   2.850  12.081 -2.1807  1.2593 -1.6060
 5465TIP3    H237811   6.074   2.894  12.221  1.0692 -0.9477 -1.5974
 5466TIP3   OH237812   3.015   3.235  13.670 -0.3561  0.6053 -0.3740
 5466TIP3    H137813   3.078   3.175  13.629 -0.2699  0.4952 -0.0837
 5466TIP3    H237814   3.065   3.279  13.739 -0.4904  0.8186 -0.4114
 5467TIP3   OH237815   0.543   3.696  15.379  0.5263 -0.9788 -0.0240
 5467TIP3    H137816   0.474   3.659  15.433  0.0710  1.0822  0.8923
 5467TIP3    H237817   0.603   3.737  15.441  0.7976  0.1220 -0.9812
 5468TIP3   OH237818   3.707   1.638  12.380  0.1967  0.6058  0.0001
 5468TIP3    H137819   3.726   1.732  12.384  0.2011  0.7186 -1.9416
 5468TIP3    H237820   3.694   1.620  12.287  0.7857 -1.4519  0.2752
 5469TIP3   OH237821   4.306   2.418  12.712 -0.0776 -0.2112  0.2632
 5469TIP3    H137822   4.269   2.362  12.643 -0.4933  0.0889  0.2447
 5469TIP3    H237823   4.363   2.479  12.665  1.0185 -1.1236  0.3571
 5470TIP3   OH237824   1.283   2.742   4.755  0.0667  0.4881 -0.6189
 5470TIP3    H137825   1.229   2.793   4.694  0.0228  0.9832 -0.1766
 5470TIP3    H237826   1.254   2.770   4.842  0.0805 -0.2670 -0.3720
 5471TIP3   OH237827   1.260   3.916   4.470 -0.1277 -0.0610 -0.5335
 5471TIP3    H137828   1.223   3.996   4.508  0.0359 -0.6609  0.9899
 5471TIP3    H237829   1.294   3.868   4.546  0.9811 -0.9549 -1.5664
 5472TIP3   OH237830   1.262   4.727  15.659 -0.0076 -0.0355 -0.4323
 5472TIP3    H137831   1.334   4.716  15.720 -0.5581 -0.9652  0.0783
 5472TIP3    H237832   1.236   4.638  15.636 -1.9225  0.2275  0.5317
 5473TIP3   OH237833   6.263   0.937   0.397 -0.0816 -0.5580  0.5241
 5473TIP3    H137834   6.228   1.023   0.372 -0.2439 -0.9028 -0.5108
 5473TIP3    H237835   6.266   0.939   0.492 -0.2704  0.5238  0.5243
 5474TIP3   OH237836   3.183   2.380  16.402 -0.7518  0.7826 -0.1451
 5474TIP3    H137837   3.127   2.440  16.451 -1.9990 -0.3261 -0.1790
 5474TIP3    H237838   3.167   2.402  16.310 -0.4674  1.0449 -0.1320
 5475TIP3   OH237839   6.743   3.062  12.538  0.2526  0.5404  0.7261
 5475TIP3    H137840   6.712   3.083  12.626  0.5580 -1.1041  1.2557
 5475TIP3    H237841   6.686   2.991  12.509  0.4131  0.7998 -0.2703
 5476TIP3   OH237842   3.192   1.198   4.859 -0.0742 -0.2238 -0.2185
 5476TIP3    H137843   3.273   1.250   4.860  0.3243 -0.7372  2.6118
 5476TIP3    H237844   3.222   1.107   4.856 -0.5603 -0.4010  0.2376
 5477TIP3   OH237845   0.397   2.467   4.374 -0.8271 -0.4112  0.1480
 5477TIP3    H137846   0.378   2.554   4.340 -2.4984 -0.5185  0.7165
 5477TIP3    H237847   0.357   2.407   4.311 -1.0797 -0.7134  0.5885
 5478TIP3   OH237848   5.364   2.816  14.093  0.8820  0.4106  0.2588
 5478TIP3    H137849   5.351   2.724  14.072 -0.4951  0.7931 -0.7053
 5478TIP3    H237850   5.401   2.816  14.181 -1.7454 -1.0069  1.4697
 5479TIP3   OH237851   1.598   2.566   4.130 -0.0053 -0.0403  0.2490
 5479TIP3    H137852   1.611   2.657   4.153  0.9357 -0.0310 -0.2663
 5479TIP3    H237853   1.645   2.555   4.047  3.4269 -1.9522  2.2348
 5480TIP3   OH237854   1.986   5.610  14.679 -0.1678  0.0159 -0.7284
 5480TIP3    H137855   2.060   5.604  14.740  0.5483  0.8134 -1.4776
 5480TIP3    H237856   1.932   5.680  14.713 -0.0223  0.1359 -0.7432
 5481TIP3   OH237857   2.222   4.365  15.532  0.3544 -0.3419 -0.0918
 5481TIP3    H137858   2.208   4.289  15.589 -0.1553  0.4557  0.8924
 5481TIP3    H237859   2.223   4.329  15.444 -1.3853 -1.3230  0.2340
 5482TIP3   OH237860   0.069   4.088   2.576 -0.4383 -0.0327 -0.9265
 5482TIP3    H137861   0.033   4.153   2.515 -1.4405 -1.0042 -1.3849
 5482TIP3    H237862   0.126   4.140   2.634  0.6276  0.9060 -2.7222
 5483TIP3   OH237863   3.648   1.394   3.483  0.2564  0.3435 -0.3556
 5483TIP3    H137864   3.608   1.393   3.570  1.5286 -0.1455  0.2484
 5483TIP3    H237865   3.594   1.456   3.433 -2.2378 -1.4755 -0.1076
 5484TIP3   OH237866   5.281   5.256   1.551  0.6015  0.4809  0.3267
 5484TIP3    H137867   5.294   5.168   1.517 -0.3586  0.5493 -0.2722
 5484TIP3    H237868   5.231   5.244   1.631  1.0043  0.4471  0.5741
 5485TIP3   OH237869   6.445   3.871   3.544 -0.0331 -0.2584  0.0101
 5485TIP3    H137870   6.364   3.883   3.493 -0.0760 -1.3579 -0.1860
 5485TIP3    H237871   6.511   3.920   3.496 -0.2425 -0.6537 -0.6904
 5486TIP3   OH237872   3.839   2.497  16.262 -0.0567 -0.2072 -0.2019
 5486TIP3    H137873   3.814   2.479  16.353  0.0068  2.2292  0.3622
 5486TIP3    H237874   3.799   2.426  16.212 -0.4900 -1.3537  1.6631
 5487TIP3   OH237875   1.383   6.063  10.352  0.5684 -0.5716  0.1082
 5487TIP3    H137876   1.478   6.072  10.361  0.4278  0.8796  0.4606
 5487TIP3    H237877   1.357   6.010  10.427  1.0391 -0.4132  0.3915
 5488TIP3   OH237878   5.513   3.022  12.862  0.7542  0.3673  0.1697
 5488TIP3    H137879   5.494   3.112  12.834 -0.4221  1.1165  2.9821
 5488TIP3    H237880   5.541   3.031  12.953 -0.6294 -2.1715  0.9476
 5489TIP3   OH237881   2.137   6.360  13.328  0.1101 -0.2502  0.0234
 5489TIP3    H137882   2.108   6.443  13.291 -0.9373  0.4884  2.2972
 5489TIP3    H237883   2.106   6.293  13.267  0.0749  0.9571 -1.3205
 5490TIP3   OH237884   1.560   1.939   1.933 -0.1251  0.4555  0.0366
 5490TIP3    H137885   1.590   1.968   2.019  3.1382 -0.9394 -0.4950
 5490TIP3    H237886   1.619   1.981   1.871  2.4541 -4.0232 -0.9821
 5491TIP3   OH237887   3.845   2.078  12.911 -0.3997  0.1678  0.1959
 5491TIP3    H137888   3.785   2.059  12.839  1.5670  0.4041 -1.6252
 5491TIP3    H237889   3.898   1.999  12.919 -1.4422 -0.3537  2.3279
 5492TIP3   OH237890   1.999   1.436   0.525  0.0072 -0.8625  0.4160
 5492TIP3    H137891   2.025   1.365   0.467  3.0537  0.4292 -0.0116
 5492TIP3    H237892   1.909   1.415   0.550 -0.4168 -3.0092 -2.3820
 5493TIP3   OH237893   4.067   4.148   4.513  0.5182  0.1066  0.2628
 5493TIP3    H137894   3.972   4.147   4.496  0.4331 -1.9558  0.5729
 5493TIP3    H237895   4.090   4.241   4.513 -1.1599  0.6196 -1.6738
 5494TIP3   OH237896   5.521   3.923   5.569  0.1641 -0.7575 -0.1095
 5494TIP3    H137897   5.582   3.952   5.500  0.9439 -2.9412 -0.4023
 5494TIP3    H237898   5.537   3.984   5.641  1.0678  0.1024 -0.9854
 5495TIP3   OH237899   4.569   5.540  15.834 -0.9928 -0.0176 -0.3326
 5495TIP3    H137900   4.633   5.587  15.888  0.5772 -0.9842 -1.2700
 5495TIP3    H237901   4.610   5.455  15.818 -2.5833 -0.7063 -0.8926
 5496TIP3   OH237902   1.100   6.507  11.854 -0.2979 -0.0086 -0.0956
 5496TIP3    H137903   1.122   6.421  11.890 -2.1443 -0.6165 -0.3324
 5496TIP3    H237904   1.009   6.520  11.878 -0.1400  1.7513 -0.3688
 5497TIP3   OH237905   6.093   5.686  16.339  0.0287 -0.3058  0.6065
 5497TIP3    H137906   6.156   5.673  16.410 -0.5577 -0.9680  1.0128
 5497TIP3    H237907   6.138   5.654  16.261  0.8109  0.7409  0.5989
 5498TIP3   OH237908   3.122   3.557  15.269 -0.1468  0.2433 -0.0523
 5498TIP3    H137909   3.073   3.637  15.291 -0.7085 -0.5004  1.6087
 5498TIP3    H237910   3.092   3.493  15.333  1.4703 -0.8541 -0.3405
 5499TIP3   OH237911   0.471   1.466  14.285 -1.2039 -0.3962  0.7983
 5499TIP3    H137912   0.453   1.382  14.326 -0.8671 -1.2414 -0.7163
 5499TIP3    H237913   0.385   1.497  14.256 -1.0851 -1.3174 -0.6310
 5500TIP3   OH237914   4.583   6.652  16.265  0.6255  0.3060 -0.1457
 5500TIP3    H137915   4.591   6.637  16.171 -1.9373 -0.7295 -0.2938
 5500TIP3    H237916   4.625   6.575  16.305 -0.0037 -0.2349 -0.5125
 5501TIP3   OH237917   6.145   4.661   4.309 -0.3099 -0.4272  0.5209
 5501TIP3    H137918   6.193   4.715   4.372 -1.3157  0.9377  0.1832
 5501TIP3    H237919   6.170   4.697   4.223 -1.2174 -0.2738  0.3054
 5502TIP3   OH237920   5.767   3.312  14.773 -0.1583 -0.7501  0.2583
 5502TIP3    H137921   5.770   3.350  14.685 -0.4961  0.7215  0.8578
 5502TIP3    H237922   5.855   3.279  14.788  0.9921  2.2255  0.7092
 5503TIP3   OH237923   2.316   4.032   3.316  0.2409  0.4474 -0.4383
 5503TIP3    H137924   2.407   4.038   3.287 -0.8013  0.3444 -4.1981
 5503TIP3    H237925   2.285   4.123   3.317  0.0777  0.3901 -0.2813
 5504TIP3   OH237926   0.816   2.039   3.243  0.1572  0.6731  0.1616
 5504TIP3    H137927   0.734   2.045   3.291  0.3139  1.2309  0.3684
 5504TIP3    H237928   0.807   2.103   3.171  0.7430  1.3789  0.7011
 5505TIP3   OH237929   3.219   2.265  15.136  0.1402 -1.0335  0.2404
 5505TIP3    H137930   3.303   2.311  15.149 -0.1547  0.1338 -1.5264
 5505TIP3    H237931   3.237   2.175  15.160  1.5355 -0.5332  1.1976
 5506TIP3   OH237932   2.748   6.171   4.739 -0.6549 -0.1242  0.3664
 5506TIP3    H137933   2.828   6.141   4.783  0.0949  0.5010 -0.5455
 5506TIP3    H237934   2.688   6.189   4.811  0.7909  1.5735  1.2240
 5507TIP3   OH237935   5.395   0.455   4.437  0.2164 -0.6788 -0.2074
 5507TIP3    H137936   5.378   0.548   4.446 -1.3407 -0.9224 -0.3319
 5507TIP3    H237937   5.389   0.420   4.526 -0.3345 -0.8079 -0.2854
 5508TIP3   OH237938   6.401   6.077   3.709 -0.1871  0.3896 -0.2008
 5508TIP3    H137939   6.418   6.154   3.764 -0.3880  0.4281 -0.1919
 5508TIP3    H237940   6.396   6.005   3.771  0.5464  0.2790 -0.2561
 5509TIP3   OH237941   4.607   6.454   3.386 -0.4971  0.0835 -0.1325
 5509TIP3    H137942   4.542   6.413   3.328 -1.4226 -0.3923  1.2055
 5509TIP3    H237943   4.557   6.517   3.437  0.2732  0.3645  0.2874
 5510TIP3   OH237944   0.944   3.162  15.083 -0.1319 -0.0266 -0.1262
 5510TIP3    H137945   0.941   3.072  15.113 -1.7452 -0.3249 -1.0763
 5510TIP3    H237946   0.995   3.159  15.002 -1.2055 -0.3256 -0.8159
 5511TIP3   OH237947   2.172   3.746  15.631  0.5372 -0.1708 -0.1193
 5511TIP3    H137948   2.209   3.667  15.592  1.0623  0.1103 -0.2070
 5511TIP3    H237949   2.211   3.749  15.719 -0.2049 -0.5038  0.2278
 5512TIP3   OH237950   6.451   1.035   3.953  0.7242 -0.0873 -0.3377
 5512TIP3    H137951   6.442   1.050   3.859  0.5933 -0.9887 -0.4817
 5512TIP3    H237952   6.427   0.943   3.965  2.0746 -0.3683  0.3813
 5513TIP3   OH237953   6.718   4.121   0.748 -0.1506 -0.2622 -0.2463
 5513TIP3    H137954   6.746   4.135   0.838 -0.2539  0.1243 -0.2726
 5513TIP3    H237955   6.800   4.122   0.697 -0.2276  1.5886 -0.4183
 5514TIP3   OH237956   3.102   0.750  13.134  0.1686 -0.1934 -0.4039
 5514TIP3    H137957   3.182   0.777  13.179  0.6340  0.6554 -1.6681
 5514TIP3    H237958   3.061   0.686  13.192  0.7573  0.8089  1.1649
 5515TIP3   OH237959   5.118   5.832  12.017  0.5860 -0.2967  0.1364
 5515TIP3    H137960   5.191   5.873  11.971  1.1696 -0.1701  1.1509
 5515TIP3    H237961   5.159   5.767  12.073 -0.1069 -0.3682  0.5710
 5516TIP3   OH237962   0.549   1.020   0.397  0.2057  0.3188  0.2373
 5516TIP3    H137963   0.499   0.940   0.407  0.9495 -0.1139  0.6117
 5516TIP3    H237964   0.633   0.992   0.361  0.2256  1.0124 -0.2790
 5517TIP3   OH237965   5.615   4.306  10.428 -0.0845  0.5217 -0.3022
 5517TIP3    H137966   5.538   4.297  10.484 -0.1285 -2.0202 -0.6782
 5517TIP3    H237967   5.603   4.241  10.359  3.3110 -1.5318  0.7855
 5518TIP3   OH237968   3.859   2.562   0.018 -0.5022  0.0176  0.2735
 5518TIP3    H137969   3.844   2.604   0.103 -0.8132 -1.9596  1.2567
 5518TIP3    H237970   3.797   2.489   0.017  1.1251 -1.4147 -0.6285
 5519TIP3   OH237971   2.807   5.091   0.770 -0.2443 -0.0939 -0.2377
 5519TIP3    H137972   2.714   5.108   0.786 -0.3499 -1.6255  0.9848
 5519TIP3    H237973   2.827   5.014   0.822  1.8155  0.3913 -0.2130
 5520TIP3   OH237974   5.537   1.854   5.255 -0.6375  0.9224 -0.3826
 5520TIP3    H137975   5.480   1.794   5.303  2.5262  0.8895  3.9119
 5520TIP3    H237976   5.495   1.939   5.264 -1.4763  0.4837 -0.0144
 5521TIP3   OH237977   2.082   3.545  11.403  0.1676 -0.7085  0.2947
 5521TIP3    H137978   2.145   3.532  11.474 -0.7195  0.7323  1.4142
 5521TIP3    H237979   2.121   3.501  11.327  1.8374 -1.0294  1.2888
 5522TIP3   OH237980   5.544   1.209  17.357  0.1531 -0.0429 -0.3500
 5522TIP3    H137981   5.574   1.164  17.436  0.7666 -2.2004 -1.7278
 5522TIP3    H237982   5.624   1.240  17.315  0.1044 -1.5067 -1.5753
 5523TIP3   OH237983   4.806   0.497  17.124 -0.1206 -0.7913 -0.1192
 5523TIP3    H137984   4.884   0.483  17.177 -0.0106  1.9565  0.5776
 5523TIP3    H237985   4.827   0.457  17.040  0.0736 -4.4143  1.4600
 5524TIP3   OH237986   1.096   2.555  12.964 -0.2782 -0.1703  0.1935
 5524TIP3    H137987   1.058   2.468  12.953  0.4070 -0.4637  0.0922
 5524TIP3    H237988   1.162   2.544  13.033 -0.2016  0.2740  0.1997
 5525TIP3   OH237989   2.501   1.885  15.268 -0.3600 -0.2552 -0.7088
 5525TIP3    H137990   2.587   1.877  15.308 -1.1434 -1.6082  0.8492
 5525TIP3    H237991   2.497   1.975  15.236  1.2823  0.0947 -0.0067
 5526TIP3   OH237992   3.895   4.837  13.149 -0.2548 -0.2658  0.1265
 5526TIP3    H137993   3.849   4.778  13.209 -0.6027 -0.1269 -0.0029
 5526TIP3    H237994   3.826   4.884  13.104  0.0266  0.8605  0.8418
 5527TIP3   OH237995   3.655   1.976  12.418  0.1060  0.1567  0.4130
 5527TIP3    H137996   3.663   2.071  12.428  2.5910  0.2364 -1.4580
 5527TIP3    H237997   3.640   1.963  12.325 -1.0537 -1.2997  0.7655
 5528TIP3   OH237998   2.894   4.504   0.100 -0.0079  0.4713  0.2800
 5528TIP3    H137999   2.969   4.459   0.139  0.2256 -1.1378 -1.8408
 5528TIP3    H238000   2.835   4.433   0.075 -1.1537  1.5863 -0.2552
 5529TIP3   OH238001   6.392   5.519   5.562 -0.0440  0.3783 -0.2428
 5529TIP3    H138002   6.421   5.596   5.511 -2.3758  1.5440  0.0756
 5529TIP3    H238003   6.439   5.527   5.645 -0.2308  1.4540 -0.2223
 5530TIP3   OH238004   1.229   0.229   3.612 -0.0574  0.8663 -0.2630
 5530TIP3    H138005   1.147   0.213   3.658  0.1948 -1.9775 -0.6200
 5530TIP3    H238006   1.295   0.230   3.681 -0.1451  0.9159 -0.1796
 5531TIP3   OH238007   4.227   0.344  11.558  0.0411  0.5036  0.1595
 5531TIP3    H138008   4.155   0.311  11.505 -1.2823 -0.5236  2.4425
 5531TIP3    H238009   4.299   0.283  11.542 -1.0653 -1.1378  1.2061
 5532TIP3   OH238010   0.831   4.559   5.865  0.1934  0.5308 -0.4094
 5532TIP3    H138011   0.912   4.507   5.865  0.3600  0.7449 -1.7710
 5532TIP3    H238012   0.861   4.649   5.879 -0.0142  0.4052  1.0343
 5533TIP3   OH238013   3.194   1.019  11.248 -0.1205  0.3635 -0.2897
 5533TIP3    H138014   3.138   0.977  11.312 -2.0052  1.4238 -1.1342
 5533TIP3    H238015   3.139   1.088  11.210  1.8436  1.6154 -1.0375
 5534TIP3   OH238016   5.799   3.829   2.110 -0.3404 -0.0640  0.1537
 5534TIP3    H138017   5.792   3.798   2.020 -2.4038 -0.7530  0.4960
 5534TIP3    H238018   5.805   3.924   2.102 -0.1182 -0.1466 -0.7304
 5535TIP3   OH238019   4.391   3.611   2.922 -0.4323  0.1356 -0.1253
 5535TIP3    H138020   4.403   3.683   2.984 -0.6406 -0.2662  0.3822
 5535TIP3    H238021   4.470   3.613   2.868  0.4779 -0.4699  1.1391
 5536TIP3   OH238022   1.686   4.320  12.031  0.4344 -0.0016  0.2999
 5536TIP3    H138023   1.631   4.300  11.955  1.0910 -1.6098  0.2063
 5536TIP3    H238024   1.770   4.348  11.993 -0.3548  2.8397  0.4329
 5537TIP3   OH238025   2.551   5.845  16.938 -0.6748  0.4243 -0.6644
 5537TIP3    H138026   2.531   5.932  16.904 -1.2687  0.5711  0.0110
 5537TIP3    H238027   2.641   5.851  16.971 -0.5478  0.6416 -1.0544
 5538TIP3   OH238028   1.418   5.560   3.482 -0.4009  0.1197  0.0346
 5538TIP3    H138029   1.396   5.509   3.404  0.8242 -1.9310  0.9341
 5538TIP3    H238030   1.337   5.565   3.533 -0.6597 -0.5043 -0.3147
 5539TIP3   OH238031   3.900   1.447  16.045 -0.4613 -0.3515  0.1166
 5539TIP3    H138032   3.920   1.353  16.052 -0.1544 -0.2047  1.4611
 5539TIP3    H238033   3.928   1.484  16.129 -1.9666  0.6921  0.1934
 5540TIP3   OH238034   3.846   1.231   4.200  0.4082 -0.3501  0.0002
 5540TIP3    H138035   3.800   1.241   4.117  1.2485 -0.0164 -0.4343
 5540TIP3    H238036   3.860   1.137   4.208 -1.0241 -0.5497  0.5279
 5541TIP3   OH238037   1.498   5.818  17.252  0.2464 -0.0709 -0.4408
 5541TIP3    H138038   1.468   5.743  17.303  0.6520  0.8905  1.2914
 5541TIP3    H238039   1.568   5.857  17.305 -1.2423  2.6736 -0.3061
 5542TIP3   OH238040   6.595   2.839  16.107  0.7146  0.8173 -0.3606
 5542TIP3    H138041   6.648   2.810  16.181 -0.9078  1.0129  0.9318
 5542TIP3    H238042   6.589   2.762  16.051  1.9518  0.6594 -0.3116
 5543TIP3   OH238043   4.793   1.857   4.283  0.6819 -0.2038  0.9543
 5543TIP3    H138044   4.871   1.910   4.300 -0.0637  1.4236 -0.2904
 5543TIP3    H238045   4.732   1.883   4.351  0.1215  1.0578  0.0286
 5544TIP3   OH238046   4.501   3.956   0.718 -0.0150 -0.1994 -0.3151
 5544TIP3    H138047   4.596   3.943   0.708 -0.2492 -0.7401 -2.2443
 5544TIP3    H238048   4.490   3.984   0.809  2.1409  1.1969 -0.4026
 5545TIP3   OH238049   0.342   0.733  12.880 -0.0418  0.9226 -0.2478
 5545TIP3    H138050   0.256   0.771  12.862 -0.3445  0.8468  0.9202
 5545TIP3    H238051   0.323   0.650  12.922  0.6105  0.6678 -0.4423
 5546TIP3   OH238052   6.650   6.726  12.341  0.3010 -0.7489 -0.0880
 5546TIP3    H138053   6.587   6.796  12.360 -0.8087 -1.8896  0.5549
 5546TIP3    H238054   6.617   6.650  12.390  2.1376 -1.4044  0.1920
 5547TIP3   OH238055   2.999   6.266  13.549 -0.2582  0.0771 -0.4613
 5547TIP3    H138056   2.936   6.210  13.504  0.4954 -0.3005 -1.0846
 5547TIP3    H238057   3.005   6.344  13.494  0.3397 -0.1969 -0.7974
 5548TIP3   OH238058   0.588   2.576   6.481  0.1454 -0.1783 -0.2663
 5548TIP3    H138059   0.634   2.628   6.415  0.2224  0.4090  0.2375
 5548TIP3    H238060   0.499   2.570   6.449  0.2350 -0.0833 -0.5371
 5549TIP3   OH238061   4.566   3.618  15.146 -0.3208 -0.0057  0.0798
 5549TIP3    H138062   4.554   3.698  15.197 -0.4085 -0.4993  0.8462
 5549TIP3    H238063   4.478   3.580  15.141 -0.0080 -0.9388  1.2214
 5550TIP3   OH238064   4.645   2.315  15.521  0.6803 -0.6605 -0.0335
 5550TIP3    H138065   4.672   2.404  15.542  1.7911 -0.9914  0.0423
 5550TIP3    H238066   4.586   2.324  15.446  2.1219  0.0440 -1.1467
 5551TIP3   OH238067   4.467   3.393  14.897 -0.0284  0.3638 -0.0766
 5551TIP3    H138068   4.416   3.447  14.958  2.9549  1.6600  1.4499
 5551TIP3    H238069   4.423   3.407  14.812 -2.4388  0.9912  1.1664
 5552TIP3   OH238070   6.686   5.330   2.284  0.3699 -0.2556  0.0604
 5552TIP3    H138071   6.662   5.312   2.375 -1.6038  0.2252 -0.3178
 5552TIP3    H238072   6.677   5.245   2.240  0.9901 -0.4160  0.2327
 5553TIP3   OH238073   4.277   4.270  15.897 -0.1348  0.7065  0.1989
 5553TIP3    H138074   4.360   4.284  15.852 -0.0158 -0.6216 -0.0608
 5553TIP3    H238075   4.210   4.293  15.833  0.0403 -0.6310 -0.5103
 5554TIP3   OH238076   0.637   4.760  16.054  0.0462  0.3075  0.0018
 5554TIP3    H138077   0.703   4.818  16.016  0.2360  0.8099  1.0666
 5554TIP3    H238078   0.560   4.815  16.065 -0.6050 -0.2906 -1.2952
 5555TIP3   OH238079   2.146   0.687   0.233  0.3741  0.6609  0.4890
 5555TIP3    H138080   2.169   0.597   0.256 -0.2833  0.4499  0.3389
 5555TIP3    H238081   2.199   0.707   0.157 -0.4869 -0.0992 -0.3369
 5556TIP3   OH238082   0.910   5.832   0.136  0.2834  0.0489 -0.2763
 5556TIP3    H138083   0.912   5.926   0.118 -0.2645  0.5183  1.8550
 5556TIP3    H238084   0.948   5.792   0.057  0.5911  2.0369 -1.2056
 5557TIP3   OH238085   6.169   3.161   3.209 -0.9132  0.1327  0.0165
 5557TIP3    H138086   6.260   3.159   3.180  0.0456  2.4903  2.4537
 5557TIP3    H238087   6.122   3.206   3.140  0.1204  0.4807 -0.4697
 5558TIP3   OH238088   3.239   0.313   4.388 -0.0439  0.5302  0.2365
 5558TIP3    H138089   3.311   0.372   4.364  0.9256 -1.2980 -1.6869
 5558TIP3    H238090   3.267   0.274   4.471  1.2595 -0.1803 -0.5016
 5559TIP3   OH238091   5.994   4.765   4.606  0.6064  0.0242 -0.2252
 5559TIP3    H138092   6.054   4.809   4.546 -1.2300  0.9551 -1.4933
 5559TIP3    H238093   5.964   4.688   4.557 -1.3045  1.0684 -0.7983
 5560TIP3   OH238094   2.173   1.204   5.970 -0.3639 -0.3548 -0.6478
 5560TIP3    H138095   2.174   1.109   5.980 -1.7730 -0.4074 -0.7870
 5560TIP3    H238096   2.131   1.237   6.049  0.6751  0.2209 -0.3085
 5561TIP3   OH238097   5.032   2.001   2.499  0.2489  0.3048  0.0896
 5561TIP3    H138098   5.008   1.988   2.590 -0.2271 -1.2999 -0.2362
 5561TIP3    H238099   5.116   2.048   2.502 -1.0004  2.6373  1.2804
 5562TIP3   OH238100   0.396   1.420   3.233 -0.5919 -0.3030 -0.5439
 5562TIP3    H138101   0.411   1.515   3.228  0.8010 -0.5537 -1.5434
 5562TIP3    H238102   0.401   1.400   3.326 -1.6901  0.7051 -0.2367
 5563TIP3   OH238103   6.153   5.231   3.043  0.2929  0.3967 -0.3545
 5563TIP3    H138104   6.196   5.161   3.092  1.3161  2.1601  1.4062
 5563TIP3    H238105   6.224   5.284   3.009 -0.4038  1.9384  0.4453
 5564TIP3   OH238106   3.798   4.411   0.526  0.4095 -0.9303 -0.8166
 5564TIP3    H138107   3.891   4.408   0.506  0.6340  0.5356 -0.1629
 5564TIP3    H238108   3.763   4.480   0.470  0.2648  0.3413  0.7399
 5565TIP3   OH238109   1.182   5.732  12.652 -0.2250  0.0006  0.1571
 5565TIP3    H138110   1.096   5.690  12.651 -0.8275  1.1276  1.2917
 5565TIP3    H238111   1.209   5.730  12.744 -0.0956  1.6721  0.2007
 5566TIP3   OH238112   6.293   3.375  17.354 -0.1171 -0.3133 -0.3619
 5566TIP3    H138113   6.208   3.348  17.389 -1.0023 -0.5179 -2.4699
 5566TIP3    H238114   6.313   3.457  17.399 -1.9591  0.2897 -0.5514
 5567TIP3   OH238115   3.894   0.371  14.282  0.1102 -0.0702  0.4815
 5567TIP3    H138116   3.839   0.445  14.255  0.0769 -0.6451 -1.1050
 5567TIP3    H238117   3.984   0.405  14.276  0.0527  0.1578  0.8318
 5568TIP3   OH238118   4.623   5.436   5.378 -0.1837 -0.4103  0.5710
 5568TIP3    H138119   4.664   5.522   5.373 -0.6129 -0.2137  0.3824
 5568TIP3    H238120   4.558   5.445   5.448 -1.0560 -0.2189 -0.2345
 5569TIP3   OH238121   3.008   4.243  17.354 -0.4053 -0.5509 -0.3926
 5569TIP3    H138122   3.038   4.158  17.321  2.7585  0.4417 -0.4310
 5569TIP3    H238123   3.056   4.307  17.301 -1.8726  1.2556  0.3626
 5570TIP3   OH238124   3.129   6.383   5.235  0.0279 -0.5174 -0.1427
 5570TIP3    H138125   3.143   6.378   5.140  0.4401 -0.2471 -0.0965
 5570TIP3    H238126   3.122   6.477   5.253  1.0798 -0.5074  0.2580
 5571TIP3   OH238127   1.077   6.063   6.628  0.6618 -0.5252 -0.0479
 5571TIP3    H138128   1.138   6.130   6.598 -1.5268  1.7908  0.2967
 5571TIP3    H238129   1.025   6.107   6.695 -2.6924 -1.6705 -1.6808
 5572TIP3   OH238130   6.272   1.753  16.081 -0.9786  0.3342 -0.2651
 5572TIP3    H138131   6.238   1.739  15.993 -0.1879  0.6530 -0.6297
 5572TIP3    H238132   6.348   1.810  16.069 -0.2873 -0.3866  0.5191
 5573TIP3   OH238133   5.395   4.116   1.521 -0.1980  0.6686 -0.2064
 5573TIP3    H138134   5.334   4.190   1.516  0.7779  1.4237 -1.3189
 5573TIP3    H238135   5.441   4.128   1.604 -1.5317  0.0783  0.6588
 5574TIP3   OH238136   3.574   2.773   0.577 -0.1098 -1.1188 -0.2201
 5574TIP3    H138137   3.667   2.791   0.564 -0.4787  2.0753  0.6620
 5574TIP3    H238138   3.565   2.763   0.672 -1.0050  1.8423  0.1054
 5575TIP3   OH238139   6.613   4.274  15.359  0.1547  0.3048  0.6769
 5575TIP3    H138140   6.669   4.205  15.394 -0.1845  0.5220  1.6843
 5575TIP3    H238141   6.569   4.233  15.283 -0.5581 -0.8259  1.6557
 5576TIP3   OH238142   5.094   2.535  15.579  0.2429  0.3583 -0.2968
 5576TIP3    H138143   5.141   2.618  15.569 -0.3856  0.6885 -0.5355
 5576TIP3    H238144   5.086   2.502  15.489  0.5945 -0.0252 -0.1927
 5577TIP3   OH238145   1.011   5.769   1.774 -0.2197  0.3879  0.0264
 5577TIP3    H138146   0.956   5.758   1.851  2.5448  2.3697  2.4977
 5577TIP3    H238147   1.040   5.680   1.752 -1.0572 -0.2205  1.2779
 5578TIP3   OH238148   0.767   5.768  16.965 -0.1063  0.1339  0.0033
 5578TIP3    H138149   0.755   5.862  16.974  1.5769  0.2090  2.4510
 5578TIP3    H238150   0.773   5.736  17.055  0.3058 -2.1788 -0.7797
 5579TIP3   OH238151   4.649   0.822   5.129  0.0393 -0.3026  0.3419
 5579TIP3    H138152   4.601   0.898   5.163  0.4912 -0.7968  2.1774
 5579TIP3    H238153   4.592   0.748   5.148 -0.0597 -0.5268 -0.7651
 5580TIP3   OH238154   6.387   2.690  15.330  0.2588  0.1843  0.0537
 5580TIP3    H138155   6.411   2.783  15.336  1.0376  0.0641 -0.8529
 5580TIP3    H238156   6.463   2.649  15.289  0.1499 -0.9574  0.9561
 5581TIP3   OH238157   4.358   6.115   6.095  0.3175 -0.7061 -0.3335
 5581TIP3    H138158   4.287   6.053   6.079 -0.8873  0.4853  0.1989
 5581TIP3    H238159   4.340   6.151   6.182 -0.6853  2.4492 -1.6955
 5582TIP3   OH238160   4.457   2.631  13.442 -0.2870 -0.6808  0.8439
 5582TIP3    H138161   4.493   2.650  13.355  1.9443  1.2722  2.0859
 5582TIP3    H238162   4.397   2.558  13.427  1.0640 -1.3550 -2.1031
 5583TIP3   OH238163   3.126   0.672  15.645  0.1788  0.3401 -0.3362
 5583TIP3    H138164   3.154   0.679  15.553  1.0641 -1.0309 -0.1948
 5583TIP3    H238165   3.200   0.707  15.695 -0.3578  1.2144 -0.1234
 5584TIP3   OH238166   3.050   2.843  16.019  0.0396  0.6370 -0.2257
 5584TIP3    H138167   2.986   2.911  16.041  1.4887  2.0317 -0.1443
 5584TIP3    H238168   3.133   2.890  16.012  1.3134 -1.3252  1.0175
 5585TIP3   OH238169   0.975   0.622   3.131  0.6263 -0.0239 -0.9525
 5585TIP3    H138170   0.881   0.631   3.116  0.5150  1.1612  0.2474
 5585TIP3    H238171   0.986   0.530   3.156 -0.1995 -0.1933 -1.1576
 5586TIP3   OH238172   5.875   0.888  14.395  0.3548  0.1492 -0.1179
 5586TIP3    H138173   5.801   0.830  14.379  1.6848 -1.3365 -1.1509
 5586TIP3    H238174   5.928   0.882  14.316  2.3516 -0.0189  1.1779
 5587TIP3   OH238175   6.234   0.251   6.385 -0.4670  0.1015  0.5999
 5587TIP3    H138176   6.149   0.206   6.384 -0.4745  0.1096 -0.9601
 5587TIP3    H238177   6.213   0.340   6.413 -1.2366  0.5482 -1.2885
 5588TIP3   OH238178   3.794   0.654  12.855  0.3377 -0.0555  0.1559
 5588TIP3    H138179   3.723   0.707  12.891  0.9440 -0.2858  1.8033
 5588TIP3    H238180   3.779   0.654  12.760 -1.8143 -0.0596  0.4422
 5589TIP3   OH238181   3.973   2.822   1.817 -0.1272  0.1914 -0.1709
 5589TIP3    H138182   3.880   2.838   1.832 -1.1881 -3.1063 -2.1414
 5589TIP3    H238183   3.980   2.806   1.723  1.8957 -2.2219  0.2789
 5590TIP3   OH238184   6.263   0.728   1.055  0.0239 -0.9497  0.1598
 5590TIP3    H138185   6.286   0.813   1.017  1.0410 -1.8860 -1.4923
 5590TIP3    H238186   6.179   0.706   1.015  0.0611 -0.9908  0.1040
 5591TIP3   OH238187   6.557   1.193   2.163 -0.1050  0.7963 -0.5570
 5591TIP3    H138188   6.574   1.247   2.240  2.0157  0.3061 -0.6182
 5591TIP3    H238189   6.471   1.223   2.131 -0.1628  2.3143  0.8659
 5592TIP3   OH238190   3.119   3.223   1.937 -0.2311 -0.4666 -0.6761
 5592TIP3    H138191   3.186   3.155   1.944  0.9475  0.6022 -1.0758
 5592TIP3    H238192   3.112   3.258   2.026  0.4345  0.0247 -0.8049
 5593TIP3   OH238193   4.529   2.455  11.237 -0.1511 -0.1835  0.1886
 5593TIP3    H138194   4.469   2.403  11.291 -0.6337 -1.6578 -1.6563
 5593TIP3    H238195   4.543   2.402  11.159  1.4540  1.3417 -0.6334
 5594TIP3   OH238196   3.785   6.098   5.619 -0.2961  0.1418 -0.3940
 5594TIP3    H138197   3.864   6.062   5.580 -0.8018 -1.8578  0.2993
 5594TIP3    H238198   3.775   6.185   5.580  0.7647 -0.6353 -2.4905
 5595TIP3   OH238199   4.158   5.771  14.192 -0.2876 -0.0082  0.1278
 5595TIP3    H138200   4.208   5.691  14.209 -0.8996 -0.4491 -0.0637
 5595TIP3    H238201   4.195   5.806  14.111  1.2023  0.9185  1.1896
 5596TIP3   OH238202   2.058   0.907   4.829  0.2856 -0.5295  0.0844
 5596TIP3    H138203   2.062   0.823   4.784 -1.0659 -1.0032  0.7904
 5596TIP3    H238204   2.126   0.902   4.896  1.3102 -0.3947 -0.9126
 5597TIP3   OH238205   1.472   0.535   1.635  0.1950  0.4433 -0.4111
 5597TIP3    H138206   1.444   0.452   1.674 -1.2993  1.1718  0.1553
 5597TIP3    H238207   1.479   0.515   1.541  0.8104 -0.5590 -0.1638
 5598TIP3   OH238208   4.100   0.193  16.180 -1.1851  0.2235  0.6121
 5598TIP3    H138209   4.031   0.182  16.246 -0.7985  0.2095  1.0253
 5598TIP3    H238210   4.079   0.275  16.136 -2.1362 -0.3856 -0.0959
 5599TIP3   OH238211   2.350   5.899  11.420 -0.2341  0.1147 -0.0421
 5599TIP3    H138212   2.343   5.876  11.513  1.4016  0.4111  0.1888
 5599TIP3    H238213   2.329   5.819  11.373 -1.3402  0.0289  0.5591
 5600TIP3   OH238214   4.480   2.495   3.137  0.0417 -0.6422  0.1519
 5600TIP3    H138215   4.404   2.465   3.188 -0.7656 -0.2768 -0.8036
 5600TIP3    H238216   4.447   2.568   3.085  1.3953  0.4020  0.7092
 5601TIP3   OH238217   5.738   3.138   5.727 -0.1334  0.0802 -0.5961
 5601TIP3    H138218   5.647   3.167   5.739 -0.3495 -0.0935 -1.6649
 5601TIP3    H238219   5.789   3.219   5.728 -0.1429  0.1008  1.0859
 5602TIP3   OH238220   5.809   3.813  14.831  0.0076 -0.2755 -0.3919
 5602TIP3    H138221   5.897   3.777  14.827 -0.4309 -1.5975  1.1886
 5602TIP3    H238222   5.753   3.739  14.853 -1.3680  0.7577 -0.2798
 5603TIP3   OH238223   5.287   0.212  16.341  0.6009  0.1367 -0.4312
 5603TIP3    H138224   5.269   0.136  16.286 -0.0597 -1.7003  2.1541
 5603TIP3    H238225   5.282   0.179  16.431  1.2002  3.0579  0.7965
 5604TIP3   OH238226   5.844   5.589  16.029 -0.0574 -0.3661 -0.1963
 5604TIP3    H138227   5.929   5.576  15.987 -0.7676 -1.9723 -1.2242
 5604TIP3    H238228   5.791   5.635  15.963 -0.1322  0.2567  0.2840
 5605TIP3   OH238229   4.526   1.019   1.897 -0.0814 -0.1195  0.2345
 5605TIP3    H138230   4.529   0.931   1.859 -3.2288  0.3332 -1.4142
 5605TIP3    H238231   4.554   1.007   1.987  0.6701 -2.5873 -0.2413
 5606TIP3   OH238232   5.532   1.529  16.437  0.2903  0.0281 -0.5424
 5606TIP3    H138233   5.504   1.500  16.351  1.3790  0.1285 -0.9409
 5606TIP3    H238234   5.555   1.449  16.484 -0.3613 -0.0315 -0.3114
 5607TIP3   OH238235   2.316   4.906  15.221  0.1690 -0.3647 -0.1132
 5607TIP3    H138236   2.368   4.877  15.146  0.1315  2.0391 -1.1578
 5607TIP3    H238237   2.243   4.955  15.182 -2.7164 -3.1409  1.2982
 5608TIP3   OH238238   6.338   2.800   3.204  0.5569 -0.0527 -0.5690
 5608TIP3    H138239   6.287   2.865   3.154  0.2766 -0.3925 -0.7272
 5608TIP3    H238240   6.378   2.745   3.137  0.2094 -0.4861 -0.4263
 5609TIP3   OH238241   0.609   0.676   4.713 -0.1506  0.4352 -0.0366
 5609TIP3    H138242   0.674   0.606   4.701 -0.5003  0.2367 -0.8134
 5609TIP3    H238243   0.585   0.670   4.806  0.8514  0.4395  0.2326
 5610TIP3   OH238244   4.927   5.277  11.438  0.4205 -0.1393  0.1487
 5610TIP3    H138245   4.930   5.351  11.377  0.3989  0.2718  0.6447
 5610TIP3    H238246   4.967   5.310  11.518 -1.5300  0.0149  1.1151
 5611TIP3   OH238247   6.670   5.860   2.280  0.3161  0.6168 -0.7037
 5611TIP3    H138248   6.628   5.905   2.207 -0.2138 -1.3121 -1.6490
 5611TIP3    H238249   6.751   5.909   2.295 -1.7921  4.0786  0.7663
 5612TIP3   OH238250   6.180   2.358  14.004 -0.1057  0.2821 -0.0001
 5612TIP3    H138251   6.215   2.270  14.017  0.5408  0.9315  3.6032
 5612TIP3    H238252   6.247   2.416  14.040 -2.1266  1.9755  1.2563
 5613TIP3   OH238253   4.766   1.447  16.671 -0.5802 -0.2806  0.0285
 5613TIP3    H138254   4.768   1.533  16.714  0.3766 -0.3840  0.2192
 5613TIP3    H238255   4.714   1.392  16.730  0.0745 -0.2162  0.6790
 5614TIP3   OH238256   2.638   0.404   3.635  0.5383  1.3726  0.4039
 5614TIP3    H138257   2.699   0.406   3.562 -0.1185 -0.8786 -0.2965
 5614TIP3    H238258   2.693   0.398   3.713  1.2789 -0.6113 -0.2133
 5615TIP3   OH238259   4.598   4.867  16.161  0.0804 -0.2677  0.4047
 5615TIP3    H138260   4.647   4.794  16.198  0.2541 -1.0374 -1.2814
 5615TIP3    H238261   4.596   4.932  16.232  2.9609 -0.4599  0.7922
 5616TIP3   OH238262   4.476   0.900  15.789  0.2051  0.3233  0.4456
 5616TIP3    H138263   4.409   0.833  15.800  1.3639 -0.9226  0.1596
 5616TIP3    H238264   4.442   0.958  15.721  0.0221 -1.1040 -0.7207
 5617TIP3   OH238265   1.742   6.533  14.275  0.0454  0.0564 -0.0112
 5617TIP3    H138266   1.743   6.535  14.370  0.3428  0.9274 -0.0327
 5617TIP3    H238267   1.667   6.586  14.250 -0.7155 -1.0801 -0.2556
 5618TIP3   OH238268   3.969   3.037  11.664  0.1674 -0.1991 -0.6177
 5618TIP3    H138269   3.919   3.023  11.584 -0.2877  3.3484 -1.1316
 5618TIP3    H238270   3.907   3.077  11.725  1.8440  3.2715 -0.8960
 5619TIP3   OH238271   3.382   5.893   6.903  0.8503  0.3008 -0.2432
 5619TIP3    H138272   3.411   5.804   6.884  3.1915  1.0367 -0.3625
 5619TIP3    H238273   3.287   5.890   6.893  0.8442 -2.2261 -0.0134
 5620TIP3   OH238274   2.653   4.629   2.719  0.4997 -0.8390 -0.1630
 5620TIP3    H138275   2.627   4.670   2.637  1.0261  0.4421  0.2770
 5620TIP3    H238276   2.748   4.621   2.713  0.6873  0.3089  0.7380
 5621TIP3   OH238277   2.720   6.105   6.299 -0.1534  0.2827 -0.1441
 5621TIP3    H138278   2.663   6.099   6.376  0.0530  0.0325 -0.0096
 5621TIP3    H238279   2.738   6.014   6.276 -0.2714  0.3546 -0.5325
 5622TIP3   OH238280   0.930   3.279  13.096  0.0401  0.0662  0.4044
 5622TIP3    H138281   0.891   3.359  13.060  0.2139  0.4152  0.9755
 5622TIP3    H238282   0.944   3.299  13.189 -1.1325 -1.0840  0.8540
 5623TIP3   OH238283   3.090   6.748   6.480  0.2864  0.2242  0.2123
 5623TIP3    H138284   3.057   6.659   6.468  0.6442 -0.0937  1.3953
 5623TIP3    H238285   3.185   6.738   6.484  0.3147  0.6102  0.6561
 5624TIP3   OH238286   0.481   5.186   2.391 -0.3569  0.0730 -0.5538
 5624TIP3    H138287   0.522   5.272   2.403 -1.1813  0.2632  1.1757
 5624TIP3    H238288   0.403   5.189   2.446 -1.2116 -1.2710 -1.6269
 5625TIP3   OH238289   3.732   2.563  14.560 -0.4621 -0.2279  0.2150
 5625TIP3    H138290   3.771   2.649  14.579 -0.8156  0.0748 -0.3945
 5625TIP3    H238291   3.641   2.571  14.586 -0.6011 -0.2744 -0.2474
 5626TIP3   OH238292   3.775   6.755   4.312 -0.5050 -0.8731 -0.2849
 5626TIP3    H138293   3.870   6.759   4.299 -0.7372  0.7380 -1.9402
 5626TIP3    H238294   3.763   6.770   4.405  0.8630 -0.9540 -0.0672
 5627TIP3   OH238295   3.687   4.057   3.074  0.1419 -0.6614  0.1092
 5627TIP3    H138296   3.651   3.970   3.058  0.5594 -0.6217 -1.1353
 5627TIP3    H238297   3.778   4.052   3.043 -0.0979  0.4588 -0.8740
 5628TIP3   OH238298   0.368   4.879  12.762 -0.2058 -0.2949 -0.7192
 5628TIP3    H138299   0.430   4.808  12.779 -1.4595 -0.5901  3.7167
 5628TIP3    H238300   0.291   4.836  12.725  0.0711 -0.7944 -0.7179
 5629TIP3   OH238301   0.093   3.605   4.686  0.1898  0.4195  0.1322
 5629TIP3    H138302   0.163   3.567   4.739 -0.3788 -1.7140 -0.5293
 5629TIP3    H238303   0.018   3.548   4.702  0.1573 -0.7299 -3.3648
 5630TIP3   OH238304   4.087   2.676  14.687  0.3033  0.1506  0.4485
 5630TIP3    H138305   4.016   2.719  14.734 -0.2833 -0.7111  0.3637
 5630TIP3    H238306   4.102   2.594  14.735  0.1522 -0.4199 -0.4449
 5631TIP3   OH238307   2.398   3.517   2.397  0.3624 -0.0640  0.2159
 5631TIP3    H138308   2.331   3.450   2.411  0.8420 -0.4903  0.5116
 5631TIP3    H238309   2.362   3.596   2.436  1.1408 -0.9247  2.8289
 5632TIP3   OH238310   4.352   3.081   5.097 -0.0069 -0.7913  1.0994
 5632TIP3    H138311   4.319   3.006   5.047  2.3407 -1.5301  0.5287
 5632TIP3    H238312   4.277   3.140   5.105 -0.5130 -0.4259 -3.6559
 5633TIP3   OH238313   1.774   2.914  11.520 -0.0567  0.0444 -0.0083
 5633TIP3    H138314   1.822   2.920  11.603 -0.6609  0.9031  0.2913
 5633TIP3    H238315   1.684   2.936  11.543 -0.4358 -0.6902 -0.7241
 5634TIP3   OH238316   1.413   4.610   4.667 -0.2169  0.1311  0.3817
 5634TIP3    H138317   1.325   4.596   4.631 -0.5436 -1.6647  1.7509
 5634TIP3    H238318   1.469   4.549   4.619 -0.2512 -0.6883  1.3491
 5635TIP3   OH238319   1.687   6.147   5.699  0.5174  0.6468  0.5701
 5635TIP3    H138320   1.628   6.141   5.624  3.1789 -1.2014 -1.5603
 5635TIP3    H238321   1.760   6.201   5.668  1.0929  0.9338  2.3036
 5636TIP3   OH238322   4.727   1.315   2.469 -0.6053  0.1329  0.4651
 5636TIP3    H138323   4.716   1.337   2.562 -0.1474  1.5561  0.2120
 5636TIP3    H238324   4.820   1.294   2.461 -0.6253  0.1086  0.3033
 5637TIP3   OH238325   0.817   1.989   0.848  0.3167  0.0365  0.3276
 5637TIP3    H138326   0.836   1.911   0.797 -2.2973 -0.3283 -0.2586
 5637TIP3    H238327   0.795   2.056   0.783 -1.4600  0.0290  0.8424
 5638TIP3   OH238328   0.023   6.198   0.613 -0.9502 -0.1677 -0.7363
 5638TIP3    H138329   0.017   6.210   0.708  1.4602  1.5336 -0.7225
 5638TIP3    H238330  -0.055   6.148   0.590 -0.5742 -2.5178  2.4397
 5639TIP3   OH238331   3.120   4.698   5.911  0.2627 -0.5700 -0.0105
 5639TIP3    H138332   3.153   4.612   5.886  2.7089  0.8823 -2.4992
 5639TIP3    H238333   3.052   4.717   5.847  0.3410 -0.3288 -0.0239
 5640TIP3   OH238334   6.484   6.378   2.804 -0.0595 -0.5002 -0.0046
 5640TIP3    H138335   6.428   6.416   2.872 -0.2538  0.0784 -0.4749
 5640TIP3    H238336   6.493   6.286   2.828  0.3656 -0.1760  1.1245
 5641TIP3   OH238337   1.839   0.088   2.604  0.4757  0.0774  0.4838
 5641TIP3    H138338   1.893   0.167   2.602  0.0139  0.3910  0.3798
 5641TIP3    H238339   1.816   0.072   2.512 -0.3015  0.4255  0.6098
 5642TIP3   OH238340   2.204   2.000  16.318  0.4294  0.1740  0.4332
 5642TIP3    H138341   2.155   2.081  16.309  0.6185  0.3096  0.5912
 5642TIP3    H238342   2.139   1.934  16.342  0.6015  0.7986  2.8807
 5643TIP3   OH238343   0.477   3.177  13.897 -0.0289  0.1032  0.0418
 5643TIP3    H138344   0.506   3.101  13.847  2.5985  0.4254  0.9404
 5643TIP3    H238345   0.440   3.141  13.977 -0.8472 -0.2730 -0.4917
 5644TIP3   OH238346   6.474   1.141  13.185 -0.4862 -0.1852 -0.4255
 5644TIP3    H138347   6.550   1.171  13.134  0.4691  0.5059  1.3356
 5644TIP3    H238348   6.512   1.085  13.253 -1.4999  0.5624  0.7798
 5645TIP3   OH238349   4.803   4.117  12.401  0.8038  0.1402  0.8692
 5645TIP3    H138350   4.816   4.212  12.394 -0.1063  0.1741 -0.7699
 5645TIP3    H238351   4.815   4.098  12.494 -0.7434  2.1382  1.5318
 5646TIP3   OH238352   5.429   4.396   5.429 -0.1217 -0.5793 -0.5975
 5646TIP3    H138353   5.369   4.444   5.371 -1.7281 -2.1191 -0.2865
 5646TIP3    H238354   5.487   4.348   5.369 -0.1203 -0.2005 -0.9061
 5647TIP3   OH238355   6.144   2.719  13.955 -0.0520  0.1365 -0.2007
 5647TIP3    H138356   6.075   2.785  13.944  0.4464  0.6094 -0.4948
 5647TIP3    H238357   6.222   2.770  13.976  0.1956 -0.4058  0.1954
 5648TIP3   OH238358   2.406   1.092  17.371 -0.0618 -0.3784 -0.0222
 5648TIP3    H138359   2.441   1.121  17.287  0.5205  0.7551  0.5679
 5648TIP3    H238360   2.464   1.134  17.436 -0.4250 -1.3082  0.9403
 5649TIP3   OH238361   3.933   5.155  13.091  0.5350  0.6132  0.2695
 5649TIP3    H138362   3.988   5.083  13.123  1.9159  1.8523  0.8433
 5649TIP3    H238363   3.951   5.160  12.997  0.4824  0.2555  0.2400
 5650TIP3   OH238364   1.733   1.202  14.996 -0.4423 -0.1113  0.2374
 5650TIP3    H138365   1.817   1.245  15.012 -0.4667  0.5013 -1.0841
 5650TIP3    H238366   1.749   1.148  14.918 -0.7304 -1.6151  1.1849
 5651TIP3   OH238367   0.585   5.235   1.313  0.6863  0.4990  0.1117
 5651TIP3    H138368   0.587   5.331   1.316  0.5149  0.4852  1.2799
 5651TIP3    H238369   0.668   5.209   1.354  0.1179  0.1589  1.0838
 5652TIP3   OH238370   2.476   3.795   4.243 -0.3578  0.1175  0.4764
 5652TIP3    H138371   2.423   3.719   4.220 -0.1846 -0.1812  1.0504
 5652TIP3    H238372   2.558   3.782   4.196 -0.5083  0.2069  0.1815
 5653TIP3   OH238373   2.187   5.416  16.275 -0.3904  0.3719 -0.1766
 5653TIP3    H138374   2.100   5.450  16.256 -0.8973 -0.4598  0.6140
 5653TIP3    H238375   2.196   5.422  16.370  0.7259  1.1506 -0.2991
 5654TIP3   OH238376   4.080   5.497  17.080  0.4623  0.2270  0.0721
 5654TIP3    H138377   4.111   5.585  17.101 -0.1792  0.4183  0.2408
 5654TIP3    H238378   4.050   5.503  16.990 -2.4199  1.0255  0.9577
 5655TIP3   OH238379   2.853   2.630  14.970  0.2432 -0.5363  0.3633
 5655TIP3    H138380   2.840   2.704  15.028  1.3409  1.3882 -1.6849
 5655TIP3    H238381   2.928   2.583  15.008  0.9977  0.7293  0.5006
 5656TIP3   OH238382   0.876   6.063  10.992 -0.6673 -0.0004 -0.2702
 5656TIP3    H138383   0.800   6.033  11.042  0.0299 -3.4119 -0.9791
 5656TIP3    H238384   0.876   6.008  10.913  1.7980  0.8122 -0.9422
 5657TIP3   OH238385   3.810   4.771  14.959  0.4728  0.0734  0.0429
 5657TIP3    H138386   3.882   4.826  14.927 -1.0555  1.9682 -0.3660
 5657TIP3    H238387   3.772   4.732  14.880  0.2908  0.0858  0.1222
 5658TIP3   OH238388   3.236   2.838  11.490 -0.1920  0.0857  0.2164
 5658TIP3    H138389   3.281   2.799  11.565  0.7510 -1.1444 -0.9434
 5658TIP3    H238390   3.143   2.823  11.507  0.0769 -1.4634  0.4909
 5659TIP3   OH238391   5.880   0.625  13.751 -0.5380 -0.5593  0.0664
 5659TIP3    H138392   5.946   0.571  13.795  0.1451  0.4722  0.3443
 5659TIP3    H238393   5.929   0.675  13.686 -0.9686  0.4726  0.5029
 5660TIP3   OH238394   1.688   0.558   6.043 -0.3899 -0.1550  0.2612
 5660TIP3    H138395   1.745   0.513   5.981  0.5101  1.3240 -0.0376
 5660TIP3    H238396   1.701   0.513   6.126  1.6234  0.4457  0.3131
 5661TIP3   OH238397   6.183   2.439   6.825  0.2114  0.0101  0.1448
 5661TIP3    H138398   6.157   2.487   6.747 -0.4932 -0.0822  0.3126
 5661TIP3    H238399   6.225   2.505   6.881 -2.4053  0.9367  1.1836
 5662TIP3   OH238400   4.441   6.709  10.975  0.1014 -0.0550  0.0125
 5662TIP3    H138401   4.422   6.636  10.916 -1.8239  0.5654 -0.1892
 5662TIP3    H238402   4.377   6.700  11.046  1.9299 -0.3904  1.7249
 5663TIP3   OH238403   4.088   3.196   0.863  0.0058 -0.2874 -0.2324
 5663TIP3    H138404   4.010   3.197   0.919 -0.0761  0.2305 -0.3438
 5663TIP3    H238405   4.154   3.242   0.915  0.0870 -0.2810 -0.3436
 5664TIP3   OH238406   4.907   2.605  14.742  0.2794  0.5157  0.1171
 5664TIP3    H138407   4.981   2.561  14.785  1.0670  1.4184 -0.2885
 5664TIP3    H238408   4.888   2.680  14.798 -0.9012 -0.1787  0.6747
 5665TIP3   OH238409   5.680   5.735  15.850  0.3338 -0.2583 -0.0365
 5665TIP3    H138410   5.659   5.801  15.784  0.5808 -0.4214 -0.2826
 5665TIP3    H238411   5.702   5.785  15.928  2.1917  0.0444 -0.6848
 5666TIP3   OH238412   0.433   3.973  12.462 -1.1574 -0.6501  0.1522
 5666TIP3    H138413   0.466   3.984  12.551  0.7013  0.5581 -0.6093
 5666TIP3    H238414   0.428   4.062  12.428  0.7621 -1.1879 -1.7763
 5667TIP3   OH238415   1.460   3.786   4.633  0.2777  0.2438 -0.2790
 5667TIP3    H138416   1.539   3.799   4.581  0.6158 -1.4220 -0.2401
 5667TIP3    H238417   1.452   3.691   4.642 -0.4525  0.4425  1.6797
 5668TIP3   OH238418   1.037   6.057  10.673  0.2655  0.1119 -0.3689
 5668TIP3    H138419   0.966   6.012  10.718 -0.2678 -1.4502 -2.5880
 5668TIP3    H238420   1.115   6.006  10.692 -0.1105 -1.0636 -1.8226
 5669TIP3   OH238421   2.780   5.904  17.294 -0.0713 -0.9139 -0.3319
 5669TIP3    H138422   2.729   5.865  17.364 -0.3579  0.1172  0.0495
 5669TIP3    H238423   2.861   5.852  17.291 -1.1168 -2.5786 -0.9747
 5670TIP3   OH238424   2.651   3.880   1.588  0.0567  0.0575 -0.4586
 5670TIP3    H138425   2.662   3.961   1.538  1.4752  0.7132  0.8162
 5670TIP3    H238426   2.558   3.877   1.609 -0.0064  1.4416 -0.4227
 5671TIP3   OH238427   5.689   0.355   3.511  0.1843 -0.2950  0.3806
 5671TIP3    H138428   5.763   0.407   3.479 -1.9343  1.7891 -1.5125
 5671TIP3    H238429   5.698   0.271   3.466  3.7303 -1.9249  3.5653
 5672TIP3   OH238430   3.258   2.621   3.679 -0.1662 -0.1669  0.0564
 5672TIP3    H138431   3.282   2.714   3.675  0.1600 -0.2887 -1.6727
 5672TIP3    H238432   3.339   2.577   3.705  0.5687 -0.2199 -2.1269
 5673TIP3   OH238433   5.204   2.287   4.466 -0.3195 -0.3412  0.7765
 5673TIP3    H138434   5.113   2.308   4.489 -0.0656  0.2549  1.2868
 5673TIP3    H238435   5.235   2.365   4.420  0.3675  0.0622  1.8935
 5674TIP3   OH238436   3.204   1.963  14.382 -0.1747 -0.2162  0.4053
 5674TIP3    H138437   3.253   1.958  14.299  0.9944  1.8972  0.8935
 5674TIP3    H238438   3.129   2.019  14.362  0.0541  0.2135  0.7163
 5675TIP3   OH238439   1.961   1.730  14.595 -0.2927 -0.4527 -0.1365
 5675TIP3    H138440   1.963   1.635  14.586 -0.0806 -0.8423  2.9288
 5675TIP3    H238441   2.052   1.755  14.612 -0.4430  0.2130 -0.2657
 5676TIP3   OH238442   5.782   4.984   3.056  0.0274  0.3048 -0.0187
 5676TIP3    H138443   5.720   5.056   3.059 -0.3442  0.4588 -4.3053
 5676TIP3    H238444   5.728   4.905   3.053  0.3961 -0.1925  3.2204
 5677TIP3   OH238445   0.882   6.378  12.763  0.3648 -0.0902  0.4135
 5677TIP3    H138446   0.929   6.453  12.727  0.7391 -0.0956  0.8856
 5677TIP3    H238447   0.831   6.344  12.689  2.9836 -1.6101 -0.8539
 5678TIP3   OH238448   2.154   4.643   2.569 -0.2974 -0.7118 -0.1429
 5678TIP3    H138449   2.203   4.588   2.508  1.2411  0.7857 -0.3343
 5678TIP3    H238450   2.221   4.691   2.616 -1.5803  0.8299  0.1853
 5679TIP3   OH238451   0.056   4.366   3.100 -0.0700  0.4146 -0.2143
 5679TIP3    H138452  -0.006   4.315   3.049 -1.5361 -1.1161  2.8275
 5679TIP3    H238453   0.122   4.302   3.127 -0.5100  0.6402  1.5109
 5680TIP3   OH238454   2.082   3.352   2.431 -0.2560  0.4417 -0.2605
 5680TIP3    H138455   2.067   3.404   2.510 -3.0900 -0.1353 -0.3126
 5680TIP3    H238456   2.099   3.263   2.463 -0.5491  0.3789 -0.2784
 5681TIP3   OH238457   5.435   1.301  15.976 -0.1340  0.4393 -0.7260
 5681TIP3    H138458   5.485   1.269  15.900  1.4620 -0.9629  0.8236
 5681TIP3    H238459   5.494   1.361  16.021 -0.3477 -0.1400  0.3670
 5682TIP3   OH238460   2.700   1.154   5.212 -0.4561 -0.6346  0.2353
 5682TIP3    H138461   2.688   1.212   5.137 -0.0921 -1.1121 -0.1962
 5682TIP3    H238462   2.616   1.110   5.221 -0.5896 -0.3745  0.2831
 5683TIP3   OH238463   6.547   0.169   5.952  0.5583  0.2447 -0.2172
 5683TIP3    H138464   6.502   0.247   5.985 -1.5695 -0.7540 -0.5974
 5683TIP3    H238465   6.607   0.144   6.022 -0.8462  0.5715  1.1485
 5684TIP3   OH238466   5.842   0.454   0.482  0.0794 -0.2332  0.4215
 5684TIP3    H138467   5.787   0.447   0.560  0.4619 -1.7981  0.6029
 5684TIP3    H238468   5.795   0.404   0.415 -1.2841  2.8176 -1.0550
 5685TIP3   OH238469   4.507   1.281   3.603 -0.0819  0.2037 -0.0159
 5685TIP3    H138470   4.419   1.250   3.621 -0.5191 -0.0239 -2.2465
 5685TIP3    H238471   4.518   1.358   3.659 -0.9151 -0.8840  1.7385
 5686TIP3   OH238472   2.501   2.264  12.094 -0.1813  0.2511  0.1131
 5686TIP3    H138473   2.579   2.244  12.043  1.1666  1.6471  1.5048
 5686TIP3    H238474   2.480   2.182  12.139  0.2426 -0.2531 -0.5940
 5687TIP3   OH238475   6.400   2.103  17.004  0.5010  0.2137  0.0072
 5687TIP3    H138476   6.450   2.030  17.041  2.1586  0.4259 -1.6569
 5687TIP3    H238477   6.463   2.151  16.951 -0.8644  2.1406  0.0199
 5688TIP3   OH238478   2.100   4.298  12.604  0.1912  0.0300  0.3774
 5688TIP3    H138479   2.153   4.352  12.546 -0.3363  0.5787  0.3878
 5688TIP3    H238480   2.026   4.355  12.629 -0.1148 -0.5299  0.7853
 5689TIP3   OH238481   6.686   1.527   0.722 -0.3329 -0.0285  0.9212
 5689TIP3    H138482   6.688   1.615   0.683  0.3652  0.8789  2.8764
 5689TIP3    H238483   6.728   1.471   0.657  2.2489  1.7005  0.9245
 5690TIP3   OH238484   4.365   5.476  13.266  0.2517 -0.2944  0.4101
 5690TIP3    H138485   4.448   5.474  13.313  0.1262  0.6066  0.6999
 5690TIP3    H238486   4.319   5.552  13.303 -0.2784 -0.1872 -0.4480
 5691TIP3   OH238487   1.344   2.151   3.657  0.4344 -0.0026 -0.0496
 5691TIP3    H138488   1.423   2.114   3.617  0.0257 -1.0107  0.0443
 5691TIP3    H238489   1.287   2.171   3.583  0.4118 -0.1280 -0.0656
 5692TIP3   OH238490   6.371   2.498   5.391 -0.3083  0.4668  0.3379
 5692TIP3    H138491   6.421   2.542   5.459 -0.6714  2.2872 -0.5287
 5692TIP3    H238492   6.387   2.549   5.311 -0.2266 -1.3612 -0.8782
 5693TIP3   OH238493   0.857   1.418   3.618 -0.3811  0.3266  0.0566
 5693TIP3    H138494   0.928   1.424   3.681 -0.7263  0.2279  0.4621
 5693TIP3    H238495   0.897   1.382   3.539  0.1611  0.9273  0.0513
 5694TIP3   OH238496   5.003   2.182  15.369  0.0711 -0.0673  0.4344
 5694TIP3    H138497   4.949   2.110  15.338 -0.6742  0.5317  0.3263
 5694TIP3    H238498   4.999   2.248  15.300 -2.3498  1.6715  2.0494
 5695TIP3   OH238499   2.065   3.886  12.811  0.3714 -0.2394  0.9277
 5695TIP3    H138500   2.108   3.933  12.739 -0.5915 -0.0931  0.4268
 5695TIP3    H238501   2.011   3.820  12.767 -0.3621 -0.0384  1.5140
 5696TIP3   OH238502   2.071   3.456   2.170 -0.3046  0.3550 -0.4749
 5696TIP3    H138503   1.996   3.514   2.159  0.0974  0.6417 -2.0302
 5696TIP3    H238504   2.064   3.423   2.260 -1.9544  0.8239 -0.4016
 5697TIP3   OH238505   5.478   5.037  11.133  0.0718  0.3567 -0.1513
 5697TIP3    H138506   5.518   5.122  11.152 -1.1495  0.6905  1.0625
 5697TIP3    H238507   5.438   5.048  11.047 -1.2741  1.4907  0.5862
 5698TIP3   OH238508   6.055   5.409  12.307 -0.3786  0.2555 -0.0700
 5698TIP3    H138509   6.122   5.403  12.375 -0.6495  0.1798  0.1895
 5698TIP3    H238510   5.991   5.342  12.330 -0.2023 -0.1407 -0.6987
 5699TIP3   OH238511   1.651   3.871   3.889 -0.1270 -0.1332  0.0782
 5699TIP3    H138512   1.582   3.805   3.896 -1.3052  1.1691  1.4500
 5699TIP3    H238513   1.665   3.881   3.795 -1.4004 -0.8422 -0.2200
 5700TIP3   OH238514   1.917   5.405   1.016 -0.0399 -0.3609 -0.4832
 5700TIP3    H138515   1.922   5.459   1.095 -1.9913 -1.4270  0.4299
 5700TIP3    H238516   1.830   5.423   0.980  0.6852 -0.1652 -2.2361
 5701TIP3   OH238517   6.732   5.615  11.030 -0.0909  0.5351 -0.2288
 5701TIP3    H138518   6.702   5.543  11.085  0.5493  1.5587  1.5630
 5701TIP3    H238519   6.746   5.576  10.944  1.3124 -1.7222  0.9495
 5702TIP3   OH238520   0.115   4.076   2.089 -0.0239 -0.2523  0.2257
 5702TIP3    H138521   0.094   4.161   2.129 -0.4825 -0.1963 -0.1290
 5702TIP3    H238522   0.114   4.015   2.162  0.3087  0.0477  0.4854
 5703TIP3   OH238523   0.000   1.466   3.947  0.2676 -0.8475 -0.4444
 5703TIP3    H138524  -0.083   1.433   3.912 -0.9772  0.4958  1.1057
 5703TIP3    H238525   0.005   1.556   3.916  0.3415 -0.4153  0.7668
 5704TIP3   OH238526   1.748   0.439  13.208  0.9340  0.2351  0.2397
 5704TIP3    H138527   1.781   0.349  13.218  1.2501  0.2487 -0.6091
 5704TIP3    H238528   1.710   0.440  13.120  1.0550  0.9735  0.1963
 5705TIP3   OH238529   4.128   1.299   3.474  0.7504  0.6239 -0.0639
 5705TIP3    H138530   4.186   1.259   3.538  0.8038 -0.2276 -0.6377
 5705TIP3    H238531   4.140   1.248   3.394 -0.9134  0.3101 -0.1469
 5706TIP3   OH238532   4.864   1.021  14.160  0.5448 -0.0826 -0.2383
 5706TIP3    H138533   4.822   1.100  14.195  0.5529 -0.8416  1.6105
 5706TIP3    H238534   4.936   1.004  14.221 -0.9531 -2.8863  0.9170
 5707TIP3   OH238535   0.027   4.530  14.290 -0.5798  0.4709 -0.0327
 5707TIP3    H138536  -0.038   4.598  14.308 -2.8083 -1.3005 -0.8647
 5707TIP3    H238537  -0.014   4.475  14.223  1.7607 -0.8314 -0.4924
 5708TIP3   OH238538   4.150   4.295   3.362 -0.0630  0.0668 -0.1309
 5708TIP3    H138539   4.188   4.212   3.390 -1.8565 -0.8303 -0.2056
 5708TIP3    H238540   4.200   4.319   3.284 -0.1957 -1.5071 -0.7348
 5709TIP3   OH238541   2.811   4.854   6.139 -1.0702  0.5151  0.5423
 5709TIP3    H138542   2.878   4.920   6.126 -0.9805  0.2754 -0.2975
 5709TIP3    H238543   2.843   4.777   6.092 -0.7418 -0.4446  2.2384
 5710TIP3   OH238544   4.209   6.432   4.707  0.8962 -0.2789 -0.7266
 5710TIP3    H138545   4.141   6.374   4.672  0.6350 -0.5668  0.2381
 5710TIP3    H238546   4.208   6.416   4.801  0.4566  1.6678 -0.3493
 5711TIP3   OH238547   1.118   0.513   5.336 -0.2018  0.2057 -0.0059
 5711TIP3    H138548   1.213   0.502   5.327 -0.5081 -1.4293 -1.7842
 5711TIP3    H238549   1.092   0.439   5.392 -0.6523 -0.6275 -1.2718
 5712TIP3   OH238550   0.936   1.203  14.590  0.0842 -0.0729 -0.7286
 5712TIP3    H138551   0.878   1.278  14.605  1.3270  0.7504  0.1525
 5712TIP3    H238552   0.889   1.129  14.628 -0.9587  0.3184 -1.1991
 5713TIP3   OH238553   2.400   4.832   4.376 -0.0975 -0.3018  0.0771
 5713TIP3    H138554   2.355   4.783   4.308  1.2495 -0.3696 -0.8003
 5713TIP3    H238555   2.395   4.923   4.349  3.3937 -0.5745 -2.0567
 5714TIP3   OH238556   4.156   2.847  16.696 -0.2337 -0.1728 -0.6194
 5714TIP3    H138557   4.080   2.901  16.716 -1.6096 -2.1241 -0.3534
 5714TIP3    H238558   4.198   2.832  16.781  1.2171  1.8448 -0.8859
 5715TIP3   OH238559   2.209   5.799  16.583  0.1644 -0.2436  0.8468
 5715TIP3    H138560   2.295   5.774  16.617  0.4929  0.4151  0.5197
 5715TIP3    H238561   2.215   5.894  16.571 -0.1044 -0.3925 -0.5797
 5716TIP3   OH238562   2.954   6.056  15.918  0.0035 -0.2717  0.3465
 5716TIP3    H138563   2.898   5.993  15.962 -0.3773 -0.1059  0.1125
 5716TIP3    H238564   2.893   6.120  15.881  0.3739  0.1639  0.4747
 5717TIP3   OH238565   0.850   2.778   5.147  0.0550 -0.0279  0.5445
 5717TIP3    H138566   0.921   2.754   5.088  0.2139  1.0658  0.2600
 5717TIP3    H238567   0.770   2.759   5.097  0.1904  1.8401 -0.4822
 5718TIP3   OH238568   3.989   5.740   2.556  0.6796  0.2071  0.5991
 5718TIP3    H138569   3.995   5.807   2.488 -4.5594 -2.7425 -3.6326
 5718TIP3    H238570   4.040   5.667   2.521 -0.2256 -0.6028  0.9228
 5719TIP3   OH238571   4.844   1.081  15.280 -0.2996  0.7763 -0.0955
 5719TIP3    H138572   4.840   1.172  15.308 -2.0091  0.7119 -0.0491
 5719TIP3    H238573   4.900   1.082  15.202 -0.4671  1.8874 -0.2111
 5720TIP3   OH238574   5.295   3.282   0.767 -0.2501 -0.3218  0.2719
 5720TIP3    H138575   5.278   3.290   0.861  0.2506 -1.2063  0.4483
 5720TIP3    H238576   5.382   3.321   0.755  0.6983 -2.2321  0.5769
 5721TIP3   OH238577   5.028   5.091  12.594  0.0243 -0.2182 -0.2786
 5721TIP3    H138578   4.964   5.087  12.665 -0.1114  3.0357 -0.0839
 5721TIP3    H238579   5.103   5.138  12.632  0.4892  0.3998 -1.8877
 5722TIP3   OH238580   1.087   5.548  11.544  0.6319 -0.4168  0.1619
 5722TIP3    H138581   1.179   5.529  11.564  0.8847  0.7251  0.1277
 5722TIP3    H238582   1.071   5.500  11.463  0.9309 -1.3317  0.6178
 5723TIP3   OH238583   3.130   5.706  11.616  0.7222  0.0876 -0.3254
 5723TIP3    H138584   3.221   5.734  11.622 -0.0624  2.6228  1.3641
 5723TIP3    H238585   3.104   5.690  11.707 -1.3948  2.7473 -0.3694
 5724TIP3   OH238586   4.861   1.555  11.098  0.0690 -0.3791  0.7503
 5724TIP3    H138587   4.951   1.563  11.066 -0.1075  0.2071  0.3957
 5724TIP3    H238588   4.860   1.472  11.146  1.2436  0.4242  2.2411
 5725TIP3   OH238589   3.564   1.447  14.932  0.3107  0.0856 -0.1474
 5725TIP3    H138590   3.529   1.531  14.902  0.2785  0.9393  2.0784
 5725TIP3    H238591   3.535   1.384  14.866 -0.6918  1.6325 -1.2539
 5726TIP3   OH238592   5.193   5.158   0.911 -0.6216  0.0442 -0.1442
 5726TIP3    H138593   5.282   5.125   0.907 -1.1273 -1.4548  0.4069
 5726TIP3    H238594   5.146   5.109   0.844 -1.1632  0.4230 -0.0495
 5727TIP3   OH238595   5.221   1.142  12.302 -0.1957  0.2292  0.2222
 5727TIP3    H138596   5.175   1.114  12.223 -0.8096  1.5270  0.0830
 5727TIP3    H238597   5.302   1.091  12.302 -0.2983  0.0187 -1.1036
 5728TIP3   OH238598   1.307   5.433  12.340 -0.3985  0.4340  0.6250
 5728TIP3    H138599   1.295   5.345  12.375  1.2168 -0.0621  0.0087
 5728TIP3    H238600   1.221   5.474  12.350 -1.1276 -1.1216  1.1370
 5729TIP3   OH238601   4.306   4.675   0.114  0.4416  0.8458  0.0240
 5729TIP3    H138602   4.290   4.597   0.060  1.0527  0.1540  0.8196
 5729TIP3    H238603   4.307   4.747   0.051  2.9441 -0.1219 -1.1853
 5730TIP3   OH238604   3.385   2.631   0.995 -0.4827 -0.0179 -0.3368
 5730TIP3    H138605   3.380   2.692   1.069 -0.6327 -0.3733 -0.0487
 5730TIP3    H238606   3.294   2.606   0.979 -0.5357  0.6716 -1.1669
 5731TIP3   OH238607   3.723   1.777   2.426  0.2038  0.0597  0.4174
 5731TIP3    H138608   3.636   1.808   2.452  0.2456 -0.6877  1.4977
 5731TIP3    H238609   3.766   1.756   2.508 -0.0144 -3.4284 -0.2280
 5732TIP3   OH238610   2.428   1.528  12.006 -0.2419 -0.3288  0.0728
 5732TIP3    H138611   2.366   1.553  12.074 -0.8938 -2.9571  0.5790
 5732TIP3    H238612   2.409   1.586  11.933 -1.9070  0.2688  0.9321
 5733TIP3   OH238613   5.090   0.011  16.285  0.3306  0.0819 -0.2544
 5733TIP3    H138614   5.050  -0.068  16.249  1.0758 -0.0053 -0.9250
 5733TIP3    H238615   5.061   0.013  16.376 -1.3370  0.1235 -0.7484
 5734TIP3   OH238616   1.829   0.363   5.897 -0.0649 -0.4996  0.2165
 5734TIP3    H138617   1.912   0.330   5.864 -0.2483 -0.6128 -0.1334
 5734TIP3    H238618   1.783   0.393   5.819 -0.2756 -0.2626  0.4313
 5735TIP3   OH238619   4.736   5.104   1.948  0.2861 -0.3006 -0.0005
 5735TIP3    H138620   4.690   5.092   2.031 -1.5882 -1.2739 -1.1108
 5735TIP3    H238621   4.728   5.197   1.928 -0.7831 -0.3722  0.0738
 5736TIP3   OH238622   0.586   6.702   2.657 -0.0620 -0.3309 -0.1396
 5736TIP3    H138623   0.556   6.611   2.665 -1.6210  0.1428 -0.2723
 5736TIP3    H238624   0.518   6.745   2.606  1.4963  0.5370 -1.6171
 5737TIP3   OH238625   4.167   6.683   4.463 -0.0568  0.1076  0.5896
 5737TIP3    H138626   4.166   6.745   4.390 -1.3708  0.1840  0.6566
 5737TIP3    H238627   4.143   6.737   4.539 -2.1820 -0.6372  0.4970
 5738TIP3   OH238628   0.551   6.426   3.525 -0.1250  0.3994  0.5963
 5738TIP3    H138629   0.596   6.411   3.442 -1.6516  1.4762 -0.4920
 5738TIP3    H238630   0.617   6.470   3.579  1.4735 -1.8920  0.6716
 5739TIP3   OH238631   0.278   2.802   3.705  0.3410 -0.5603 -0.3758
 5739TIP3    H138632   0.271   2.836   3.616  0.3319 -2.3216 -1.0964
 5739TIP3    H238633   0.191   2.813   3.743  0.0542 -0.7411 -0.9677
 5740TIP3   OH238634   5.054   5.065  15.434 -0.2454  0.6359 -0.0438
 5740TIP3    H138635   5.044   4.978  15.471 -2.2063 -0.4088 -2.7131
 5740TIP3    H238636   5.128   5.056  15.373  0.0440  1.0866  0.2310
 5741TIP3   OH238637   2.562   5.609   0.801  0.0014 -0.1276 -0.8057
 5741TIP3    H138638   2.470   5.629   0.820  0.6209  1.6312  0.7191
 5741TIP3    H238639   2.559   5.530   0.749 -2.3441 -0.7797  0.1748
 5742TIP3   OH238640   0.265   0.265   3.859 -0.5281  0.3213  0.6944
 5742TIP3    H138641   0.180   0.244   3.898 -0.0519  0.6559  1.9963
 5742TIP3    H238642   0.303   0.329   3.920  0.4189  0.6011 -0.1700
 5743TIP3   OH238643   0.052   4.040  11.359  0.3901  0.0467 -0.0031
 5743TIP3    H138644   0.026   4.047  11.451  1.6294 -2.3445  0.6305
 5743TIP3    H238645  -0.030   4.043  11.310 -0.1856  2.8757  0.9944
 5744TIP3   OH238646   6.481   4.425  15.548 -0.8086  0.0689  0.6929
 5744TIP3    H138647   6.538   4.373  15.492 -2.2238 -2.5917  1.5637
 5744TIP3    H238648   6.458   4.501  15.495  0.5696 -0.6312 -1.0093
 5745TIP3   OH238649   4.681   5.933  12.773  0.0237 -0.1752  0.1091
 5745TIP3    H138650   4.673   5.948  12.679 -0.0656  0.1714  0.1695
 5745TIP3    H238651   4.607   5.980  12.811  0.6583  0.5847  0.4328
 5746TIP3   OH238652   3.610   2.140  13.547  0.1871 -0.0336  0.5378
 5746TIP3    H138653   3.644   2.224  13.517 -1.1439  0.1733 -0.4929
 5746TIP3    H238654   3.518   2.140  13.521 -0.0838 -1.4317  1.3447
 5747TIP3   OH238655   4.171   5.123  14.441  0.5446  0.0946  0.0741
 5747TIP3    H138656   4.234   5.182  14.483  1.3189 -2.0728  2.2087
 5747TIP3    H238657   4.108   5.102  14.511 -0.2711 -0.8108 -0.9026
 5748TIP3   OH238658   3.166   0.371  12.796  0.3151 -0.6414 -0.1251
 5748TIP3    H138659   3.221   0.310  12.845 -0.2022 -0.0639  1.2458
 5748TIP3    H238660   3.095   0.317  12.761  0.9009 -1.1270 -0.5965
 5749TIP3   OH238661   6.751   4.314   4.447  0.1317 -0.3305 -0.5486
 5749TIP3    H138662   6.798   4.294   4.367  0.6186  2.7690 -1.1793
 5749TIP3    H238663   6.658   4.311   4.423  0.2773  0.6309 -1.2917
 5750TIP3   OH238664   6.711   4.689   0.393 -0.0428  0.4647 -0.3952
 5750TIP3    H138665   6.783   4.651   0.444 -0.6916 -0.9392 -0.4739
 5750TIP3    H238666   6.638   4.629   0.406 -0.1862 -0.1118 -3.1129
 5751TIP3   OH238667   3.095   4.291  15.997 -0.2419 -0.1845  0.2364
 5751TIP3    H138668   3.053   4.374  16.019  1.8438  1.6342 -2.0059
 5751TIP3    H238669   3.036   4.250  15.933 -0.0959  0.8701 -0.6011
 5752TIP3   OH238670   3.368   0.396   3.924  0.2896  0.0914 -0.1654
 5752TIP3    H138671   3.342   0.488   3.917  1.1529  0.4099  0.6251
 5752TIP3    H238672   3.461   0.399   3.949 -0.0725 -0.9864  1.4169
 5753TIP3   OH238673   1.898   1.986   0.819 -0.4261  0.2884 -0.3026
 5753TIP3    H138674   1.854   2.071   0.819  0.9556  1.1002 -2.5406
 5753TIP3    H238675   1.985   2.004   0.855  0.3603  0.1693 -2.0546
 5754TIP3   OH238676   0.050   6.101   4.870  0.4548 -0.6704 -0.1091
 5754TIP3    H138677   0.009   6.015   4.874 -0.3598 -0.4235 -2.0016
 5754TIP3    H238678   0.105   6.098   4.792  1.3298  0.1559  0.4604
 5755TIP3   OH238679   0.254   3.756   3.794  0.4571  0.3343 -0.4935
 5755TIP3    H138680   0.196   3.829   3.772 -1.4221 -0.8592  0.2350
 5755TIP3    H238681   0.300   3.785   3.873  2.0611  1.8757 -1.8946
 5756TIP3   OH238682   4.642   1.665   0.533 -0.0433  0.6282  0.0682
 5756TIP3    H138683   4.625   1.656   0.627 -2.8059  1.7550 -0.2359
 5756TIP3    H238684   4.600   1.747   0.509  1.3267  0.7830 -2.0536
 5757TIP3   OH238685   4.847   1.737  16.526  0.1790 -0.0820  0.2714
 5757TIP3    H138686   4.903   1.814  16.513  0.3998 -0.3300 -0.2711
 5757TIP3    H238687   4.831   1.736  16.621  0.2699  0.5596  0.3038
 5758TIP3   OH238688   6.645   0.350  11.609 -0.8743 -0.0215  0.1746
 5758TIP3    H138689   6.567   0.368  11.662 -1.2544 -0.4985 -0.2078
 5758TIP3    H238690   6.696   0.430  11.614 -0.5778 -0.2584  1.7923
 5759TIP3   OH238691   3.688   1.786   2.141 -0.3959  0.1964  0.4084
 5759TIP3    H138692   3.716   1.777   2.232 -0.3436 -1.7528  0.2468
 5759TIP3    H238693   3.716   1.704   2.099 -4.3989 -1.0519 -0.2572
 5760TIP3   OH238694   5.762   2.053  13.688  0.3323 -0.3710  0.2468
 5760TIP3    H138695   5.751   2.011  13.603  0.5845 -0.5964  0.3240
 5760TIP3    H238696   5.687   2.112  13.696  0.6236  0.0881 -0.3835
 5761TIP3   OH238697   2.110   0.043  12.215 -0.2729  0.0717 -0.4632
 5761TIP3    H138698   2.169   0.063  12.288 -0.5724  1.2029 -0.5135
 5761TIP3    H238699   2.146   0.094  12.141 -0.9615  0.3032 -0.6429
 5762TIP3   OH238700   1.157   1.974   4.920  0.1033  0.4840  0.0337
 5762TIP3    H138701   1.198   2.054   4.953 -1.3499  1.3160 -0.1210
 5762TIP3    H238702   1.205   1.954   4.839  0.6129  1.0601  0.1862
 5763TIP3   OH238703   3.659   4.878  13.755  0.2467  0.6344  0.6983
 5763TIP3    H138704   3.618   4.959  13.727 -1.0150 -0.5956 -1.2161
 5763TIP3    H238705   3.600   4.843  13.822  1.2262  1.6369  2.1539
 5764TIP3   OH238706   5.346   0.423   0.867  0.1437  0.3317  0.5856
 5764TIP3    H138707   5.403   0.442   0.793 -1.2316 -1.0469 -0.9009
 5764TIP3    H238708   5.300   0.505   0.884  1.5278  1.0756  0.9272
 5765TIP3   OH238709   0.959   0.134   1.613  0.2235 -0.2864 -0.4101
 5765TIP3    H138710   1.029   0.071   1.594 -0.5056 -1.2480 -0.0077
 5765TIP3    H238711   0.879   0.082   1.608 -0.4184  0.6737 -0.2873
 5766TIP3   OH238712   1.503   4.988   5.664  0.2107  0.4413  0.5465
 5766TIP3    H138713   1.454   4.927   5.610 -0.1509  0.2180  1.1128
 5766TIP3    H238714   1.532   4.935   5.739  0.3695  0.8342  0.7647
 5767TIP3   OH238715   2.286   4.822   2.242 -0.0417 -0.0971 -0.4441
 5767TIP3    H138716   2.337   4.741   2.246  0.7411  0.3657 -0.8315
 5767TIP3    H238717   2.341   4.882   2.191  0.8198  1.7179  2.4206
 5768TIP3   OH238718   3.893   6.599   4.673  0.1737  0.4244 -0.3905
 5768TIP3    H138719   3.942   6.519   4.652 -0.8105 -0.5085  0.6588
 5768TIP3    H238720   3.959   6.666   4.684  0.9856 -0.0536 -2.0267
 5769TIP3   OH238721   6.733   3.402   2.854 -0.0574 -1.1227 -0.5343
 5769TIP3    H138722   6.803   3.383   2.916  0.9800 -1.3265 -1.7473
 5769TIP3    H238723   6.726   3.324   2.800 -1.4241 -1.2124 -0.2689
 5770TIP3   OH238724   0.236   1.306  12.624  0.0480  0.9652 -0.8141
 5770TIP3    H138725   0.258   1.394  12.654 -0.2889  0.8119 -0.1004
 5770TIP3    H238726   0.243   1.251  12.702  1.3321  0.1513 -1.4814
 5771TIP3   OH238727   6.019   3.315   0.983 -0.4377 -0.1017 -0.6394
 5771TIP3    H138728   6.007   3.274   0.897 -0.1267 -0.3754 -0.5552
 5771TIP3    H238729   6.061   3.247   1.036 -0.0924  0.2637 -0.4405
 5772TIP3   OH238730   3.356   3.153   0.499 -0.4511  0.1203  0.1889
 5772TIP3    H138731   3.284   3.092   0.482 -1.4455  0.5244  2.5870
 5772TIP3    H238732   3.435   3.104   0.473 -1.3770 -1.4166  0.1504
 5773TIP3   OH238733   0.608   2.439  17.207  0.1067 -0.3168 -0.4282
 5773TIP3    H138734   0.551   2.388  17.149 -0.8826  0.2706  0.0065
 5773TIP3    H238735   0.575   2.529  17.200  0.7750 -0.0275  0.0821
 5774TIP3   OH238736   0.289   6.492   5.285 -0.0018 -0.3082  0.2003
 5774TIP3    H138737   0.351   6.538   5.227 -1.1096  1.7706  0.5663
 5774TIP3    H238738   0.299   6.400   5.261  3.0827 -0.0721  0.1240
 5775TIP3   OH238739   1.037   4.110   4.366  0.4891 -0.1473  0.6689
 5775TIP3    H138740   1.083   4.046   4.311 -2.7778 -0.3659 -2.1809
 5775TIP3    H238741   1.092   4.188   4.363  2.1118 -1.2484 -0.0107
 5776TIP3   OH238742   0.262   2.707  15.260  0.1515 -0.2457  0.3243
 5776TIP3    H138743   0.258   2.803  15.257 -0.4855 -0.2981 -2.2194
 5776TIP3    H238744   0.355   2.687  15.273  0.3754  0.6987  0.2276
 5777TIP3   OH238745   2.127   6.359   5.803  0.2522 -0.1731 -0.0584
 5777TIP3    H138746   2.089   6.365   5.890  2.8660  3.1757  1.0895
 5777TIP3    H238747   2.163   6.270   5.799 -1.0655 -0.8421  1.7351
 5778TIP3   OH238748   5.180   6.206   1.806 -0.3297  0.5797 -0.0610
 5778TIP3    H138749   5.218   6.119   1.801 -0.8590  0.2895  0.7995
 5778TIP3    H238750   5.199   6.236   1.895 -1.5777  0.6611  0.2054
 5779TIP3   OH238751   3.303   1.298   5.209  0.2311 -0.5167 -0.4928
 5779TIP3    H138752   3.391   1.261   5.202 -0.0872 -1.2431 -0.6932
 5779TIP3    H238753   3.244   1.223   5.201 -0.3874 -0.2101  0.8560
 5780TIP3   OH238754   4.383   3.441  14.643 -0.0010  0.6458  0.4785
 5780TIP3    H138755   4.314   3.494  14.601 -0.3016 -1.1490 -1.4944
 5780TIP3    H238756   4.464   3.473  14.603 -0.1348  0.0258 -0.3308
 5781TIP3   OH238757   2.212   6.563  10.517 -0.0883  0.0544 -0.0556
 5781TIP3    H138758   2.138   6.574  10.578  1.3141  0.2105  1.6921
 5781TIP3    H238759   2.170   6.551  10.432 -2.1010  2.2544  0.5103
 5782TIP3   OH238760   6.099   6.343   2.295  0.3473  0.2183  0.3637
 5782TIP3    H138761   6.152   6.267   2.320  1.2101  0.5960 -0.2586
 5782TIP3    H238762   6.028   6.305   2.243  0.7626 -0.1824  0.0712
 5783TIP3   OH238763   6.248   5.702  12.861 -0.3267 -0.3880  0.0388
 5783TIP3    H138764   6.201   5.785  12.870  0.6999  0.3916 -1.2991
 5783TIP3    H238765   6.318   5.707  12.925 -1.0352 -0.8230  0.8714
 5784TIP3   OH238766   5.304   5.434   1.341 -0.0762 -0.0519 -0.0431
 5784TIP3    H138767   5.384   5.404   1.298 -0.8346 -0.9914 -0.8611
 5784TIP3    H238768   5.315   5.410   1.433  0.2193 -0.9712 -0.3087
 5785TIP3   OH238769   6.557   1.705  13.030  0.2780 -0.7145  0.1873
 5785TIP3    H138770   6.599   1.629  13.070  1.5295 -0.7272 -1.0636
 5785TIP3    H238771   6.596   1.710  12.943 -2.2538 -0.6234 -0.9971
 5786TIP3   OH238772   0.379   2.098  16.403  0.2482 -0.3246 -0.1427
 5786TIP3    H138773   0.321   2.058  16.338  0.0193  1.1794 -0.9165
 5786TIP3    H238774   0.424   2.168  16.355  1.6800 -0.5560  0.7918
 5787TIP3   OH238775   6.502   1.068  16.375 -0.4041  0.1066  0.4880
 5787TIP3    H138776   6.537   0.991  16.330  0.9178  1.5654 -1.1051
 5787TIP3    H238777   6.496   1.135  16.307 -1.4459  1.4637  1.8370
 5788TIP3   OH238778   3.698   3.689  13.740 -0.1906  0.4742 -0.1204
 5788TIP3    H138779   3.787   3.675  13.705 -0.3340  0.3120 -0.4284
 5788TIP3    H238780   3.678   3.780  13.719 -0.9381 -0.0762 -2.0277
 5789TIP3   OH238781   5.470   4.679  16.982 -0.7221 -0.1408 -0.1332
 5789TIP3    H138782   5.495   4.594  16.946  1.3347 -0.1690  1.2551
 5789TIP3    H238783   5.523   4.743  16.934 -0.4647  0.1283  0.4980
 5790TIP3   OH238784   0.028   2.089  16.885 -0.1878 -0.5327  0.3220
 5790TIP3    H138785   0.016   2.069  16.978  0.5592 -0.1464  0.5119
 5790TIP3    H238786   0.099   2.031  16.857 -1.9855 -2.4026 -0.6401
 5791TIP3   OH238787   0.366   6.121   4.477 -0.8205 -0.0279  0.1919
 5791TIP3    H138788   0.288   6.140   4.425 -0.7108 -0.3923 -0.1125
 5791TIP3    H238789   0.422   6.197   4.466 -1.3541  0.4680  0.8394
 5792TIP3   OH238790   4.281   6.135  12.955  0.0565  0.6497  0.0995
 5792TIP3    H138791   4.200   6.179  12.930 -0.2159  0.0171 -0.1306
 5792TIP3    H238792   4.343   6.159  12.887  0.8084  3.1654  1.5219
 5793TIP3   OH238793   4.424   6.391   0.862  0.7820 -0.3606 -0.2360
 5793TIP3    H138794   4.403   6.314   0.810 -0.7949  0.3412 -0.6903
 5793TIP3    H238795   4.378   6.463   0.819  1.6917  0.7321  0.5513
 5794TIP3   OH238796   5.550   4.990  14.929  0.3831  0.0590  0.2732
 5794TIP3    H138797   5.528   4.948  15.012 -0.0542 -1.2855 -0.4952
 5794TIP3    H238798   5.610   4.930  14.887  0.2280  0.4956 -0.5912
 5795TIP3   OH238799   0.610   3.397  13.383  0.6059  0.0354 -0.0537
 5795TIP3    H138800   0.662   3.374  13.460 -0.4142 -1.6577  0.1790
 5795TIP3    H238801   0.606   3.317  13.331  2.0272  1.3680 -2.3903
 5796TIP3   OH238802   5.956   4.862   1.045 -0.3612 -0.4277  0.0586
 5796TIP3    H138803   5.882   4.806   1.022 -0.6531 -0.7902  1.7514
 5796TIP3    H238804   6.011   4.863   0.967 -2.0034 -0.3684 -1.1355
 5797TIP3   OH238805   4.177   6.256  16.616  0.1750  0.0877 -0.1325
 5797TIP3    H138806   4.263   6.290  16.590  1.0237 -1.8330 -0.0194
 5797TIP3    H238807   4.157   6.301  16.697  0.1809  1.9171 -1.0936
 5798TIP3   OH238808   1.317   0.831   2.049 -0.3430 -0.3267 -0.0181
 5798TIP3    H138809   1.371   0.784   2.113  0.5971  2.1550  1.1888
 5798TIP3    H238810   1.229   0.830   2.086 -0.6283 -2.1011 -0.6439
 5799TIP3   OH238811   3.998   6.424   4.197  0.4011  0.4511  0.0881
 5799TIP3    H138812   3.948   6.447   4.118  0.7658 -0.4346 -0.4163
 5799TIP3    H238813   4.034   6.508   4.228  1.6736  0.6257 -1.6778
 5800TIP3   OH238814   3.270   2.397   4.327 -0.0677 -0.3048 -0.2473
 5800TIP3    H138815   3.337   2.404   4.259 -1.8611 -0.5243 -2.1144
 5800TIP3    H238816   3.270   2.483   4.370  1.9764 -0.5758  0.4354
 5801TIP3   OH238817   5.918   1.891  15.987  0.7092 -0.0275 -0.3411
 5801TIP3    H138818   5.954   1.933  16.065 -1.3706  1.4972 -0.1008
 5801TIP3    H238819   5.838   1.849  16.017  1.0195 -1.3482 -1.2641
 5802TIP3   OH238820   1.867   0.986   5.872  0.3059  0.1248  0.0676
 5802TIP3    H138821   1.955   0.997   5.836  0.3839 -3.6671 -1.3365
 5802TIP3    H238822   1.809   0.988   5.796 -0.4972  0.0651  0.6682
 5803TIP3   OH238823   6.418   2.784  16.550  0.5120 -0.0440  0.6921
 5803TIP3    H138824   6.324   2.799  16.560  0.3646  0.6114 -1.2730
 5803TIP3    H238825   6.455   2.871  16.541  0.9064 -0.3797 -1.3748
 5804TIP3   OH238826   2.837   1.140   6.362  0.4015  0.1534  0.8176
 5804TIP3    H138827   2.893   1.071   6.398 -0.6894 -1.0366  0.3235
 5804TIP3    H238828   2.813   1.108   6.275 -3.1288 -0.7045  1.9151
 5805TIP3   OH238829   2.455   0.144   0.746  0.1004  0.0661  0.0821
 5805TIP3    H138830   2.374   0.175   0.706  0.1999 -1.1424 -1.1248
 5805TIP3    H238831   2.518   0.215   0.730 -0.1041 -0.0069 -1.1290
 5806TIP3   OH238832   6.241   4.823  11.567  0.2094  0.3942  0.3324
 5806TIP3    H138833   6.212   4.784  11.650 -0.8920  1.4703  0.4754
 5806TIP3    H238834   6.160   4.839  11.519  0.8840 -1.5307 -1.6027
 5807TIP3   OH238835   6.623   2.231  10.446  0.3781 -0.6857  0.2775
 5807TIP3    H138836   6.708   2.272  10.430  0.1840 -0.9140 -1.5222
 5807TIP3    H238837   6.586   2.281  10.519  0.7108  1.5008 -0.9600
 5808TIP3   OH238838   4.586   3.408   0.603 -0.4970  0.2991  0.1287
 5808TIP3    H138839   4.630   3.491   0.618 -0.9955  0.2293  2.2725
 5808TIP3    H238840   4.580   3.368   0.689  1.4041 -2.8685 -1.0599
 5809TIP3   OH238841   4.821   3.719  13.031  0.4849 -0.6825  0.3404
 5809TIP3    H138842   4.727   3.705  13.021  0.0556  0.8648  1.7228
 5809TIP3    H238843   4.841   3.690  13.120  1.3185 -0.9729  0.0664
 5810TIP3   OH238844   4.792   1.823   2.683  0.1999 -0.4143 -0.3602
 5810TIP3    H138845   4.852   1.844   2.754 -0.3284  1.4695 -0.4178
 5810TIP3    H238846   4.756   1.907   2.656 -1.3708 -1.3377 -1.3078
 5811TIP3   OH238847   4.354   4.612  13.640 -0.5049 -0.4027 -0.0129
 5811TIP3    H138848   4.347   4.575  13.552 -0.2743  0.2573 -0.3170
 5811TIP3    H238849   4.309   4.549  13.697 -1.9702 -0.0858 -0.8023
 5812TIP3   OH238850   3.892   6.269   5.019  0.2728  0.9671 -0.0263
 5812TIP3    H138851   3.927   6.332   5.082  0.5774  2.1123 -1.2902
 5812TIP3    H238852   3.956   6.268   4.948 -0.9286  1.0716 -1.1508
 5813TIP3   OH238853   1.893   5.302   5.878  0.3785 -0.1402 -0.0283
 5813TIP3    H138854   1.844   5.242   5.933  0.0783 -0.1455 -0.2975
 5813TIP3    H238855   1.848   5.299   5.793  0.0787  0.7988  0.0851
 5814TIP3   OH238856   2.476   3.824   1.038 -0.2820  0.4227 -0.2870
 5814TIP3    H138857   2.558   3.774   1.034 -0.0983  0.7962 -1.6368
 5814TIP3    H238858   2.491   3.889   1.106 -0.2887 -0.9106  1.0553
 5815TIP3   OH238859   5.815   1.606   2.604 -0.0870 -0.0185 -0.1802
 5815TIP3    H138860   5.834   1.538   2.668  0.5618 -0.8272 -1.2129
 5815TIP3    H238861   5.733   1.580   2.564 -0.2195  0.2068 -0.0593
 5816TIP3   OH238862   4.450   4.669  15.434 -0.1840 -0.0628  0.3990
 5816TIP3    H138863   4.505   4.745  15.415 -1.8044  0.3978 -3.3295
 5816TIP3    H238864   4.384   4.703  15.496 -0.2661  1.3175 -0.3961
 5817TIP3   OH238865   5.088   3.532  16.821 -0.0341  0.6443  0.4856
 5817TIP3    H138866   5.154   3.554  16.755 -1.7050  0.9807 -1.1283
 5817TIP3    H238867   5.140   3.498  16.895  2.0852  2.8664  0.1508
 5818TIP3   OH238868   6.379   1.257   5.079 -0.6196  0.0588 -0.3621
 5818TIP3    H138869   6.369   1.178   5.132 -1.3049  0.3887  0.0202
 5818TIP3    H238870   6.332   1.237   4.998 -1.0319  0.1713 -0.1530
 5819TIP3   OH238871   5.978   5.216  15.816  0.2123 -0.1267 -0.2516
 5819TIP3    H138872   5.970   5.284  15.883 -0.2976  1.5203 -1.8883
 5819TIP3    H238873   6.065   5.229  15.779  0.3919 -0.8582 -0.1047
 5820TIP3   OH238874   5.989   1.636  11.726  0.6541  0.4508 -0.8613
 5820TIP3    H138875   6.011   1.724  11.756 -1.9591  0.7613  0.3522
 5820TIP3    H238876   5.919   1.649  11.662 -3.0209 -0.7855  2.5280
 5821TIP3   OH238877   5.817   0.489  17.101 -0.0129  0.1781  0.4661
 5821TIP3    H138878   5.872   0.465  17.176 -1.0507 -0.3178  1.0730
 5821TIP3    H238879   5.729   0.498  17.137 -0.2497  1.5951 -0.3799
 5822TIP3   OH238880   3.708   4.582  14.415 -0.2059 -0.5526 -0.0506
 5822TIP3    H138881   3.691   4.491  14.391 -0.4584 -0.3045 -0.8831
 5822TIP3    H238882   3.621   4.618  14.433 -0.0775 -0.5546  0.5685
 5823TIP3   OH238883   3.920   0.605  10.974 -0.8776 -0.8613  0.4282
 5823TIP3    H138884   3.936   0.603  10.880 -1.9460  2.5050  0.0282
 5823TIP3    H238885   3.984   0.668  11.008 -0.2704 -2.2772  2.0733
 5824TIP3   OH238886   4.079   1.378  12.945 -0.2336 -0.2533  0.7086
 5824TIP3    H138887   4.090   1.284  12.930  0.6285 -0.1201  0.4761
 5824TIP3    H238888   4.096   1.390  13.039 -2.6030 -0.6388  1.2580
 5825TIP3   OH238889   0.149   2.197   6.825 -0.1983  0.0344  0.0833
 5825TIP3    H138890   0.145   2.283   6.783  0.1219 -0.2263 -0.5022
 5825TIP3    H238891   0.239   2.167   6.809 -0.5664 -0.7896 -0.5106
 5826TIP3   OH238892   6.568   2.575   3.484  0.3075  0.4471 -0.1403
 5826TIP3    H138893   6.501   2.510   3.507  0.3820  0.1630 -0.7009
 5826TIP3    H238894   6.557   2.645   3.548 -0.3140  0.2517 -0.0281
 5827TIP3   OH238895   6.711   2.460   5.842  0.2918  0.0128 -0.0810
 5827TIP3    H138896   6.759   2.382   5.869  1.3621  1.0511  1.1469
 5827TIP3    H238897   6.759   2.492   5.766 -0.5737 -0.8809 -1.0422
 5828TIP3   OH238898   5.179   0.028   4.403  0.3771  0.1983  0.2007
 5828TIP3    H138899   5.138   0.114   4.415  1.4319  1.0138 -1.4819
 5828TIP3    H238900   5.154  -0.022   4.480 -1.7733  1.4083  0.3872
 5829TIP3   OH238901   4.365   1.318   3.997  0.0879 -0.0256 -0.3295
 5829TIP3    H138902   4.329   1.235   4.029  1.2553  0.0928  1.4079
 5829TIP3    H238903   4.458   1.314   4.021  0.3219  1.4596 -0.9164
 5830TIP3   OH238904   4.359   3.412  12.505 -0.0833  0.2361  0.6228
 5830TIP3    H138905   4.420   3.447  12.570  1.4858 -1.8096  0.3200
 5830TIP3    H238906   4.362   3.475  12.433  2.1470 -0.1149  0.3693
 5831TIP3   OH238907   0.096   2.918  15.022  0.2296 -0.6791  0.1139
 5831TIP3    H138908   0.126   2.905  15.112 -1.9639 -0.9730  0.8881
 5831TIP3    H238909   0.058   3.006  15.022 -0.2852 -0.8937 -0.3623
 5832TIP3   OH238910   0.691   3.561   5.227  0.4892  0.3893 -0.0475
 5832TIP3    H138911   0.750   3.516   5.287  0.2136 -0.2055 -0.2203
 5832TIP3    H238912   0.717   3.653   5.233  3.3161 -0.1555 -2.2515
 5833TIP3   OH238913   2.294   3.005  16.824  0.2432  0.0889 -0.3648
 5833TIP3    H138914   2.201   2.995  16.802  0.4796 -0.9751 -0.9363
 5833TIP3    H238915   2.312   2.932  16.883  1.1193 -0.7743 -1.6380
 5834TIP3   OH238916   3.777   1.302  11.800  0.2746  0.0186  0.0400
 5834TIP3    H138917   3.817   1.244  11.866 -1.4346 -0.2825  0.8819
 5834TIP3    H238918   3.702   1.252  11.767  0.4303  0.6425 -1.3220
 5835TIP3   OH238919   0.285   0.158   0.004  0.0644 -0.3827 -0.7889
 5835TIP3    H138920   0.304   0.246  -0.028  0.5993 -0.8398 -1.7645
 5835TIP3    H238921   0.281   0.104  -0.074  0.9773 -1.4658 -0.1130
 5836TIP3   OH238922   0.025   0.349   4.836  0.1976  0.7805  0.3869
 5836TIP3    H138923  -0.063   0.386   4.843  0.4237  1.6042 -0.7702
 5836TIP3    H238924   0.049   0.362   4.744  0.1521 -2.6264 -0.2586
 5837TIP3   OH238925   6.752   1.529   3.209 -0.0772 -0.5613 -0.1083
 5837TIP3    H138926   6.668   1.482   3.212 -1.6577  1.8697 -2.1656
 5837TIP3    H238927   6.744   1.597   3.275  0.5401 -0.7133  0.1253
 5838TIP3   OH238928   1.066   6.292  15.400  0.4941 -0.1732 -0.8968
 5838TIP3    H138929   1.013   6.216  15.423  1.4648 -0.2269  1.5367
 5838TIP3    H238930   1.112   6.267  15.320 -0.2981 -1.5811 -0.9267
 5839TIP3   OH238931   6.080   6.340  13.814 -0.1681 -0.2601 -0.0892
 5839TIP3    H138932   6.008   6.313  13.870 -0.3189 -0.4502 -0.3724
 5839TIP3    H238933   6.133   6.262  13.804  1.3501  0.4077  1.9840
 5840TIP3   OH238934   1.319   5.753  12.887  0.4016  0.5620  0.5963
 5840TIP3    H138935   1.408   5.722  12.902 -0.4341 -2.0699  0.6635
 5840TIP3    H238936   1.271   5.730  12.966 -1.0338 -1.1930 -0.6839
 5841TIP3   OH238937   6.623   3.238   0.782 -0.1758  0.0719  0.4144
 5841TIP3    H138938   6.547   3.186   0.808  0.7078 -1.1800  0.5463
 5841TIP3    H238939   6.586   3.307   0.726 -1.2209 -1.6256 -1.0965
 5842TIP3   OH238940   3.966   0.145   4.927 -0.0043 -0.0647  0.6941
 5842TIP3    H138941   4.046   0.181   4.966 -0.5118  0.8665  0.8969
 5842TIP3    H238942   3.904   0.139   4.999 -0.3309 -0.1697  0.4068
 5843TIP3   OH238943   4.827   6.233   5.800  0.5567  0.1534 -0.1962
 5843TIP3    H138944   4.787   6.317   5.779  0.9433  0.1299 -1.0635
 5843TIP3    H238945   4.778   6.202   5.877 -0.6142  0.4569 -0.7928
 5844TIP3   OH238946   3.590   3.695  13.210 -0.5411 -0.5993 -0.1326
 5844TIP3    H138947   3.612   3.787  13.227 -2.8478  0.2553 -1.3561
 5844TIP3    H238948   3.498   3.687  13.235 -0.4948 -2.5105 -0.3909
 5845TIP3   OH238949   0.411   2.263  17.087  0.2746 -0.2314 -0.1285
 5845TIP3    H138950   0.442   2.252  16.997  0.6429  1.6520 -0.2589
 5845TIP3    H238951   0.470   2.208  17.139 -0.3956 -1.9332 -1.0587
 5846TIP3   OH238952   1.174   2.629   3.846 -0.1512  0.2521 -0.4932
 5846TIP3    H138953   1.091   2.668   3.819 -0.2259  0.8287  0.5076
 5846TIP3    H238954   1.205   2.582   3.769 -0.3004  1.8804 -1.6029
 5847TIP3   OH238955   3.238   5.386   0.000  0.0048  0.3795  0.3658
 5847TIP3    H138956   3.198   5.472   0.014 -2.1890 -0.5391  0.2200
 5847TIP3    H238957   3.327   5.405  -0.029 -0.1296  2.5713  1.1858
 5848TIP3   OH238958   1.660   0.675   2.636  0.2844  0.5472  0.1020
 5848TIP3    H138959   1.741   0.707   2.596 -0.3375  0.2369 -1.5000
 5848TIP3    H238960   1.610   0.639   2.562 -2.6620  3.5164  0.4158
 5849TIP3   OH238961   6.640   5.424   1.429  0.2506  0.6394 -0.5184
 5849TIP3    H138962   6.590   5.506   1.422 -1.1193  0.0131  1.1591
 5849TIP3    H238963   6.708   5.431   1.363 -0.8036  2.4612 -1.4666
 5850TIP3   OH238964   1.010   0.247  15.275 -0.0962  0.6739  0.1090
 5850TIP3    H138965   1.054   0.180  15.327  1.5140  1.4609 -0.1565
 5850TIP3    H238966   0.941   0.281  15.332 -0.0379 -0.2394  0.7439
 5851TIP3   OH238967   6.400   1.179   6.176 -0.5259  0.3107  0.0448
 5851TIP3    H138968   6.339   1.239   6.218 -0.2269  0.5937  0.0763
 5851TIP3    H238969   6.376   1.093   6.210 -1.7212  0.2502 -0.8870
 5852TIP3   OH238970   1.719   3.857  15.362  0.1592  0.2356 -0.0046
 5852TIP3    H138971   1.802   3.849  15.315  0.4194  1.2546  0.2314
 5852TIP3    H238972   1.657   3.802  15.314  0.9924 -0.6049 -0.1357
 5853TIP3   OH238973   6.398   5.859   0.023  0.3763  0.0917  0.1075
 5853TIP3    H138974   6.416   5.935   0.078 -2.4814  2.2919 -1.6835
 5853TIP3    H238975   6.480   5.844  -0.025  1.6239  0.6859  1.9655
 5854TIP3   OH238976   4.185   4.190  13.943 -0.4865 -0.1535 -0.0587
 5854TIP3    H138977   4.118   4.178  14.010  0.7529  1.5147  1.5793
 5854TIP3    H238978   4.267   4.161  13.984  0.1279 -0.2831 -1.3038
 5855TIP3   OH238979   2.067   2.283   1.584 -0.2302  0.1140 -0.5126
 5855TIP3    H138980   2.159   2.272   1.560 -0.0350  2.9281 -1.3765
 5855TIP3    H238981   2.034   2.350   1.525 -3.0889 -1.2752 -0.6878
 5856TIP3   OH238982   3.911   5.785  14.414 -0.0138  0.0870  0.0564
 5856TIP3    H138983   3.976   5.717  14.397  0.4940  1.0638 -2.3818
 5856TIP3    H238984   3.957   5.850  14.467 -0.0459 -0.7278  1.1162
 5857TIP3   OH238985   5.247   3.887   2.321 -0.8164 -0.2353 -0.6376
 5857TIP3    H138986   5.325   3.840   2.350 -1.9523 -1.2527  0.9394
 5857TIP3    H238987   5.234   3.860   2.231 -0.5496 -1.7372 -0.2476
 5858TIP3   OH238988   1.345   1.063  16.404  0.2582 -0.1962 -0.1695
 5858TIP3    H138989   1.415   1.004  16.376 -0.5303 -0.9357 -0.6141
 5858TIP3    H238990   1.347   1.134  16.340  1.8178  0.7950  0.8950
 5859TIP3   OH238991   0.654   0.335  13.299  0.5737  0.1499 -0.6258
 5859TIP3    H138992   0.633   0.295  13.383 -0.2086  4.4744  1.5439
 5859TIP3    H238993   0.712   0.273  13.256 -0.0182 -2.8545  2.5261
 5860TIP3   OH238994   4.594   1.698  11.537 -0.2305  0.1967  0.1868
 5860TIP3    H138995   4.552   1.681  11.622 -0.0294  0.5457  0.3578
 5860TIP3    H238996   4.648   1.776  11.552  2.8046 -1.8593  0.8087
 5861TIP3   OH238997   0.245   0.602  16.570 -0.2470 -0.4842  0.0373
 5861TIP3    H138998   0.159   0.576  16.605 -0.1295 -1.2399 -0.2070
 5861TIP3    H238999   0.251   0.555  16.487  1.5018 -2.5746  1.2468
 5862TIP3   OH239000   1.454   4.551  10.847 -0.0275  0.3325 -0.1782
 5862TIP3    H139001   1.489   4.488  10.910  0.2574  1.4333  0.7834
 5862TIP3    H239002   1.363   4.523  10.834  0.2450 -0.5960 -0.2024
 5863TIP3   OH239003   2.209   1.667   3.911 -1.2107 -0.0329  0.2999
 5863TIP3    H139004   2.193   1.639   3.821 -0.6463 -1.4988  0.6287
 5863TIP3    H239005   2.299   1.700   3.911 -1.6017  1.0705  0.0905
 5864TIP3   OH239006   3.044   0.564  14.437  0.1907 -0.4105 -0.0308
 5864TIP3    H139007   3.059   0.561  14.532  0.3707  0.4760 -0.0193
 5864TIP3    H239008   3.106   0.501  14.401 -0.6409 -1.5794  0.5096
 5865TIP3   OH239009   6.460   4.261   3.765  0.7816  0.0718  0.0117
 5865TIP3    H139010   6.451   4.166   3.777  1.7882 -0.2405 -1.4508
 5865TIP3    H239011   6.542   4.283   3.809  0.6684  0.2246  0.1461
 5866TIP3   OH239012   5.201   2.543  12.864  0.0163  0.1401 -0.0193
 5866TIP3    H139013   5.106   2.551  12.865 -0.1383 -0.2778 -3.1929
 5866TIP3    H239014   5.218   2.455  12.900 -0.6928  0.4892  1.2354
 5867TIP3   OH239015   2.716   2.432  13.677  0.0856 -0.3696  0.7661
 5867TIP3    H139016   2.674   2.357  13.634  2.2505 -1.0512 -0.3690
 5867TIP3    H239017   2.710   2.413  13.770 -1.8934 -0.4997  0.6544
 5868TIP3   OH239018   2.600   4.354  10.583 -0.9519 -0.9256  0.3213
 5868TIP3    H139019   2.569   4.334  10.494 -0.6528  0.1122 -0.0305
 5868TIP3    H239020   2.609   4.268  10.625 -2.5238 -1.3589 -0.1529
 5869TIP3   OH239021   3.336   3.449   1.180  0.4681 -0.0160  0.2154
 5869TIP3    H139022   3.324   3.437   1.275 -1.8703 -0.2634 -0.0418
 5869TIP3    H239023   3.395   3.524   1.173  1.1803 -0.3690  1.8582
 5870TIP3   OH239024   5.586   0.860  13.987 -0.2203  0.0141  0.4072
 5870TIP3    H139025   5.608   0.775  14.024 -0.5835 -0.6237 -0.8075
 5870TIP3    H239026   5.610   0.854  13.895  0.7020  1.5824  0.4970
 5871TIP3   OH239027   3.311   2.527  15.657  0.4977 -0.1155  0.6577
 5871TIP3    H139028   3.359   2.600  15.695 -0.7900 -0.3137  2.7781
 5871TIP3    H239029   3.223   2.560  15.643  0.0295 -1.0905  1.1906
 5872TIP3   OH239030   4.127   6.472  14.461  0.0438  0.1577  0.0918
 5872TIP3    H139031   4.096   6.493  14.373  0.3971  1.8017  0.3317
 5872TIP3    H239032   4.154   6.556  14.498  0.4280 -0.5813  1.5737
 5873TIP3   OH239033   4.287   1.077  16.598  0.6805  0.0883  0.3869
 5873TIP3    H139034   4.218   1.123  16.551  0.0862 -1.2977 -0.1368
 5873TIP3    H239035   4.350   1.146  16.621 -1.3297  1.5620  1.7865
 5874TIP3   OH239036   2.247   4.698  12.681  0.5711 -0.2700  0.2764
 5874TIP3    H139037   2.335   4.661  12.667  0.8021  0.7839 -1.2292
 5874TIP3    H239038   2.235   4.693  12.776  0.1879 -5.0108  0.2048
 5875TIP3   OH239039   4.252   2.135  15.288 -0.0892 -0.3482  0.1360
 5875TIP3    H139040   4.251   2.146  15.193 -0.4041  0.5707  0.2372
 5875TIP3    H239041   4.161   2.115  15.311 -0.1953  0.3527  0.3404
 5876TIP3   OH239042   2.014   6.733   4.533  0.3673 -0.0228 -0.5220
 5876TIP3    H139043   2.089   6.752   4.589 -0.5488  1.6419  0.2104
 5876TIP3    H239044   2.020   6.796   4.462  0.6548 -1.1060 -1.4909
 5877TIP3   OH239045   1.900   6.326   0.357  0.0848 -0.0463 -0.2117
 5877TIP3    H139046   1.965   6.293   0.419  3.1474  2.7634 -1.6456
 5877TIP3    H239047   1.844   6.384   0.409  1.6572  1.0750  0.3189
 5878TIP3   OH239048   5.729   0.963   5.079  0.3335  0.1087  0.0263
 5878TIP3    H139049   5.648   0.977   5.030  0.1817  0.1111  0.2778
 5878TIP3    H239050   5.732   1.035   5.141  1.0836  0.7297 -0.7153
 5879TIP3   OH239051   6.611   1.532   5.158  0.2669  0.2755  0.2145
 5879TIP3    H139052   6.586   1.606   5.102 -1.1888 -1.3016 -1.3609
 5879TIP3    H239053   6.528   1.501   5.195  0.8241 -0.6607  0.7302
 5880TIP3   OH239054   0.328   0.539   1.395  0.0582  0.7833 -0.4804
 5880TIP3    H139055   0.253   0.565   1.449 -0.5097 -2.4417  0.5162
 5880TIP3    H239056   0.404   0.553   1.451 -0.5186 -2.4437  1.3905
 5881TIP3   OH239057   4.967   2.964   4.388  0.3693 -0.3907  0.1638
 5881TIP3    H139058   4.912   3.040   4.403  2.5348  1.0943  1.1341
 5881TIP3    H239059   5.017   2.954   4.469  1.9276 -1.2729 -0.8468
 5882TIP3   OH239060   3.814   5.718  16.917 -0.6640 -0.4893 -0.0988
 5882TIP3    H139061   3.798   5.649  16.853 -0.7296  0.0231 -0.6492
 5882TIP3    H239062   3.835   5.795  16.864  1.3492 -0.5422  0.5180
 5883TIP3   OH239063   0.969   2.362  13.654 -0.0239  0.3006  0.0995
 5883TIP3    H139064   0.993   2.294  13.716  1.9279  1.0869  0.2826
 5883TIP3    H239065   0.916   2.317  13.588  0.7114 -1.2595  0.5266
 5884TIP3   OH239066   2.353   4.124  15.938  0.4428 -0.2760  0.2213
 5884TIP3    H139067   2.415   4.064  15.979  1.7850  0.1085 -1.1813
 5884TIP3    H239068   2.381   4.211  15.968  0.4631 -0.1127 -0.2652
 5885TIP3   OH239069   3.301   3.687   4.537 -0.1754  0.1499  0.2690
 5885TIP3    H139070   3.345   3.651   4.459 -0.4786  1.2048 -0.4088
 5885TIP3    H239071   3.210   3.696   4.511 -0.3125  0.3483  0.8085
 5886TIP3   OH239072   3.814   4.576   2.238  0.1433  0.2553 -0.3586
 5886TIP3    H139073   3.812   4.644   2.170  0.6482  0.7211  0.0851
 5886TIP3    H239074   3.724   4.574   2.272  0.1621  0.8131 -0.2688
 5887TIP3   OH239075   5.479   6.187  17.242 -0.2348 -0.1355  0.0686
 5887TIP3    H139076   5.500   6.225  17.327  0.5541  0.4688 -0.3770
 5887TIP3    H239077   5.442   6.259  17.191  1.5099  0.1602 -0.8671
 5888TIP3   OH239078   6.645   2.362   5.238 -0.3634  0.1576 -0.5117
 5888TIP3    H139079   6.643   2.325   5.150  0.5453  0.1170 -0.5182
 5888TIP3    H239080   6.641   2.286   5.296 -1.3410  0.2006 -0.5036
 5889TIP3   OH239081   2.711   1.782   4.793 -0.0772 -0.0651 -1.0094
 5889TIP3    H139082   2.691   1.876   4.795 -0.6925 -0.2017 -0.3046
 5889TIP3    H239083   2.797   1.777   4.752 -0.3043  0.7620 -1.6111
 5890TIP3   OH239084   1.041   3.570  14.856 -0.1762 -0.2424 -0.1893
 5890TIP3    H139085   1.126   3.608  14.878 -0.1298 -0.7770  0.5846
 5890TIP3    H239086   0.979   3.614  14.914 -0.2093 -0.9017  0.2896
 5891TIP3   OH239087   0.069   5.831  14.925 -0.3073  0.1084 -0.3013
 5891TIP3    H139088   0.006   5.773  14.968 -1.5990  2.1486  0.6804
 5891TIP3    H239089   0.047   5.825  14.832  0.0823 -1.5037 -0.3215
 5892TIP3   OH239090   2.610   0.577   2.167  0.2443 -0.1503  0.4267
 5892TIP3    H139091   2.548   0.630   2.217  0.0428 -1.0933  1.2288
 5892TIP3    H239092   2.653   0.523   2.233  0.4600 -0.9482 -0.3483
 5893TIP3   OH239093   6.589   0.868   4.206  0.1041  0.1129  0.1210
 5893TIP3    H139094   6.630   0.953   4.227  0.9534 -0.5137  1.1286
 5893TIP3    H239095   6.510   0.865   4.260  2.0994 -1.3419  3.2567
 5894TIP3   OH239096   0.459   5.617  15.959 -0.0704  0.3103  0.1000
 5894TIP3    H139097   0.516   5.592  15.886 -0.1006 -0.8866  0.4671
 5894TIP3    H239098   0.501   5.694  15.997  0.2577  0.6004 -0.8165
 5895TIP3   OH239099   3.600   4.848   4.812 -0.2886  0.2312 -1.0207
 5895TIP3    H139100   3.560   4.846   4.899 -1.7058  0.1040 -1.6507
 5895TIP3    H239101   3.536   4.808   4.755  1.5565 -1.7899 -1.8113
 5896TIP3   OH239102   5.512   5.179   5.382  0.3703 -0.2888  1.0527
 5896TIP3    H139103   5.552   5.263   5.405  0.8651 -0.0303 -0.6116
 5896TIP3    H239104   5.557   5.152   5.302 -1.3476 -1.0245  0.2791
 5897TIP3   OH239105   5.674   3.751  13.721 -0.0271  0.4353  0.0512
 5897TIP3    H139106   5.675   3.842  13.752 -1.1893  0.6947 -0.5906
 5897TIP3    H239107   5.588   3.717  13.748  0.0079 -0.1534 -0.5483
 5898TIP3   OH239108   2.475   0.469   3.172 -0.0011  0.0302 -0.2916
 5898TIP3    H139109   2.519   0.550   3.147 -1.2545  0.8162 -0.0684
 5898TIP3    H239110   2.537   0.424   3.230  0.4655  1.1420  0.1034
 5899TIP3   OH239111   0.198   2.677   4.285 -0.1333  0.6059 -0.0204
 5899TIP3    H139112   0.118   2.635   4.317  0.3784 -1.0823 -0.8214
 5899TIP3    H239113   0.207   2.756   4.337 -1.7059  0.2273  0.8736
 5900TIP3   OH239114   4.845   0.502   4.015 -0.1620  0.5853  0.1996
 5900TIP3    H139115   4.781   0.549   3.961  0.5004  2.8758  1.2818
 5900TIP3    H239116   4.798   0.483   4.096  0.3647  2.0372  0.8919
 5901TIP3   OH239117   4.201   1.929   4.186 -0.1730  0.1215 -0.1837
 5901TIP3    H139118   4.187   1.915   4.093 -0.6349  0.0974 -0.1123
 5901TIP3    H239119   4.257   1.856   4.213 -0.6765 -0.3088 -0.2866
 5902TIP3   OH239120   4.356   2.346  17.132  0.0477 -0.1171 -0.2122
 5902TIP3    H139121   4.339   2.349  17.226 -2.1562 -0.7938 -0.5185
 5902TIP3    H239122   4.369   2.253  17.113 -0.5226 -0.1024 -0.7112
 5903TIP3   OH239123   6.340   2.317  15.653  0.2475  0.1138  0.2722
 5903TIP3    H139124   6.328   2.406  15.684  0.4078  0.4471 -0.5967
 5903TIP3    H239125   6.394   2.275  15.721  0.7008  0.8571  0.3887
 5904TIP3   OH239126   2.589   2.671  10.962  0.0855 -0.2456 -0.1307
 5904TIP3    H139127   2.641   2.633  10.891  0.8992  0.5653 -0.0035
 5904TIP3    H239128   2.598   2.766  10.950 -0.3841 -0.0927  0.6123
 5905TIP3   OH239129   3.275   2.062   0.317 -0.0017 -0.5320  0.1221
 5905TIP3    H139130   3.273   2.035   0.226 -1.4568 -0.8613  0.2358
 5905TIP3    H239131   3.255   1.983   0.366 -0.6896 -0.0402  0.6497
 5906TIP3   OH239132   3.447   2.102   2.256 -0.1711 -0.2734 -0.3828
 5906TIP3    H139133   3.373   2.161   2.246 -1.6077 -1.9770 -0.3375
 5906TIP3    H239134   3.502   2.119   2.179  1.2127  3.3134  1.1728
 5907TIP3   OH239135   3.767   6.642  14.332  0.1404 -0.1896  0.5407
 5907TIP3    H139136   3.714   6.662  14.408  0.2638 -0.4912  0.7082
 5907TIP3    H239137   3.855   6.672  14.355  0.0522  0.3039  0.2662
 5908TIP3   OH239138   2.691   6.005   3.900 -0.4435  0.1079  0.2047
 5908TIP3    H139139   2.676   6.001   3.806  0.4528 -0.6237  0.0733
 5908TIP3    H239140   2.689   5.913   3.928 -0.2609  0.2864  0.8189
 5909TIP3   OH239141   4.431   3.467  15.378  0.5773 -0.4328 -0.9720
 5909TIP3    H139142   4.363   3.529  15.403 -0.1787 -0.2066 -3.3021
 5909TIP3    H239143   4.512   3.506  15.409 -0.2778 -0.5558  1.5894
 5910TIP3   OH239144   0.976   5.669  14.554 -0.4239 -0.4469 -0.0591
 5910TIP3    H139145   0.960   5.763  14.551  1.2610 -0.1467 -2.5392
 5910TIP3    H239146   1.066   5.662  14.586  0.6488 -0.9269 -2.9021
 5911TIP3   OH239147   3.406   1.205   5.628 -0.2037 -0.2377  0.0071
 5911TIP3    H139148   3.422   1.245   5.713 -4.0846  0.8685  0.4322
 5911TIP3    H239149   3.389   1.113   5.647  1.3697 -0.5359  0.0489
 5912TIP3   OH239150   4.613   4.771  13.599  0.6497 -0.1792  0.2874
 5912TIP3    H139151   4.523   4.744  13.619  0.3172 -0.7275 -1.6931
 5912TIP3    H239152   4.624   4.854  13.645 -1.2024  0.3620 -0.1566
 5913TIP3   OH239153   3.109   2.768  12.908 -0.0079 -0.5738 -0.2229
 5913TIP3    H139154   3.068   2.693  12.866 -1.2918 -1.1780  1.9571
 5913TIP3    H239155   3.203   2.750  12.905 -0.0643 -0.7623 -2.3765
 5914TIP3   OH239156   2.432   3.179  16.445 -0.0019 -0.4936  0.3709
 5914TIP3    H139157   2.486   3.251  16.411 -0.4801  0.1287  0.8913
 5914TIP3    H239158   2.490   3.131  16.504 -0.1576  0.5586  1.4397
 5915TIP3   OH239159   4.367   2.671   6.295  0.5052 -0.1957  0.5059
 5915TIP3    H139160   4.401   2.673   6.205 -0.3306 -0.2244  0.1771
 5915TIP3    H239161   4.445   2.682   6.350  1.0109  0.0043 -0.2222
 5916TIP3   OH239162   3.167   4.801   4.354 -0.1216 -0.3781 -0.1389
 5916TIP3    H139163   3.111   4.847   4.416  0.3605  1.0980 -0.7647
 5916TIP3    H239164   3.221   4.744   4.409 -2.1552 -1.8465  0.4822
 5917TIP3   OH239165   4.096   1.692   3.211 -0.1599  0.7675 -0.7572
 5917TIP3    H139166   4.125   1.628   3.146 -0.7387  0.8046 -1.0537
 5917TIP3    H239167   4.147   1.770   3.191  2.0745 -0.1576  0.8710
 5918TIP3   OH239168   4.538   4.397  15.510 -0.0852  0.7396 -0.2440
 5918TIP3    H139169   4.575   4.380  15.424 -2.4810  0.0112 -1.2147
 5918TIP3    H239170   4.488   4.478  15.500 -1.3732  0.0220  0.0788
 5919TIP3   OH239171   3.451   4.671  14.303 -0.7115  0.0102  0.2764
 5919TIP3    H139172   3.456   4.746  14.363 -0.3990 -0.6249  1.0570
 5919TIP3    H239173   3.360   4.669  14.274 -1.2814 -0.6271  1.9885
 5920TIP3   OH239174   3.491   1.755  15.423 -0.0317 -0.5902 -0.7695
 5920TIP3    H139175   3.417   1.727  15.477 -0.5376  1.3792 -0.3379
 5920TIP3    H239176   3.453   1.767  15.336 -0.9240  2.7263 -0.0622
 5921TIP3   OH239177   4.327   5.390  11.921  0.5219  0.1150 -0.6551
 5921TIP3    H139178   4.418   5.381  11.947  0.2565  0.9525  0.6446
 5921TIP3    H239179   4.299   5.302  11.897  1.6082 -0.1744 -0.8779
 5922TIP3   OH239180   1.395   1.896  12.665  0.2825  0.3445 -0.2104
 5922TIP3    H139181   1.400   1.931  12.754 -1.4203  0.3646 -0.0924
 5922TIP3    H239182   1.302   1.885  12.649  0.6148 -0.5908 -1.6476
 5923TIP3   OH239183   1.618   0.958  13.213  0.1445  0.5678 -0.5627
 5923TIP3    H139184   1.663   0.902  13.276 -2.0526 -0.0440  0.5757
 5923TIP3    H239185   1.604   1.040  13.260 -2.8952 -0.4102  0.4737
 5924TIP3   OH239186   4.581   5.138  14.444 -0.2631  1.0788 -0.2423
 5924TIP3    H139187   4.565   5.232  14.447 -1.6061  0.8918 -0.8012
 5924TIP3    H239188   4.498   5.101  14.414  0.5473 -0.1973 -0.9786
 5925TIP3   OH239189   3.018   5.874   4.136 -0.1562  0.0086 -0.4149
 5925TIP3    H139190   2.985   5.807   4.076 -1.0251  0.5296 -0.5305
 5925TIP3    H239191   3.107   5.846   4.156 -0.1374 -0.6062 -1.3081
 5926TIP3   OH239192   1.698   2.483  16.541  0.2825  0.1238 -0.0874
 5926TIP3    H139193   1.744   2.528  16.470  0.1345 -0.3956 -0.5183
 5926TIP3    H239194   1.766   2.462  16.605  0.6971 -0.8141 -0.8091
 5927TIP3   OH239195   1.150   1.239  15.716  0.4376  0.4197 -0.4654
 5927TIP3    H139196   1.227   1.268  15.666  2.0165 -1.5724  0.6511
 5927TIP3    H239197   1.128   1.313  15.772  2.2567  0.6927 -0.0433
 5928TIP3   OH239198   1.418   2.533   3.636  0.2566 -0.4387 -0.5444
 5928TIP3    H139199   1.471   2.578   3.570 -0.5995 -1.2154 -1.8128
 5928TIP3    H239200   1.328   2.545   3.606 -0.0656 -1.9398 -0.2652
 5929TIP3   OH239201   3.195   0.682  13.462 -0.8220 -0.2770 -0.2738
 5929TIP3    H139202   3.248   0.758  13.438 -1.3609 -0.5497 -2.6283
 5929TIP3    H239203   3.150   0.708  13.542 -1.5255  2.1954 -1.3799
 5930TIP3   OH239204   1.521   0.331  14.262  0.3460 -0.0273  0.6378
 5930TIP3    H139205   1.568   0.248  14.256  1.7276  0.7502  0.2319
 5930TIP3    H239206   1.500   0.353  14.171  0.9071  0.5559  0.6402
 5931TIP3   OH239207   6.492   5.083  15.801 -0.3524  0.0770 -0.3849
 5931TIP3    H139208   6.527   5.074  15.890 -0.4642  2.9205  0.0602
 5931TIP3    H239209   6.550   5.029  15.747  0.7501 -0.4027  1.1912
 5932TIP3   OH239210   1.391   0.616  17.076 -0.0670  0.0166  0.3418
 5932TIP3    H139211   1.447   0.597  17.000 -1.4110 -0.6373 -0.5315
 5932TIP3    H239212   1.449   0.660  17.138  1.1391  0.3457 -0.9584
 5933TIP3   OH239213   0.957   5.468  13.781 -0.1006 -0.5564  0.2522
 5933TIP3    H139214   1.049   5.492  13.766 -0.3514  0.3824  0.1481
 5933TIP3    H239215   0.922   5.542  13.832 -0.9309 -0.6737 -0.1454
 5934TIP3   OH239216   1.538   1.711  14.799 -0.0688 -0.0880 -0.2495
 5934TIP3    H139217   1.447   1.719  14.769  0.4131  1.1990 -1.5591
 5934TIP3    H239218   1.558   1.618  14.793 -1.4915 -0.4844  0.7286
 5935TIP3   OH239219   2.349   1.503  13.874 -0.0283 -0.0894 -0.2961
 5935TIP3    H139220   2.444   1.491  13.874 -0.1532 -1.3046  0.5605
 5935TIP3    H239221   2.318   1.440  13.809 -0.1392  1.7441 -2.1108
 5936TIP3   OH239222   3.562   4.556  15.961  0.2893 -0.0064 -0.0357
 5936TIP3    H139223   3.567   4.611  15.883 -1.8480 -0.4718 -0.5750
 5936TIP3    H239224   3.576   4.617  16.034  2.1515  0.4607 -0.7446
 5937TIP3   OH239225   2.326   1.752  14.049  0.1975  0.4307  0.2366
 5937TIP3    H139226   2.338   1.833  14.000 -1.8792  0.1584 -0.8340
 5937TIP3    H239227   2.299   1.688  13.984 -0.9303 -0.4008  1.4555
 5938TIP3   OH239228   6.469   3.624  15.338 -0.4926 -0.6101  0.0848
 5938TIP3    H139229   6.507   3.698  15.386 -0.1104 -0.7197 -0.0462
 5938TIP3    H239230   6.379   3.619  15.370  0.1225 -1.5344  1.8149
 5939TIP3   OH239231   5.568   1.047   2.441 -0.3426  0.2043 -0.7051
 5939TIP3    H139232   5.616   1.025   2.362 -0.2216  0.4306 -0.6959
 5939TIP3    H239233   5.490   1.093   2.409 -0.8139 -0.6119 -0.7491
 5940TIP3   OH239234   4.616   3.163   6.643 -0.0853 -0.1137  0.1513
 5940TIP3    H139235   4.585   3.108   6.571  0.0701 -0.0089  0.0058
 5940TIP3    H239236   4.656   3.101   6.705  1.0287 -0.0601 -0.4947
 5941TIP3   OH239237   4.679   0.941   3.803 -0.3651 -0.2764  0.3499
 5941TIP3    H139238   4.729   1.017   3.775 -2.4003  0.1568 -2.5591
 5941TIP3    H239239   4.662   0.956   3.896 -1.1673  3.1583 -0.2318
 5942TIP3   OH239240   0.733   4.981   3.694  0.2613 -0.0633 -0.1636
 5942TIP3    H139241   0.709   5.026   3.613  1.7086 -0.7423 -0.9974
 5942TIP3    H239242   0.775   5.049   3.748  0.5732  0.0683 -0.5675
 5943TIP3   OH239243   3.146   4.084   0.538 -0.9369  0.2887 -0.2082
 5943TIP3    H139244   3.199   4.163   0.547 -3.1699  2.0870 -1.7247
 5943TIP3    H239245   3.090   4.084   0.616  1.1355 -1.6507  1.4333
 5944TIP3   OH239246   6.722   0.487  12.244  0.7044  0.2330 -0.9927
 5944TIP3    H139247   6.638   0.527  12.267  0.0685 -0.0787 -2.6327
 5944TIP3    H239248   6.787   0.542  12.287 -0.3247  0.5837  0.1663
 5945TIP3   OH239249   6.134   4.518  13.681  0.5902 -0.0479  0.0727
 5945TIP3    H139250   6.153   4.606  13.713 -1.3831  0.1841  0.7471
 5945TIP3    H239251   6.088   4.476  13.754  0.0928 -1.0914 -0.8208
 5946TIP3   OH239252   3.225   5.957  12.566 -0.3046  0.0477  0.0023
 5946TIP3    H139253   3.280   5.960  12.644 -1.1088  1.3120  0.5609
 5946TIP3    H239254   3.284   5.981  12.494  0.2219 -0.1504  0.3630
 5947TIP3   OH239255   0.527   4.988   0.378 -0.2636  0.0513  0.3978
 5947TIP3    H139256   0.496   4.935   0.452  1.4045 -2.2911 -0.4757
 5947TIP3    H239257   0.615   4.956   0.361 -0.2520  1.1790 -2.0403
 5948TIP3   OH239258   0.873   4.912   4.529 -0.5932 -0.1451  0.2498
 5948TIP3    H139259   0.847   4.820   4.518 -0.7623 -0.2113  1.1182
 5948TIP3    H239260   0.969   4.910   4.523 -0.6616 -0.1385 -1.2869
 5949TIP3   OH239261   0.229   4.150  12.713  0.3411  0.3290 -0.1231
 5949TIP3    H139262   0.171   4.136  12.638  1.2539 -1.6941 -0.5127
 5949TIP3    H239263   0.184   4.111  12.787  0.7010 -0.2621 -0.2095
 5950TIP3   OH239264   0.687   0.544  13.742  0.1315 -0.2940  0.2120
 5950TIP3    H139265   0.623   0.545  13.670  1.5669 -0.3939 -1.1103
 5950TIP3    H239266   0.710   0.636  13.755  0.8398 -0.3762 -0.3789
 5951TIP3   OH239267   4.083   0.725  16.611 -0.4349  0.3407 -0.0466
 5951TIP3    H139268   4.067   0.719  16.705 -1.6120 -1.0530 -0.2964
 5951TIP3    H239269   4.009   0.776  16.577 -1.0921 -0.8071 -0.4225
 5952TIP3   OH239270   5.039   3.434   3.285 -0.2121 -0.5227  0.4366
 5952TIP3    H139271   4.949   3.466   3.282  0.0525  0.1591 -0.4216
 5952TIP3    H239272   5.052   3.388   3.202  0.7327  0.8102 -0.1897
 5953TIP3   OH239273   2.990   4.816   1.719 -0.0557  0.5960 -0.5199
 5953TIP3    H139274   2.977   4.744   1.781 -1.6860  2.3627  1.3651
 5953TIP3    H239275   3.052   4.874   1.763  0.8147  0.6440 -1.7684
 5954TIP3   OH239276   3.365   5.340  16.813  0.2410 -0.4261  0.5000
 5954TIP3    H139277   3.355   5.333  16.718  1.7987  0.9490  0.1748
 5954TIP3    H239278   3.304   5.409  16.838 -1.4303 -1.9641  0.7983
 5955TIP3   OH239279   0.230   0.022   2.336 -0.1828 -0.3841 -0.0178
 5955TIP3    H139280   0.307  -0.032   2.317 -0.9213 -2.4555  2.3097
 5955TIP3    H239281   0.169   0.002   2.265  0.1466 -1.4657 -0.0237
 5956TIP3   OH239282   6.590   6.612  13.413 -0.3118 -0.2132 -0.5950
 5956TIP3    H139283   6.661   6.580  13.468 -1.0558  1.2526  1.3330
 5956TIP3    H239284   6.621   6.698  13.383 -1.5941  0.9126  1.1090
 5957TIP3   OH239285   5.555   4.160   2.296  0.2385  0.3204 -0.6729
 5957TIP3    H139286   5.597   4.121   2.219  0.7916 -0.8778  0.1969
 5957TIP3    H239287   5.620   4.221   2.330  0.7554 -0.5046 -0.1302
 5958TIP3   OH239288   6.377   2.079   6.578  0.2846 -0.2196 -0.4734
 5958TIP3    H139289   6.285   2.105   6.568  0.7498  0.9747 -2.1854
 5958TIP3    H239290   6.395   2.026   6.500  0.5436 -2.1651  0.8459
 5959TIP3   OH239291   1.011   5.810   2.858 -0.0427 -0.2015 -0.1549
 5959TIP3    H139292   0.944   5.840   2.797 -0.5121  0.9929  0.8915
 5959TIP3    H239293   1.065   5.887   2.875  0.9674 -0.8847 -0.1689
 5960TIP3   OH239294   5.421   5.106   2.944 -0.7260  0.4414 -0.3232
 5960TIP3    H139295   5.422   5.037   3.011 -1.0117  0.9471  0.2129
 5960TIP3    H239296   5.375   5.067   2.870 -0.2058 -0.2031 -0.3189
 5961TIP3   OH239297   2.899   1.923  13.244  0.1676  0.0303  0.5881
 5961TIP3    H139298   2.895   2.018  13.228 -1.2131 -0.3756 -2.0477
 5961TIP3    H239299   2.989   1.907  13.273  0.6135  2.0610  0.4747
 5962TIP3   OH239300   1.983   0.831  14.654  0.4905  0.5794 -0.3193
 5962TIP3    H139301   1.947   0.804  14.570 -0.8973  0.7681  0.1895
 5962TIP3    H239302   1.950   0.767  14.717  0.5778  1.0869  0.2615
 5963TIP3   OH239303   5.009   2.045   4.739 -0.1752  0.9839  0.2674
 5963TIP3    H139304   5.043   1.989   4.669 -1.5651  0.9937 -0.4512
 5963TIP3    H239305   5.085   2.094   4.769  0.5393  0.6865 -0.9703
 5964TIP3   OH239306   2.125   3.698   6.539  0.6544 -0.1332 -0.3127
 5964TIP3    H139307   2.181   3.627   6.508 -0.4180 -1.2772  0.2937
 5964TIP3    H239308   2.105   3.674   6.630 -0.3380  0.5583 -0.3418
 5965TIP3   OH239309   2.083   1.583   4.769  0.6829 -0.3243  0.1014
 5965TIP3    H139310   2.043   1.606   4.853  0.7944  0.4991 -0.0654
 5965TIP3    H239311   2.038   1.638   4.705  1.3381 -0.1691 -0.2315
 5966TIP3   OH239312   3.170   6.488   6.282 -0.3125  0.5231  0.5775
 5966TIP3    H139313   3.249   6.493   6.336 -0.1789  2.2248  0.2870
 5966TIP3    H239314   3.100   6.465   6.343  0.3830 -1.0560  0.8326
 5967TIP3   OH239315   3.414   0.437   5.676 -0.1157  0.3852  0.2027
 5967TIP3    H139316   3.490   0.388   5.709 -0.7761  0.2733  1.6055
 5967TIP3    H239317   3.338   0.388   5.707 -0.7762  0.5538 -1.1101
 5968TIP3   OH239318   3.838   6.437  13.751 -0.4877 -0.2430  0.2659
 5968TIP3    H139319   3.789   6.411  13.829 -1.5722  2.1065  0.4647
 5968TIP3    H239320   3.864   6.527  13.769  0.2849 -0.0537 -1.6159
 5969TIP3   OH239321   5.578   5.778  11.768 -0.0670  0.2947 -0.3312
 5969TIP3    H139322   5.534   5.695  11.751 -1.8517  0.9582  0.7245
 5969TIP3    H239323   5.643   5.757  11.835 -0.6293 -0.2421  0.0660
 5970TIP3   OH239324   4.416   0.279   1.404  0.1445  0.2155  0.5007
 5970TIP3    H139325   4.450   0.368   1.395  1.2565 -0.3574 -1.6632
 5970TIP3    H239326   4.489   0.223   1.381 -1.5034 -1.1552 -1.7721
 5971TIP3   OH239327   2.325   0.635  16.361 -0.2241 -0.1190 -0.0667
 5971TIP3    H139328   2.324   0.544  16.331  0.1659 -0.2422  0.2818
 5971TIP3    H239329   2.413   0.647  16.398  0.7815  1.2185 -2.5966
 5972TIP3   OH239330   6.352   4.630   4.744 -0.4217  0.4536  0.4464
 5972TIP3    H139331   6.257   4.616   4.744 -0.6811  2.0463  0.5408
 5972TIP3    H239332   6.367   4.690   4.816  0.8492 -0.7202  1.2131
 5973TIP3   OH239333   5.716   1.659   5.618  0.1559  0.2837  0.1175
 5973TIP3    H139334   5.693   1.752   5.626  0.5693  0.4830 -0.7944
 5973TIP3    H239335   5.771   1.656   5.539 -1.1275 -0.9563 -0.7796
 5974TIP3   OH239336   1.314   5.605  17.344 -0.5677 -0.5820 -0.0074
 5974TIP3    H139337   1.397   5.559  17.334 -0.1261  0.3251 -0.5828
 5974TIP3    H239338   1.302   5.654  17.263  0.2039  2.2652  1.4488
 5975TIP3   OH239339   6.067   6.042  14.126 -0.4373  0.2597  0.2751
 5975TIP3    H139340   6.145   6.071  14.173  1.0030 -0.9869 -1.2165
 5975TIP3    H239341   6.024   6.123  14.099 -0.1416  0.9697  1.8237
 5976TIP3   OH239342   3.355   3.836  17.318 -0.1412  0.4631 -0.0504
 5976TIP3    H139343   3.364   3.813  17.225 -0.0085  2.9610 -0.7147
 5976TIP3    H239344   3.292   3.772  17.351 -1.0787  0.1981 -2.1480
 5977TIP3   OH239345   5.684   0.946  15.881  0.7524  0.1969  0.2505
 5977TIP3    H139346   5.656   0.991  15.961 -0.5338  1.1155 -0.6800
 5977TIP3    H239347   5.658   0.854  15.896 -1.1667  0.6864  0.1756
 5978TIP3   OH239348   2.562   5.409  11.398  0.2921 -0.2340 -0.1222
 5978TIP3    H139349   2.494   5.414  11.466  0.7917 -1.2063  0.4586
 5978TIP3    H239350   2.617   5.485  11.414  1.2267 -1.1923  1.4832
 5979TIP3   OH239351   1.313   4.254  15.703 -0.0836 -0.4147  0.5562
 5979TIP3    H139352   1.386   4.260  15.642 -0.5390  1.1273  0.1025
 5979TIP3    H239353   1.299   4.161  15.716  0.4884 -0.7689 -1.1454
 5980TIP3   OH239354   1.180   5.109   0.845 -0.2283  0.1446  0.7560
 5980TIP3    H139355   1.168   5.156   0.763  1.7033 -1.1641 -0.3631
 5980TIP3    H239356   1.170   5.175   0.913 -2.0476  1.2313 -0.4741
 5981TIP3   OH239357   3.614   5.559  13.239 -0.0467  0.3784  0.1437
 5981TIP3    H139358   3.670   5.487  13.211 -0.0229  0.5366 -0.2281
 5981TIP3    H239359   3.567   5.526  13.315  0.0304  0.0039  0.0269
 5982TIP3   OH239360   0.998   0.832   3.314 -0.5729 -0.0620 -0.1247
 5982TIP3    H139361   0.982   0.775   3.239 -0.1323 -1.3909  0.7472
 5982TIP3    H239362   0.922   0.820   3.370 -0.7354  0.6552 -0.1828
 5983TIP3   OH239363   3.460   1.519  11.182  0.4649 -0.2987 -0.4434
 5983TIP3    H139364   3.437   1.601  11.225 -1.5086 -0.6877 -0.6632
 5983TIP3    H239365   3.555   1.518  11.181  0.5375  1.9707 -0.4122
 5984TIP3   OH239366   4.859   4.488  15.550 -0.4197 -0.3707 -0.1912
 5984TIP3    H139367   4.954   4.488  15.565 -0.7012 -0.3565  1.8959
 5984TIP3    H239368   4.822   4.477  15.638 -2.3714  0.5444 -0.8648
 5985TIP3   OH239369   3.184   4.776   5.338  0.3552  0.4048  0.0866
 5985TIP3    H139370   3.221   4.859   5.310  1.2409 -0.5369 -1.6290
 5985TIP3    H239371   3.165   4.729   5.257 -2.5207 -0.0949  0.9223
 5986TIP3   OH239372   1.969   0.665  10.636  0.1247  0.3635 -0.3033
 5986TIP3    H139373   1.957   0.598  10.703 -0.6845 -0.0945 -0.8955
 5986TIP3    H239374   2.058   0.699  10.652  0.1461 -0.0972  0.6576
 5987TIP3   OH239375   0.034   1.327   5.773  1.0195 -0.0965 -0.1217
 5987TIP3    H139376  -0.040   1.387   5.787  1.9585  0.8768  0.8842
 5987TIP3    H239377   0.013   1.281   5.692  0.6438  2.1642 -1.3771
 5988TIP3   OH239378   6.034   0.308  16.212 -0.2577  0.0116 -0.2641
 5988TIP3    H139379   6.043   0.398  16.179  3.8842  0.3131  1.0669
 5988TIP3    H239380   5.988   0.318  16.295  1.9797  1.3185  0.9033
 5989TIP3   OH239381   5.212   2.926   5.773  0.0297  0.0934  0.2100
 5989TIP3    H139382   5.178   2.939   5.862 -0.7813 -2.0701  0.2861
 5989TIP3    H239383   5.281   2.860   5.784  1.3107  1.2467 -0.5519
 5990TIP3   OH239384   1.564   4.208   2.812  0.2220  0.4290  0.1393
 5990TIP3    H139385   1.494   4.241   2.869 -0.8850  0.1603 -1.0205
 5990TIP3    H239386   1.622   4.159   2.870 -0.3467  0.9731  1.1866
 5991TIP3   OH239387   2.102   4.359   0.742 -0.0875 -0.0432 -0.3196
 5991TIP3    H139388   2.040   4.426   0.714  1.1221  1.0817 -0.3665
 5991TIP3    H239389   2.076   4.337   0.831  0.3478  1.5423  0.2330
 5992TIP3   OH239390   3.943   2.806  14.975 -0.3201  0.5760  0.0982
 5992TIP3    H139391   3.966   2.743  15.043  0.6286 -0.0758 -0.7923
 5992TIP3    H239392   4.019   2.864  14.969  0.7444 -0.9049 -2.0866
 5993TIP3   OH239393   5.361   2.734  13.558 -0.1109 -0.1366 -0.4767
 5993TIP3    H139394   5.450   2.740  13.523 -0.5857 -0.9348 -1.9076
 5993TIP3    H239395   5.305   2.761  13.485 -1.0390  0.8596  0.5586
 5994TIP3   OH239396   6.701   6.305  14.663  1.0891  0.5345  0.2445
 5994TIP3    H139397   6.785   6.261  14.666 -0.3293 -2.3618  0.7559
 5994TIP3    H239398   6.652   6.269  14.737 -1.1187  0.9511 -0.9211
 5995TIP3   OH239399   2.659   5.802  12.306  0.3662  0.5490  0.0528
 5995TIP3    H139400   2.574   5.790  12.348  0.9264  0.4909  1.2036
 5995TIP3    H239401   2.672   5.721  12.256  0.8677 -0.6091  1.9412
 5996TIP3   OH239402   1.823   1.750   1.036  0.0683  0.0922  0.2100
 5996TIP3    H139403   1.781   1.835   1.048 -0.5816 -0.1480 -0.2673
 5996TIP3    H239404   1.915   1.769   1.023 -0.1807  0.7783 -0.5946
 5997TIP3   OH239405   5.351   2.392  13.805  0.1642 -0.7331  0.0518
 5997TIP3    H139406   5.300   2.314  13.784  0.6105 -0.6414 -1.5447
 5997TIP3    H239407   5.301   2.465  13.767 -0.2370 -0.2189  1.5049
 5998TIP3   OH239408   6.045   4.162  13.677 -0.0021 -0.1077  0.6742
 5998TIP3    H139409   6.030   4.092  13.613  0.5422  0.8016 -0.4686
 5998TIP3    H239410   6.121   4.131  13.728  0.9054  0.1062 -0.5178
 5999TIP3   OH239411   2.504   3.358   5.031 -0.1826 -0.0051 -0.3716
 5999TIP3    H139412   2.554   3.407   5.096  0.0172  0.2294 -0.7000
 5999TIP3    H239413   2.499   3.269   5.067  0.1073  0.0695 -0.1385
 6000TIP3   OH239414   2.574   3.834  13.079 -1.2107 -0.3004 -0.3755
 6000TIP3    H139415   2.500   3.818  13.020 -0.9598 -1.3131 -0.4366
 6000TIP3    H239416   2.546   3.907  13.134 -1.5048  0.5934 -1.6606
 6001TIP3   OH239417   3.853   5.356  11.845  0.2847  0.3091 -0.4365
 6001TIP3    H139418   3.846   5.267  11.880 -0.2020  0.8900  1.0068
 6001TIP3    H239419   3.905   5.404  11.910  0.4255  1.1304 -1.1251
 6002TIP3   OH239420   2.779   3.535  12.229  0.6577 -0.7261  0.3307
 6002TIP3    H139421   2.874   3.548  12.229  0.5396  0.2500 -0.1531
 6002TIP3    H239422   2.756   3.522  12.321  1.1492 -0.0403  0.5564
 6003TIP3   OH239423   6.752   3.497  11.898  0.3145  0.0746  0.2521
 6003TIP3    H139424   6.736   3.464  11.986 -2.4065  1.8862  0.5840
 6003TIP3    H239425   6.831   3.550  11.905 -0.4378  1.0300  1.8885
 6004TIP3   OH239426   3.644   2.788  14.337  0.2764  0.2423  0.1342
 6004TIP3    H139427   3.596   2.805  14.418  0.4340  0.9466  0.0889
 6004TIP3    H239428   3.589   2.825  14.268  0.0939 -0.4460 -0.0952
 6005TIP3   OH239429   3.362   4.033   2.954  0.0186  0.1087 -0.0803
 6005TIP3    H139430   3.335   3.977   3.027  1.4383 -0.5392 -0.0234
 6005TIP3    H239431   3.451   4.060   2.976 -0.1647  1.3357 -0.7482
 6006TIP3   OH239432   5.019   1.557   3.689  0.1997  0.0020  0.0397
 6006TIP3    H139433   4.977   1.472   3.701  1.0865 -0.1700  2.6010
 6006TIP3    H239434   4.948   1.620   3.697 -0.1752 -0.4313  0.1983
 6007TIP3   OH239435   4.999   2.052   1.322 -0.4011 -0.0030 -0.2965
 6007TIP3    H139436   4.928   2.113   1.344 -2.0117 -2.0695  0.5432
 6007TIP3    H239437   4.972   2.012   1.240  1.0689  0.9559 -1.2977
 6008TIP3   OH239438   2.719   5.643   2.196  0.6164 -0.5986 -0.5601
 6008TIP3    H139439   2.716   5.554   2.232  2.0431 -0.7928 -0.8276
 6008TIP3    H239440   2.750   5.697   2.269  0.0245 -0.3727 -0.4782
 6009TIP3   OH239441   6.317   3.370   4.996 -0.0875 -0.3415  0.1929
 6009TIP3    H139442   6.303   3.416   4.913 -1.4605 -0.2676  0.4521
 6009TIP3    H239443   6.399   3.322   4.983  1.3830  2.1012 -0.1080
 6010TIP3   OH239444   0.601   3.243   4.865 -0.1135  0.4217  0.2079
 6010TIP3    H139445   0.554   3.217   4.786  0.4421 -0.8316  0.2527
 6010TIP3    H239446   0.613   3.337   4.857 -1.6041  0.5880 -0.3472
 6011TIP3   OH239447   1.706   0.384  15.108  0.3599 -0.2154 -0.2329
 6011TIP3    H139448   1.739   0.465  15.069 -1.7218  0.9469  0.2525
 6011TIP3    H239449   1.703   0.402  15.202 -2.1680  0.0429 -0.2839
 6012TIP3   OH239450   1.172   3.935   0.644  0.6109  0.3119 -0.2737
 6012TIP3    H139451   1.096   3.925   0.587  1.0781  0.5179 -0.9457
 6012TIP3    H239452   1.136   3.972   0.725 -0.0126  0.3240 -0.5481
 6013TIP3   OH239453   4.010   4.535  14.795 -0.1562 -0.0757 -0.0808
 6013TIP3    H139454   4.004   4.552  14.701 -0.5785 -1.0309 -0.2398
 6013TIP3    H239455   4.017   4.622  14.835  1.4346  0.2931 -1.0786
 6014TIP3   OH239456   0.901   3.798   4.090  0.2051 -0.2406  0.2747
 6014TIP3    H139457   0.947   3.824   4.169  2.6987  2.3267 -1.8108
 6014TIP3    H239458   0.919   3.704   4.081  1.1005 -0.2555  1.9397
 6015TIP3   OH239459   3.627   3.021   0.938 -0.1908  0.4860 -0.2510
 6015TIP3    H139460   3.609   3.051   0.850 -0.1057 -0.4389 -0.5975
 6015TIP3    H239461   3.714   3.055   0.959 -0.3627  1.0021 -0.3872
 6016TIP3   OH239462   5.775   6.228  17.090 -0.3259  0.6766 -0.0294
 6016TIP3    H139463   5.818   6.222  17.175 -1.3934  0.0389  0.4827
 6016TIP3    H239464   5.790   6.143  17.049 -1.6052  0.2254  0.4126
 6017TIP3   OH239465   2.256   5.161   4.570  0.0265  0.6710 -0.2441
 6017TIP3    H139466   2.217   5.097   4.629 -0.8583  0.5474 -0.9381
 6017TIP3    H239467   2.230   5.131   4.482  0.1414  1.6169 -0.6130
 6018TIP3   OH239468   1.546   6.158  10.748  0.0244 -0.3987  0.3980
 6018TIP3    H139469   1.542   6.248  10.716  0.5468  0.1946  1.9126
 6018TIP3    H239470   1.639   6.142  10.765 -0.0185 -1.3506 -0.1368
 6019TIP3   OH239471   3.312   6.457   2.575  0.4653  0.1529 -0.6045
 6019TIP3    H139472   3.239   6.412   2.616 -1.0719  2.1760 -0.9498
 6019TIP3    H239473   3.390   6.422   2.617 -0.7824 -1.1185  0.7207
 6020TIP3   OH239474   1.875   1.648   4.930 -0.1373 -0.0040  0.1358
 6020TIP3    H139475   1.826   1.582   4.880  0.6890  0.2401 -1.0308
 6020TIP3    H239476   1.861   1.730   4.882  2.0713 -0.0845 -0.7523
 6021TIP3   OH239477   2.087   1.176   4.719 -0.1497 -0.1429 -0.4277
 6021TIP3    H139478   2.086   1.192   4.625 -0.6441  1.9709 -0.1165
 6021TIP3    H239479   2.179   1.162   4.740  0.1810  1.0541 -1.0022
 6022TIP3   OH239480   5.992   1.096  16.804 -0.5784  0.0851  0.0778
 6022TIP3    H139481   6.062   1.162  16.801 -0.8185  0.3024 -1.4043
 6022TIP3    H239482   5.912   1.146  16.788 -0.8101 -0.4884 -0.5756
 6023TIP3   OH239483   3.435   0.609   6.538 -0.7315  0.3031  0.2334
 6023TIP3    H139484   3.435   0.515   6.520  0.6512  0.2087  0.5860
 6023TIP3    H239485   3.373   0.646   6.475 -0.4131 -0.7052 -0.7031
 6024TIP3   OH239486   6.359   5.346   2.492  0.3474  0.0689 -0.4353
 6024TIP3    H139487   6.451   5.334   2.516  0.5346  2.3659  0.3112
 6024TIP3    H239488   6.362   5.386   2.406  0.1816  1.6948  0.2740
 6025TIP3   OH239489   1.603   0.484   6.633 -0.1456 -0.0551  0.0100
 6025TIP3    H139490   1.646   0.539   6.698 -0.5101  0.9914 -0.6144
 6025TIP3    H239491   1.567   0.410   6.683  1.1712 -0.2385  0.7211
 6026TIP3   OH239492   5.811   6.608  12.900  0.1431 -0.2061  0.2820
 6026TIP3    H139493   5.828   6.528  12.950  0.8144 -1.3392 -1.6276
 6026TIP3    H239494   5.879   6.669  12.929  0.2363 -0.6654  1.0613
 6027TIP3   OH239495   0.841   3.881  16.135  0.5296 -0.1260  0.1605
 6027TIP3    H139496   0.808   3.807  16.186  1.8231 -0.3359  0.7346
 6027TIP3    H239497   0.813   3.863  16.046  1.6143 -1.8424  0.1084
 6028TIP3   OH239498   1.559   2.225   3.362 -0.0052  0.2409  0.0281
 6028TIP3    H139499   1.506   2.292   3.406 -1.4588  0.3375 -1.7407
 6028TIP3    H239500   1.616   2.275   3.304 -1.1969  0.0060 -1.4065
 6029TIP3   OH239501   6.402   6.154   3.059 -0.2842 -0.3325  0.9163
 6029TIP3    H139502   6.327   6.115   3.015  0.8234  0.4103 -1.8714
 6029TIP3    H239503   6.382   6.248   3.060 -0.0179 -0.2837  1.4433
 6030TIP3   OH239504   1.931   4.566   0.663  0.4078 -0.1377 -0.2417
 6030TIP3    H139505   1.954   4.632   0.729 -0.1141 -0.9611  0.7995
 6030TIP3    H239506   1.836   4.560   0.668 -0.0384  2.1339 -3.4194
 6031TIP3   OH239507   3.451   1.406   3.681  0.1073 -0.7321  0.4360
 6031TIP3    H139508   3.358   1.383   3.689 -0.8000  1.8085 -1.6306
 6031TIP3    H239509   3.476   1.435   3.769 -0.7607 -2.2105  1.2183
 6032TIP3   OH239510   6.326   3.464   6.114  0.3985  0.1857 -0.2083
 6032TIP3    H139511   6.233   3.476   6.136  0.6033 -0.3496  1.0888
 6032TIP3    H239512   6.350   3.543   6.066  0.4135  2.6165  3.4219
 6033TIP3   OH239513   1.999   6.686   5.519 -0.2414  0.2542  0.0374
 6033TIP3    H139514   1.910   6.701   5.488 -0.8151 -1.7959  0.5573
 6033TIP3    H239515   2.004   6.591   5.534  2.3331  0.1498 -0.9468
 6034TIP3   OH239516   6.296   0.867  14.032 -0.2348 -0.1647  0.2089
 6034TIP3    H139517   6.216   0.918  14.017 -0.7766 -0.9076  0.5103
 6034TIP3    H239518   6.294   0.844  14.125  1.1738  1.1904  0.6108
 6035TIP3   OH239519   6.367   4.842  15.532 -0.9027  0.9084  0.0631
 6035TIP3    H139520   6.370   4.753  15.498 -0.5986  0.9678 -0.0702
 6035TIP3    H239521   6.454   4.878  15.515 -1.4519  1.7255 -1.2040
 6036TIP3   OH239522   2.210   2.734  17.256 -0.0031  0.1473  0.2289
 6036TIP3    H139523   2.294   2.691  17.241  0.1044  0.3284  0.3136
 6036TIP3    H239524   2.154   2.665  17.292 -0.4838 -0.4903 -1.6286
 6037TIP3   OH239525   6.497   4.905   4.278 -0.3543  0.1700 -0.1196
 6037TIP3    H139526   6.430   4.885   4.344 -0.5108 -1.3593 -0.6963
 6037TIP3    H239527   6.575   4.857   4.308  0.6668  2.2150  0.7439
 6038TIP3   OH239528   2.181   4.249  12.266  0.4734 -0.3183 -1.0124
 6038TIP3    H139529   2.151   4.339  12.282 -1.3468 -1.3035  1.7121
 6038TIP3    H239530   2.159   4.233  12.175 -1.1015  1.3152 -0.9769
 6039TIP3   OH239531   6.466   6.710   2.096  0.2867  0.3994  0.1636
 6039TIP3    H139532   6.454   6.764   2.018 -1.5386 -0.2058 -0.0192
 6039TIP3    H239533   6.469   6.773   2.168 -0.2294  0.8404 -0.1931
 6040TIP3   OH239534   4.242   6.639  15.626 -0.3624 -0.1392 -0.5237
 6040TIP3    H139535   4.265   6.648  15.533 -0.3639 -1.1861 -0.6390
 6040TIP3    H239536   4.146   6.633  15.627 -0.5089  1.6843 -0.2710
 6041TIP3   OH239537   6.713   6.482  11.341 -0.2470  0.0889  0.7778
 6041TIP3    H139538   6.757   6.553  11.294 -3.5649  1.8400  0.0224
 6041TIP3    H239539   6.718   6.407  11.282  1.1516  0.3627  0.5074
 6042TIP3   OH239540   1.936   1.243  12.652  0.3600 -0.2209 -0.1361
 6042TIP3    H139541   1.854   1.283  12.625  0.2142 -0.1113  0.4514
 6042TIP3    H239542   1.953   1.176  12.586 -0.8010 -1.0396  0.3625
 6043TIP3   OH239543   5.383   1.186   3.900 -0.5648 -0.3383  0.2514
 6043TIP3    H139544   5.342   1.112   3.855 -1.0805  0.0458  0.0761
 6043TIP3    H239545   5.466   1.199   3.854  0.1030 -1.5597  1.0420
 6044TIP3   OH239546   2.886   6.028   0.533  1.0504  0.0322  0.7082
 6044TIP3    H139547   2.873   6.106   0.588 -0.6514 -0.5661  1.2211
 6044TIP3    H239548   2.843   5.957   0.581  0.1462 -0.6526 -1.0172
 6045TIP3   OH239549   0.456   5.462   3.112 -0.3845  0.2739 -0.1745
 6045TIP3    H139550   0.442   5.556   3.127  1.4373  0.4510  0.6135
 6045TIP3    H239551   0.507   5.458   3.031 -1.8708 -0.1774 -1.1435
 6046TIP3   OH239552   4.406   5.958  11.173 -0.1141 -0.0144  0.4459
 6046TIP3    H139553   4.390   5.870  11.139 -0.9483  0.7311 -1.2846
 6046TIP3    H239554   4.448   6.004  11.100  1.4932  0.6947  1.7554
 6047TIP3   OH239555   0.441   1.614  13.622  0.1932 -0.2590  0.1931
 6047TIP3    H139556   0.509   1.665  13.667  0.8414 -1.0962  0.1853
 6047TIP3    H239557   0.469   1.611  13.531 -0.0995 -0.2168  0.1001
 6048TIP3   OH239558   2.325   3.093  15.035 -0.3934  0.2329 -0.4716
 6048TIP3    H139559   2.246   3.054  14.998  0.3451 -1.4926 -0.3415
 6048TIP3    H239560   2.312   3.188  15.027 -0.7943  0.0014 -4.0593
 6049TIP3   OH239561   5.221   3.777  15.776  0.0768 -0.3929 -0.1535
 6049TIP3    H139562   5.287   3.795  15.843  2.5716 -1.6047 -2.0630
 6049TIP3    H239563   5.194   3.687  15.794 -0.8911  0.0044  0.4504
 6050TIP3   OH239564   1.120   6.263   5.607 -0.3072 -0.6518  0.0608
 6050TIP3    H139565   1.127   6.179   5.653 -0.5530 -1.4661 -1.3243
 6050TIP3    H239566   1.043   6.252   5.550  0.2633  0.1413 -0.8889
 6051TIP3   OH239567   6.412   3.103  16.029 -0.1289  0.2188 -0.2128
 6051TIP3    H139568   6.411   3.043  16.102  1.6258  0.3297 -0.0556
 6051TIP3    H239569   6.390   3.050  15.953 -0.4936 -0.2074  0.1922
 6052TIP3   OH239570   3.315   1.561   5.185  0.1151 -0.1921  0.7777
 6052TIP3    H139571   3.285   1.470   5.175  0.7869 -0.3311 -0.0201
 6052TIP3    H239572   3.405   1.553   5.215  1.1450  0.1411 -1.9601
 6053TIP3   OH239573   3.271   2.316   2.594 -0.0029  0.2372 -0.0976
 6053TIP3    H139574   3.224   2.234   2.605  4.1802 -2.7445 -1.8043
 6053TIP3    H239575   3.237   2.352   2.512 -2.2869  0.6338  0.9531
 6054TIP3   OH239576   3.493   1.615  13.212 -0.7845  0.7729 -0.8341
 6054TIP3    H139577   3.552   1.634  13.139 -0.8894 -0.2637 -1.2102
 6054TIP3    H239578   3.407   1.605  13.171 -0.9916  1.0037 -0.4567
 6055TIP3   OH239579   0.349   0.094  11.538 -0.5437  0.1958  0.1947
 6055TIP3    H139580   0.435   0.131  11.517  0.6354 -1.2132  2.1539
 6055TIP3    H239581   0.340   0.108  11.633 -2.1591 -0.3191  0.1426
 6056TIP3   OH239582   4.320   0.043  16.322  0.2013 -0.4766  0.0265
 6056TIP3    H139583   4.303   0.093  16.242 -0.2316  0.7240  0.8449
 6056TIP3    H239584   4.397  -0.011  16.301 -0.5757 -1.0258 -1.5523
 6057TIP3   OH239585   5.871   5.538   5.391 -0.1923  0.2488 -0.0787
 6057TIP3    H139586   5.932   5.475   5.353  1.3499  1.2754  0.6288
 6057TIP3    H239587   5.919   5.578   5.463 -1.7018  1.1172  0.4887
 6058TIP3   OH239588   3.832   2.873   5.489 -0.6306 -0.7718  0.1867
 6058TIP3    H139589   3.911   2.825   5.466  1.0132  2.3573 -1.3886
 6058TIP3    H239590   3.857   2.923   5.567  0.3147  2.7461 -2.1291
 6059TIP3   OH239591   3.866   0.349  11.894  0.5883 -0.3299  0.3374
 6059TIP3    H139592   3.849   0.443  11.883 -0.6283 -0.2610  2.3206
 6059TIP3    H239593   3.798   0.320  11.955  0.6299 -2.6260 -0.6020
 6060TIP3   OH239594   5.855   2.730   5.592 -0.3215 -0.3207  0.0584
 6060TIP3    H139595   5.874   2.780   5.513  4.1453 -0.0157  1.0518
 6060TIP3    H239596   5.882   2.641   5.571  2.0631 -0.0133  1.4156
 6061TIP3   OH239597   3.400   3.385   2.048  0.2479 -0.8793 -0.1833
 6061TIP3    H139598   3.319   3.346   2.016  0.7064 -1.6677 -0.3977
 6061TIP3    H239599   3.470   3.331   2.011  0.8902 -0.0687 -0.2073
 6062TIP3   OH239600   0.712   5.523  16.911 -0.4826  0.0803 -0.0853
 6062TIP3    H139601   0.700   5.615  16.933  0.8601 -0.0910  1.5367
 6062TIP3    H239602   0.682   5.476  16.988 -0.9670 -0.8601 -0.8199
 6063TIP3   OH239603   4.708   5.255   0.907  0.0343  0.4094  0.4388
 6063TIP3    H139604   4.687   5.171   0.946  2.0594 -1.0639 -1.4316
 6063TIP3    H239605   4.795   5.276   0.940 -0.3076  1.6287  0.6155
 6064TIP3   OH239606   0.567   2.203   1.317 -0.0430 -0.0145  0.1413
 6064TIP3    H139607   0.597   2.131   1.373 -0.7893 -1.4151 -1.1778
 6064TIP3    H239608   0.477   2.179   1.293 -0.6262  1.8102  0.3569
 6065TIP3   OH239609   2.399   0.137  15.782 -0.6791 -0.5400  0.7169
 6065TIP3    H139610   2.466   0.082  15.823  0.6216  1.2679  1.1178
 6065TIP3    H239611   2.320   0.121  15.833  0.1082 -0.7567  1.9128
 6066TIP3   OH239612   0.635   5.437   2.883  0.0872  0.0617  0.0739
 6066TIP3    H139613   0.715   5.392   2.912 -0.0587  0.0464  0.4622
 6066TIP3    H239614   0.606   5.387   2.807  0.9390  0.6089 -0.6250
 6067TIP3   OH239615   3.439   4.200  14.861 -0.4995  0.1350  0.2649
 6067TIP3    H139616   3.498   4.125  14.870 -1.2298 -0.4500  0.2943
 6067TIP3    H239617   3.387   4.199  14.942 -0.3833  0.7900  0.3518
 6068TIP3   OH239618   0.742   5.405   4.676  0.9320  0.4824 -0.1382
 6068TIP3    H139619   0.791   5.325   4.655  1.1911 -0.1898  2.6270
 6068TIP3    H239620   0.809   5.465   4.710  0.1830  0.3965  1.5215
 6069TIP3   OH239621   3.259   2.026  15.572 -0.0382  0.5159 -0.1706
 6069TIP3    H139622   3.350   1.999  15.587  0.3592  0.4285 -2.3448
 6069TIP3    H239623   3.247   2.104  15.626  2.0732  1.8390 -1.4690
 6070TIP3   OH239624   1.350   5.176   3.784  0.3121  0.0410  0.1394
 6070TIP3    H139625   1.406   5.253   3.791 -0.0059  0.2376  0.5688
 6070TIP3    H239626   1.336   5.165   3.690  0.4783  0.4141  0.0689
 6071TIP3   OH239627   2.162   0.530  16.733 -0.5579  0.2331 -1.0482
 6071TIP3    H139628   2.154   0.465  16.664 -1.0414 -1.9488  0.9610
 6071TIP3    H239629   2.107   0.603  16.703 -1.3552 -0.9529 -2.6197
 6072TIP3   OH239630   4.061   2.311   6.449 -0.1905  0.2349 -0.1611
 6072TIP3    H139631   4.120   2.292   6.522 -1.9645 -0.7232  1.0915
 6072TIP3    H239632   4.111   2.370   6.393  1.8182 -0.2612  1.0052
 6073TIP3   OH239633   5.361   0.377   0.310  0.0342  0.2508 -0.1840
 6073TIP3    H139634   5.287   0.324   0.283 -0.8756  1.1893  0.4017
 6073TIP3    H239635   5.376   0.437   0.238  1.4139 -1.0902 -1.0861
 6074TIP3   OH239636   4.179   0.288  14.168 -0.7197 -0.0197  0.2358
 6074TIP3    H139637   4.190   0.346  14.243 -0.6906 -0.4668  0.5792
 6074TIP3    H239638   4.260   0.298  14.118 -0.5516 -0.0547  0.4988
 6075TIP3   OH239639   1.367   0.577   0.645 -0.0560 -0.2425  0.0533
 6075TIP3    H139640   1.456   0.612   0.635 -0.7064  1.8424  1.0884
 6075TIP3    H239641   1.379   0.482   0.642  2.0068 -0.0132 -1.3078
 6076TIP3   OH239642   2.418   1.114  11.994  0.1209 -0.2555 -0.3405
 6076TIP3    H139643   2.438   1.149  11.908  1.1113  1.4528  0.5279
 6076TIP3    H239644   2.495   1.063  12.019  0.5470  0.6194  0.1826
 6077TIP3   OH239645   5.774   2.661   4.579  0.2726 -0.1481 -0.4403
 6077TIP3    H139646   5.856   2.636   4.538 -0.7210 -2.4327 -1.2051
 6077TIP3    H239647   5.780   2.627   4.668 -0.2776 -1.3945 -0.8602
 6078TIP3   OH239648   0.500   2.120  11.931  0.5643 -0.7494 -0.4079
 6078TIP3    H139649   0.452   2.187  11.882 -0.2965 -1.5755 -0.7172
 6078TIP3    H239650   0.460   2.120  12.018  2.1886  0.8192  0.3984
 6079TIP3   OH239651   3.307   4.628   1.315 -1.0891 -0.1930  0.5899
 6079TIP3    H139652   3.251   4.573   1.370  0.4300 -1.1776  1.2066
 6079TIP3    H239653   3.250   4.655   1.243 -2.3489 -1.1938  1.1682
 6080TIP3   OH239654   3.852   3.454  17.032 -0.0072 -0.3562  0.2510
 6080TIP3    H139655   3.804   3.425  16.955 -2.5180  1.3390  1.0483
 6080TIP3    H239656   3.872   3.546  17.015 -1.6390  0.3963  1.9876
 6081TIP3   OH239657   1.784   1.590   3.415  0.4513  0.6928 -0.0131
 6081TIP3    H139658   1.750   1.675   3.386 -2.1382 -0.7818 -1.7107
 6081TIP3    H239659   1.820   1.550   3.336 -1.0568 -0.9171  0.0474
 6082TIP3   OH239660   2.262   0.556  11.407  0.7358 -0.0763  0.3961
 6082TIP3    H139661   2.298   0.634  11.450 -1.1888  1.3556 -0.4364
 6082TIP3    H239662   2.278   0.571  11.314  1.0018 -1.0585  0.2762
 6083TIP3   OH239663   6.115   4.133   3.827 -0.5077  0.6101  0.7382
 6083TIP3    H139664   6.050   4.065   3.813 -0.6329  0.6789  0.9719
 6083TIP3    H239665   6.198   4.094   3.799 -0.6541  0.5375  0.4033
 6084TIP3   OH239666   2.183   3.324  15.870  0.1843  0.1468  0.1899
 6084TIP3    H139667   2.128   3.401  15.863  0.0106  0.2766  2.4994
 6084TIP3    H239668   2.273   3.358  15.871  0.0898  0.4232  1.8698
 6085TIP3   OH239669   2.769   4.973  11.600 -0.4048 -0.1538 -0.0469
 6085TIP3    H139670   2.861   4.973  11.629 -0.5213  0.6354  0.3271
 6085TIP3    H239671   2.772   5.009  11.511 -0.1526 -1.8011 -0.7643
 6086TIP3   OH239672   1.748   3.475  13.929  0.1001 -0.3559 -0.3846
 6086TIP3    H139673   1.806   3.549  13.947 -1.2314 -0.1157  4.6321
 6086TIP3    H239674   1.663   3.514  13.912 -0.1597 -0.6918  0.1107
 6087TIP3   OH239675   6.308   6.290   3.574  0.2365 -0.5309 -0.0432
 6087TIP3    H139676   6.349   6.205   3.591  0.2218 -0.3602  0.9183
 6087TIP3    H239677   6.364   6.352   3.620 -0.1239 -0.0946 -0.1942
 6088TIP3   OH239678   2.323   2.222   3.153  0.0542 -1.2601 -0.1792
 6088TIP3    H139679   2.316   2.318   3.154  0.9955 -1.0883 -2.8700
 6088TIP3    H239680   2.234   2.192   3.170 -0.2194  0.0429  0.9408
 6089TIP3   OH239681   1.430   1.996   1.056 -0.4712 -0.6931  0.3593
 6089TIP3    H139682   1.381   2.072   1.088 -1.5214 -0.3784 -1.8008
 6089TIP3    H239683   1.519   2.011   1.085 -0.7918  1.0506  0.5467
 6090TIP3   OH239684   1.115   4.718  16.768  0.4308 -0.6464 -0.4342
 6090TIP3    H139685   1.186   4.714  16.832 -0.1690 -0.5272  0.2451
 6090TIP3    H239686   1.159   4.743  16.686  1.0680  0.1868  0.1418
 6091TIP3   OH239687   5.377   6.697   2.858 -0.0654  0.3001  0.0493
 6091TIP3    H139688   5.461   6.741   2.844  2.0383 -3.8294 -2.2677
 6091TIP3    H239689   5.344   6.678   2.770 -1.6007 -1.2840  0.8936
 6092TIP3   OH239690   2.328   4.958  12.678  0.4269  0.0933  0.4648
 6092TIP3    H139691   2.275   4.886  12.645  1.8143 -0.4622 -0.6578
 6092TIP3    H239692   2.350   4.933  12.768 -0.1422 -0.2670  0.5068
 6093TIP3   OH239693   5.259   2.933  12.796  0.2569 -0.3381  0.5914
 6093TIP3    H139694   5.339   2.970  12.833 -0.0153  0.5844  0.2784
 6093TIP3    H239695   5.270   2.941  12.701  0.2989 -1.3083  0.4994
 6094TIP3   OH239696   5.993   5.050   2.882 -0.1405 -0.3275 -0.4533
 6094TIP3    H139697   6.046   5.095   2.948 -2.1866  3.2489 -1.0367
 6094TIP3    H239698   5.916   5.020   2.930 -0.5060  0.1100 -0.7652
 6095TIP3   OH239699   2.677   4.194  12.453 -0.1763  1.0906  0.1520
 6095TIP3    H139700   2.771   4.213  12.448 -0.1202  0.5293 -2.1873
 6095TIP3    H239701   2.637   4.261  12.397 -1.1794  1.2158  0.9915
 6096TIP3   OH239702   2.892   5.250  16.440 -0.4117  0.0008  0.2345
 6096TIP3    H139703   2.872   5.331  16.488  1.4251  0.4638  0.2909
 6096TIP3    H239704   2.987   5.246  16.439 -0.4637 -1.7821 -0.4516
 6097TIP3   OH239705   6.312   3.393   5.737 -0.0477  0.1369  0.2892
 6097TIP3    H139706   6.308   3.439   5.821  0.6762  2.1456 -0.7332
 6097TIP3    H239707   6.304   3.462   5.671  1.5715 -1.1396 -1.3246
 6098TIP3   OH239708   1.452   4.421  12.139 -0.0051  0.0856  0.5937
 6098TIP3    H139709   1.395   4.350  12.167 -0.0734  0.6767  2.0338
 6098TIP3    H239710   1.540   4.383  12.143 -0.1396 -0.3103  0.0196
 6099TIP3   OH239711   0.807   0.061  13.247 -0.3999  0.8432  0.2862
 6099TIP3    H139712   0.870   0.024  13.185 -0.3756  1.1405  0.1340
 6099TIP3    H239713   0.790  -0.011  13.308 -1.4322  0.0877 -0.8184
 6100TIP3   OH239714   1.005   1.203  17.365 -0.2147  0.4327  0.0221
 6100TIP3    H139715   0.915   1.226  17.386 -0.4840  1.3555 -1.8679
 6100TIP3    H239716   0.999   1.153  17.283  0.9413 -0.2120  0.3005
 6101TIP3   OH239717   1.206   2.707  11.370  0.4203  0.0495  0.0566
 6101TIP3    H139718   1.135   2.655  11.334 -0.3361  0.4386  0.9304
 6101TIP3    H239719   1.284   2.653  11.360 -0.1748 -0.8130  0.0174
 6102TIP3   OH239720   3.745   3.379  12.976  0.4744 -0.3746  0.4648
 6102TIP3    H139721   3.702   3.459  12.946  1.6772  0.2126  0.2436
 6102TIP3    H239722   3.824   3.372  12.922  1.3180 -0.7339  1.7032
 6103TIP3   OH239723   3.848   2.478  16.703  0.0936  0.2464 -0.1668
 6103TIP3    H139724   3.914   2.502  16.768  0.0116 -0.0219  0.0156
 6103TIP3    H239725   3.876   2.392  16.672 -0.8298 -0.4036  0.7711
 6104TIP3   OH239726   4.090   2.144  11.890 -0.0017 -0.1718 -0.1385
 6104TIP3    H139727   4.008   2.094  11.888  0.7408 -1.4796  0.6138
 6104TIP3    H239728   4.064   2.234  11.869 -1.7712 -0.3383  1.1466
 6105TIP3   OH239729   4.710   6.172  12.162 -0.7816 -0.1514 -0.2743
 6105TIP3    H139730   4.762   6.116  12.219 -1.1407 -1.7479 -1.4388
 6105TIP3    H239731   4.731   6.261  12.190  0.0841 -0.8354  1.4042
 6106TIP3   OH239732   6.599   0.114   3.490 -0.0369  0.1122 -0.2581
 6106TIP3    H139733   6.512   0.076   3.490  0.2689 -0.6651 -1.7959
 6106TIP3    H239734   6.644   0.073   3.416  1.0818  1.7303 -0.5461
 6107TIP3   OH239735   3.116   2.310  12.408 -0.2226 -0.9163 -0.1211
 6107TIP3    H139736   3.150   2.327  12.496  0.2765 -1.4967 -0.1924
 6107TIP3    H239737   3.022   2.326  12.415  0.1610  1.7995 -0.1840
 6108TIP3   OH239738   6.114   3.539   1.987 -0.1226 -0.2209 -0.2656
 6108TIP3    H139739   6.092   3.602   1.919  0.8648 -0.3091 -0.6771
 6108TIP3    H239740   6.087   3.454   1.951 -1.0147 -0.1040  0.0954
 6109TIP3   OH239741   1.755   4.504  14.110 -0.5438  0.2685  0.5586
 6109TIP3    H139742   1.798   4.559  14.175 -1.9293  0.6382  1.1892
 6109TIP3    H239743   1.717   4.566  14.047 -0.9969 -0.0104  0.5545
 6110TIP3   OH239744   3.117   6.136   1.588  0.1968 -0.0248  0.5739
 6110TIP3    H139745   3.032   6.155   1.550  0.5049 -2.0916 -1.3517
 6110TIP3    H239746   3.098   6.077   1.661 -0.0674  0.0854  0.5942
 6111TIP3   OH239747   4.169   1.562   1.233 -0.0455 -0.6446 -0.2293
 6111TIP3    H139748   4.097   1.622   1.212  0.0675 -0.5455 -0.3387
 6111TIP3    H239749   4.168   1.556   1.328 -0.5689 -1.1011 -0.2615
 6112TIP3   OH239750   0.429   0.120   0.558 -0.4269 -0.3366 -0.8719
 6112TIP3    H139751   0.418   0.180   0.484  1.2995  1.8618  0.5316
 6112TIP3    H239752   0.359   0.144   0.619  0.4258  0.5255 -0.1923
 6113TIP3   OH239753   0.084   6.272  17.145 -0.0110 -0.2223  0.0848
 6113TIP3    H139754   0.077   6.195  17.088 -2.0879  1.1965 -1.7410
 6113TIP3    H239755   0.122   6.340  17.089 -0.1956  0.6755  1.0238
 6114TIP3   OH239756   6.200   0.407  13.528  0.0732  0.6853 -0.7723
 6114TIP3    H139757   6.173   0.452  13.608  0.6818  1.5322 -1.0373
 6114TIP3    H239758   6.161   0.458  13.457 -1.4281 -0.6970 -1.0213
 6115TIP3   OH239759   3.418   0.875  11.338 -0.1559 -0.1896  0.0153
 6115TIP3    H139760   3.481   0.864  11.267 -2.0901 -1.3347 -1.6516
 6115TIP3    H239761   3.352   0.934  11.302 -0.1959  0.7929  1.6280
 6116TIP3   OH239762   0.477   0.991   5.013  0.0542  0.1460 -0.2055
 6116TIP3    H139763   0.500   0.898   5.009  1.2238  0.3368  1.3671
 6116TIP3    H239764   0.560   1.036   5.029 -0.8536  1.1650  2.1214
 6117TIP3   OH239765   4.418   0.930  13.197  0.1128 -0.4015  0.5515
 6117TIP3    H139766   4.474   0.962  13.267  0.9332 -1.4853  0.4133
 6117TIP3    H239767   4.458   0.965  13.117  0.3067 -0.7743  0.4860
 6118TIP3   OH239768   0.483   5.243  13.037  0.3580 -0.6475 -0.8557
 6118TIP3    H139769   0.522   5.158  13.018  3.1697  0.4855 -0.6589
 6118TIP3    H239770   0.464   5.241  13.131  1.9985 -0.5155 -0.5001
 6119TIP3   OH239771   3.533   4.354   1.243 -0.2932 -0.1203 -0.3627
 6119TIP3    H139772   3.543   4.281   1.305 -0.7983 -0.6225 -0.8692
 6119TIP3    H239773   3.623   4.377   1.218  0.0187  0.8685  1.4267
 6120TIP3   OH239774   0.439   0.312   2.126  0.4418 -0.3370 -0.5336
 6120TIP3    H139775   0.482   0.371   2.064  1.3013 -0.2467  0.1338
 6120TIP3    H239776   0.434   0.228   2.079  2.2583 -0.6252 -0.2891
 6121TIP3   OH239777   4.793   4.451  14.628 -0.5354 -0.0649  0.0598
 6121TIP3    H139778   4.864   4.407  14.675  0.1749 -0.1204 -1.0223
 6121TIP3    H239779   4.836   4.523  14.581 -1.1658 -0.1411 -0.6664
 6122TIP3   OH239780   6.403   6.727  12.561  0.4741  0.5774 -0.2206
 6122TIP3    H139781   6.447   6.645  12.537  2.1058  0.9721  1.2111
 6122TIP3    H239782   6.466   6.772  12.617 -0.3245  2.8964 -1.0939
 6123TIP3   OH239783   0.395   3.179  13.430 -0.8584 -0.7164 -0.3900
 6123TIP3    H139784   0.457   3.127  13.481 -0.3183  0.3612  0.0771
 6123TIP3    H239785   0.381   3.128  13.351 -0.3145 -1.5547  0.0365
 6124TIP3   OH239786   6.148   4.956  14.206  0.1368 -0.6816  0.1726
 6124TIP3    H139787   6.175   5.026  14.266 -0.7591  0.5654 -0.8282
 6124TIP3    H239788   6.211   4.886  14.222  1.9591  0.8781  0.2158
 6125TIP3   OH239789   3.229   4.557  16.754  0.4785  0.6628  0.0397
 6125TIP3    H139790   3.278   4.490  16.802  0.9097  0.1673 -1.0681
 6125TIP3    H239791   3.186   4.609  16.822  1.4300  0.2512  0.9734
 6126TIP3   OH239792   3.200   6.011  12.034  0.1466 -0.2253  0.1665
 6126TIP3    H139793   3.244   6.004  11.950  0.4935  1.0618  0.2180
 6126TIP3    H239794   3.118   6.057  12.014  1.2892  2.2461  0.8284
 6127TIP3   OH239795   6.518   5.481  16.805 -0.2425 -0.2817 -0.3026
 6127TIP3    H139796   6.468   5.562  16.810 -1.7509 -1.2194  0.7499
 6127TIP3    H239797   6.482   5.436  16.728  0.3219 -0.1252 -0.6597
 6128TIP3   OH239798   3.229   5.671  11.322 -0.2390 -1.0603 -0.4542
 6128TIP3    H139799   3.246   5.619  11.401 -1.4535  0.6256  1.0026
 6128TIP3    H239800   3.133   5.675  11.316 -0.1699 -1.4366 -2.2337
 6129TIP3   OH239801   5.366   3.482   6.024  0.0389  0.3533  0.0765
 6129TIP3    H139802   5.276   3.470   5.994 -0.5985  1.6959  1.3271
 6129TIP3    H239803   5.419   3.446   5.954 -1.4495  0.4714 -1.1744
 6130TIP3   OH239804   1.058   2.539  11.211 -0.8010 -0.1420 -0.0320
 6130TIP3    H139805   1.082   2.459  11.165 -1.5044  0.6414 -1.8460
 6130TIP3    H239806   0.965   2.552  11.190 -0.4716  1.6388 -0.5621
 6131TIP3   OH239807   3.348   1.576  14.593  0.4078 -0.0500 -0.0387
 6131TIP3    H139808   3.280   1.621  14.543  1.2015  1.3867  0.1369
 6131TIP3    H239809   3.303   1.503  14.635 -0.2628 -1.5500 -3.0580
 6132TIP3   OH239810   2.558   4.921  13.152 -0.6809  0.6436  0.2694
 6132TIP3    H139811   2.653   4.920  13.153 -0.6322  1.2092 -1.0514
 6132TIP3    H239812   2.533   4.981  13.222 -0.0425  1.0486  0.1482
 6133TIP3   OH239813   6.336   6.308  12.338  0.0609 -0.2491  0.7559
 6133TIP3    H139814   6.387   6.268  12.267  0.1767 -0.1414  0.7789
 6133TIP3    H239815   6.281   6.237  12.370 -2.0237  0.3488 -1.2565
 6134TIP3   OH239816   0.552   5.237   3.199  0.4912  0.6705  0.0220
 6134TIP3    H139817   0.556   5.238   3.295 -1.2720 -0.7745  0.1705
 6134TIP3    H239818   0.502   5.315   3.176 -4.4799 -1.8451  0.8305
 6135TIP3   OH239819   2.811   3.562  11.180 -0.1611  0.2053 -0.0064
 6135TIP3    H139820   2.758   3.526  11.251  1.0066 -1.0403  0.3031
 6135TIP3    H239821   2.785   3.653  11.173 -1.8912 -0.2179  0.5115
 6136TIP3   OH239822   6.058   3.447  12.579 -0.7398  0.1382  0.2114
 6136TIP3    H139823   5.980   3.493  12.549 -0.7844  0.7736  1.2569
 6136TIP3    H239824   6.028   3.396  12.655  0.0396  1.1636  1.2414
 6137TIP3   OH239825   5.392   3.075  11.565  0.0320  0.5147 -0.1205
 6137TIP3    H139826   5.404   2.995  11.513  1.3526 -0.3073  1.3328
 6137TIP3    H239827   5.330   3.050  11.633  2.5000 -0.2725  2.0413
 6138TIP3   OH239828   3.375   3.959   4.203  0.0698  0.5710 -0.3753
 6138TIP3    H139829   3.299   4.017   4.201 -3.6196 -3.7448 -1.5824
 6138TIP3    H239830   3.402   3.953   4.111 -1.8755 -1.9676 -0.9076
 6139TIP3   OH239831   3.414   3.651   4.108 -1.0526 -0.2477  0.1252
 6139TIP3    H139832   3.429   3.575   4.052  0.9913  0.6374 -0.6344
 6139TIP3    H239833   3.370   3.715   4.051  2.3488  1.2231 -1.1274
 6140TIP3   OH239834   4.461   5.803   1.634 -0.1714  0.2242 -0.3831
 6140TIP3    H139835   4.409   5.770   1.708 -1.5003  2.6007 -0.1404
 6140TIP3    H239836   4.397   5.820   1.565  0.7792 -0.0220 -1.3519
 6141TIP3   OH239837   2.088   3.758   1.678 -0.4743  0.8203 -0.0925
 6141TIP3    H139838   2.080   3.801   1.764  0.3974  1.2151 -0.1921
 6141TIP3    H239839   2.001   3.766   1.639 -0.7755  0.9886  0.5984
 6142TIP3   OH239840   4.798   2.862   3.462  0.0705  0.6389 -0.3253
 6142TIP3    H139841   4.744   2.810   3.403  0.2640  0.0904 -0.0362
 6142TIP3    H239842   4.761   2.950   3.458  0.0541  0.5995 -1.2178
 6143TIP3   OH239843   6.118   6.523  12.299  0.3578  0.1293  0.0212
 6143TIP3    H139844   6.205   6.485  12.313  0.5355  0.0693 -1.1189
 6143TIP3    H239845   6.135   6.606  12.254 -0.1833 -0.0853 -0.5944
 6144TIP3   OH239846   5.814   0.127  10.792 -0.3264  0.3403  0.3603
 6144TIP3    H139847   5.879   0.076  10.839 -0.9398 -0.7021  0.1108
 6144TIP3    H239848   5.862   0.202  10.758  0.2879  0.7361  1.9892
 6145TIP3   OH239849   6.677   3.072  17.327 -0.1933  0.8107 -0.4507
 6145TIP3    H139850   6.606   3.101  17.268  0.2952  1.4649 -0.7280
 6145TIP3    H239851   6.723   3.004  17.278 -0.8978  0.0490 -0.0875
 6146TIP3   OH239852   2.759   6.214  16.713  0.0115  0.1476  0.0395
 6146TIP3    H139853   2.847   6.252  16.717 -0.0230  0.0973  1.8719
 6146TIP3    H239854   2.741   6.206  16.619  0.2444  4.1438 -0.5189
 6147TIP3   OH239855   4.184   6.182   3.858 -0.0729  0.4478  0.0625
 6147TIP3    H139856   4.181   6.117   3.928  0.8110 -2.3094 -2.2856
 6147TIP3    H239857   4.106   6.166   3.806  2.5777 -2.5575 -3.5041
 6148TIP3   OH239858   4.518   1.471  16.490  0.0127 -0.5795  0.8651
 6148TIP3    H139859   4.608   1.502  16.478 -0.0785  0.1194  1.9226
 6148TIP3    H239860   4.468   1.549  16.511 -1.1861 -0.6810 -1.3056
 6149TIP3   OH239861   6.461   0.402   5.645 -0.5294  0.0810  0.1472
 6149TIP3    H139862   6.391   0.396   5.710 -0.3484 -0.2429  0.3134
 6149TIP3    H239863   6.420   0.444   5.570 -1.3011 -1.4121 -0.3011
 6150TIP3   OH239864   2.241   3.165  11.364  0.2098 -0.0471 -0.0898
 6150TIP3    H139865   2.179   3.166  11.291 -0.4193  2.9755  0.3547
 6150TIP3    H239866   2.187   3.163  11.442  0.7549  0.1521  0.2977
 6151TIP3   OH239867   3.964   4.524   4.770  0.1014 -0.2205  0.1299
 6151TIP3    H139868   3.960   4.572   4.853  2.3015 -0.5526  0.5010
 6151TIP3    H239869   3.880   4.479   4.764 -1.0634  1.7326  0.9478
 6152TIP3   OH239870   4.004   0.160   3.752 -0.2754  0.1071  0.0272
 6152TIP3    H139871   4.042   0.236   3.709  0.3257 -1.2678 -2.0652
 6152TIP3    H239872   3.910   0.176   3.752 -0.2674  0.2917 -1.6333
 6153TIP3   OH239873   0.257   5.485  15.248  0.5020  0.4854  0.2544
 6153TIP3    H139874   0.198   5.488  15.324 -0.6170  1.5978 -0.6261
 6153TIP3    H239875   0.248   5.571  15.207  0.3789 -0.3859 -1.6653
 6154TIP3   OH239876   5.494   3.483   4.418  0.2095 -0.5482 -0.0177
 6154TIP3    H139877   5.410   3.503   4.461  0.5513 -0.9841  0.8752
 6154TIP3    H239878   5.508   3.390   4.436  1.1873 -0.3328  0.3728
 6155TIP3   OH239879   6.696   1.145  14.297  0.4328 -0.2729 -0.5368
 6155TIP3    H139880   6.652   1.209  14.241 -0.1476 -1.2090 -1.1934
 6155TIP3    H239881   6.694   1.064  14.246  1.0381 -0.8468  0.3219
 6156TIP3   OH239882   1.307   3.533   0.378  0.4755 -0.2708  0.3697
 6156TIP3    H139883   1.249   3.526   0.454  0.6447  0.1261  0.5394
 6156TIP3    H239884   1.393   3.551   0.416  0.4939  0.3096  0.0726
 6157TIP3   OH239885   4.178   0.047  16.773 -0.1339  0.2692  0.6174
 6157TIP3    H139886   4.183   0.040  16.677  0.2503 -0.7824  0.7080
 6157TIP3    H239887   4.269   0.035  16.802 -0.3629 -0.1710  1.1577
 6158TIP3   OH239888   6.317   5.243   4.739  0.2345  0.1136  0.7106
 6158TIP3    H139889   6.400   5.271   4.701  0.9397 -0.6323  1.6371
 6158TIP3    H239890   6.339   5.216   4.829 -1.1216  0.5018  1.1920
 6159TIP3   OH239891   4.438   0.247  16.632 -0.3697  0.2032 -0.6315
 6159TIP3    H139892   4.516   0.222  16.584 -1.2492 -0.9880 -1.4997
 6159TIP3    H239893   4.368   0.243  16.567 -1.4093 -0.3504  0.4860
 6160TIP3   OH239894   1.396   2.661  15.970 -0.1136 -0.1943 -0.2344
 6160TIP3    H139895   1.403   2.699  15.883  0.0826  0.9528  0.2680
 6160TIP3    H239896   1.432   2.572  15.960 -1.7965 -0.7742 -1.7191
 6161TIP3   OH239897   6.610   3.124  16.354 -0.2373  0.1698  0.3096
 6161TIP3    H139898   6.633   3.032  16.345  0.6295  0.4362 -0.3642
 6161TIP3    H239899   6.518   3.124  16.381 -0.9266 -0.8713 -1.8415
 6162TIP3   OH239900   3.138   1.209  13.401  0.2527 -0.0976 -0.5842
 6162TIP3    H139901   3.117   1.214  13.494  1.1388  0.8418 -0.4195
 6162TIP3    H239902   3.085   1.277  13.360 -1.1588 -1.3952 -0.9884
 6163TIP3   OH239903   0.604   1.568   0.961 -0.0977 -0.0247 -0.1395
 6163TIP3    H139904   0.529   1.569   1.020 -1.9440 -1.7433 -2.2650
 6163TIP3    H239905   0.678   1.598   1.014 -1.5839 -1.5482  3.0307
 6164TIP3   OH239906   3.420   3.908   1.032  0.0659  0.5325  0.0259
 6164TIP3    H139907   3.503   3.937   0.995  1.3796 -0.9485  1.6118
 6164TIP3    H239908   3.428   3.924   1.126 -1.0378 -0.5131  0.3303
 6165TIP3   OH239909   0.334   4.509   1.082 -0.0872  0.1558 -0.0302
 6165TIP3    H139910   0.372   4.588   1.042 -0.5963 -0.4440 -1.7642
 6165TIP3    H239911   0.359   4.516   1.174  1.6974  1.2771 -0.5289
 6166TIP3   OH239912   0.214   6.102  14.792  0.2980 -0.1674 -0.3325
 6166TIP3    H139913   0.282   6.056  14.841 -0.3083 -0.7735 -0.0365
 6166TIP3    H239914   0.161   6.032  14.753 -2.3643  0.0857  2.4352
 6167TIP3   OH239915   5.912   1.289   5.559  0.7290  0.2225  0.1552
 6167TIP3    H139916   5.896   1.323   5.471 -0.1078  0.1399  0.2743
 6167TIP3    H239917   5.974   1.352   5.598  0.5549  0.6425 -0.2409
 6168TIP3   OH239918   0.024   0.289   2.431  0.1871 -0.3508  0.0399
 6168TIP3    H139919   0.085   0.316   2.362  0.6622  0.8101  0.8784
 6168TIP3    H239920   0.056   0.203   2.458  0.5569 -0.4036 -0.5357
 6169TIP3   OH239921   5.655   4.517  11.944  0.3130  0.0922 -0.3085
 6169TIP3    H139922   5.654   4.576  12.018  2.9570  0.0237 -0.1278
 6169TIP3    H239923   5.648   4.429  11.982 -2.3961  0.1473 -0.4969
 6170TIP3   OH239924   1.715   0.485  14.456  0.1627  0.3178  0.1698
 6170TIP3    H139925   1.666   0.430  14.394  1.3661  1.1921 -1.6444
 6170TIP3    H239926   1.649   0.518  14.517 -1.3378  0.6179 -1.5423
 6171TIP3   OH239927   5.789   5.607  10.934  0.5824  0.2496  0.2814
 6171TIP3    H139928   5.805   5.701  10.936 -3.7008  1.3398 -2.5438
 6171TIP3    H239929   5.856   5.573  10.875  1.1844  1.8689 -0.0258
 6172TIP3   OH239930   5.112   2.496  15.944  0.0526 -0.5146 -0.6368
 6172TIP3    H139931   5.077   2.444  15.871  0.0837  0.5673 -1.4610
 6172TIP3    H239932   5.080   2.452  16.023 -1.3659 -0.7933 -1.3339
 6173TIP3   OH239933   4.463   5.169  12.845 -0.0238  0.4917  0.2186
 6173TIP3    H139934   4.481   5.075  12.847 -0.5152  0.4054  0.8206
 6173TIP3    H239935   4.548   5.208  12.823  0.4130 -0.0312  0.9017
 6174TIP3   OH239936   0.563   3.745  13.722 -0.1418  0.5941  0.2310
 6174TIP3    H139937   0.612   3.681  13.774  0.5957  0.7184 -0.2873
 6174TIP3    H239938   0.605   3.829  13.742 -1.0469  0.9163  0.8376
 6175TIP3   OH239939   5.279   2.673   5.033 -0.2302  0.0015  0.4440
 6175TIP3    H139940   5.195   2.719   5.024  0.7710  1.6597 -1.3308
 6175TIP3    H239941   5.255   2.583   5.052 -2.4287  0.4198 -0.0490
 6176TIP3   OH239942   0.887   4.365  12.438  0.0060  0.1445  0.4322
 6176TIP3    H139943   0.844   4.288  12.476  0.5729 -0.8575 -0.8771
 6176TIP3    H239944   0.908   4.339  12.348  0.0255  1.9153 -0.1219
 6177TIP3   OH239945   5.463   6.378   1.828 -0.1215  0.8681  0.3102
 6177TIP3    H139946   5.535   6.328   1.867 -1.5444 -0.7252  1.0224
 6177TIP3    H239947   5.468   6.357   1.735 -0.6591 -0.6358  0.5853
 6178TIP3   OH239948   3.341   4.173   3.775  0.0928 -0.4991 -0.3276
 6178TIP3    H139949   3.432   4.149   3.756  0.2787 -0.0139 -0.0632
 6178TIP3    H239950   3.319   4.237   3.708 -0.4537 -1.4819 -1.1256
 6179TIP3   OH239951   3.577   3.038  16.820 -0.0929 -0.2839 -0.2024
 6179TIP3    H139952   3.627   3.085  16.754  1.1169 -2.3333 -0.8388
 6179TIP3    H239953   3.540   2.963  16.773 -1.3115 -0.4344  0.9250
 6180TIP3   OH239954   5.469   0.754   5.561  0.3059  0.0507  0.6722
 6180TIP3    H139955   5.442   0.727   5.473  0.2776 -0.6635  0.8965
 6180TIP3    H239956   5.561   0.779   5.551  0.0727  0.7715  0.2742
 6181TIP3   OH239957   3.216   5.138  17.297 -0.0587 -0.1449 -0.1291
 6181TIP3    H139958   3.303   5.097  17.292  0.9865  2.0756 -2.0223
 6181TIP3    H239959   3.234   5.231  17.312 -2.1672  0.2742  0.0800
 6182TIP3   OH239960   0.224   4.595   0.120 -0.0699  0.4043 -0.1664
 6182TIP3    H139961   0.255   4.680   0.151 -0.0473  0.2279  0.3133
 6182TIP3    H239962   0.268   4.582   0.036 -2.0409  2.0215 -1.5436
 6183TIP3   OH239963   2.640   4.479   1.177 -0.0596  0.3392  0.0124
 6183TIP3    H139964   2.688   4.401   1.205 -1.3119 -0.1585  0.8269
 6183TIP3    H239965   2.569   4.446   1.122 -0.3104  0.9478 -0.0443
 6184TIP3   OH239966   1.516   0.586  14.609  0.0158 -0.3130 -0.3821
 6184TIP3    H139967   1.465   0.648  14.661  0.7906 -1.2699  1.6126
 6184TIP3    H239968   1.475   0.589  14.522 -0.2176  2.6503 -0.2839
 6185TIP3   OH239969   1.546   3.376  13.600  0.0110  0.8487 -0.8239
 6185TIP3    H139970   1.555   3.284  13.574 -2.1405  0.0110  1.1163
 6185TIP3    H239971   1.615   3.389  13.665 -0.7574  0.0567  0.1783
 6186TIP3   OH239972   3.984   6.342  16.306 -0.6953 -0.1450  0.9252
 6186TIP3    H139973   4.066   6.385  16.282 -0.0534 -2.3759 -1.4352
 6186TIP3    H239974   3.916   6.398  16.268 -0.0925  0.4368  0.6751
 6187TIP3   OH239975   2.197   6.609  11.983 -0.0004 -0.3081  0.4441
 6187TIP3    H139976   2.209   6.704  11.978 -2.3203  0.1018  1.3864
 6187TIP3    H239977   2.118   6.592  11.931  0.9295 -1.8904 -0.5349
 6188TIP3   OH239978   6.693   0.837  17.023 -0.6026  0.5524 -0.1321
 6188TIP3    H139979   6.768   0.780  17.038 -0.8822  0.1926 -0.1107
 6188TIP3    H239980   6.677   0.879  17.107 -1.1087 -0.1930  0.1504
 6189TIP3   OH239981   2.521   3.289   3.070 -0.5098  0.1778 -0.4888
 6189TIP3    H139982   2.514   3.239   3.151 -2.0800 -0.9413 -1.2706
 6189TIP3    H239983   2.509   3.380   3.097  0.2207 -0.0523  0.6795
 6190TIP3   OH239984   2.588   2.330   1.664  0.4063 -0.2768 -0.5855
 6190TIP3    H139985   2.645   2.253   1.662  1.1353  0.2334 -0.0247
 6190TIP3    H239986   2.579   2.352   1.757  0.1762  0.2857 -0.7319
 6191TIP3   OH239987   3.516   5.688  14.934 -0.0715 -0.4974 -0.0572
 6191TIP3    H139988   3.601   5.705  14.974  0.6928  0.1757 -1.8314
 6191TIP3    H239989   3.480   5.775  14.917 -0.6584 -0.7724 -0.2342
 6192TIP3   OH239990   3.197   6.289   4.972  0.0774 -0.4581  0.0684
 6192TIP3    H139991   3.109   6.297   4.934 -0.2213  1.9817  1.0205
 6192TIP3    H239992   3.256   6.313   4.901 -0.1097 -1.0619 -0.2903
 6193TIP3   OH239993   5.149   4.946   2.456  0.2107  0.1763 -0.1191
 6193TIP3    H139994   5.138   4.920   2.365 -1.0619  1.7621 -0.4671
 6193TIP3    H239995   5.063   4.935   2.495  0.5696  0.1990  0.7087
 6194TIP3   OH239996   1.365   5.546   0.222 -0.0503 -0.2529 -0.2463
 6194TIP3    H139997   1.316   5.568   0.142  0.3228 -0.7662 -0.6213
 6194TIP3    H239998   1.320   5.469   0.256 -0.6956  0.4356  0.4773
 6195TIP3   OH239999   5.585   4.028   0.688  0.3220 -0.1786  1.0565
 6195TIP3    H140000   5.655   4.002   0.628 -0.6183 -0.6055  0.1032
 6195TIP3    H240001   5.564   4.118   0.662  0.1518 -0.2419  0.9717
 6196TIP3   OH240002   2.468   1.840   4.611  0.5136 -0.2024 -0.4016
 6196TIP3    H140003   2.415   1.852   4.689 -0.9233 -0.2797 -1.3300
 6196TIP3    H240004   2.544   1.790   4.641 -0.5883 -1.2746  0.7318
 6197TIP3   OH240005   1.379   6.411  15.871  0.1339  0.5277  0.1728
 6197TIP3    H140006   1.290   6.387  15.844 -0.0578 -0.0358  1.2789
 6197TIP3    H240007   1.434   6.381  15.798 -0.5107  0.3069 -0.2353
 6198TIP3   OH240008   4.152   0.006   0.663 -0.7323 -0.1832 -0.6443
 6198TIP3    H140009   4.098   0.084   0.671  0.3156  0.4420  0.9991
 6198TIP3    H240010   4.125  -0.049   0.737 -0.0355 -0.4260 -0.5636
 6199TIP3   OH240011   5.671   2.409  12.588  0.4525 -0.0065 -0.1251
 6199TIP3    H140012   5.615   2.482  12.559 -0.1651 -0.6734 -0.6416
 6199TIP3    H240013   5.610   2.339  12.609  0.8480  0.4016  2.8247
 6200TIP3   OH240014   5.302   5.072  16.492 -0.3198 -0.3780  0.4201
 6200TIP3    H140015   5.277   5.126  16.417  1.2860 -0.6542 -0.3545
 6200TIP3    H240016   5.249   4.993  16.484 -1.2770  0.2419  0.4724
 6201TIP3   OH240017   5.177   1.036  16.699  0.0443  0.4350  0.0805
 6201TIP3    H140018   5.205   1.126  16.680  0.8570  0.0904 -0.3908
 6201TIP3    H240019   5.212   0.984  16.627 -0.0982 -0.3236  0.5454
 6202TIP3   OH240020   2.512   2.170  10.680  0.0792 -0.1583  0.4403
 6202TIP3    H140021   2.542   2.083  10.707 -1.9449 -0.6999  1.1469
 6202TIP3    H240022   2.417   2.161  10.673 -0.3960  2.4367  2.2474
 6203TIP3   OH240023   3.278   6.527   4.723 -0.8556 -0.6095 -0.7678
 6203TIP3    H140024   3.334   6.458   4.759  1.1420  1.2680 -0.0610
 6203TIP3    H240025   3.205   6.480   4.684 -0.3365 -3.0432  0.9414
 6204TIP3   OH240026   5.216   5.390  13.226 -0.0426 -0.1106  0.2417
 6204TIP3    H140027   5.221   5.343  13.142 -0.4997  1.9159 -0.9968
 6204TIP3    H240028   5.306   5.411  13.247 -0.0314  0.7823 -0.6256
 6205TIP3   OH240029   1.197   2.753   2.645  0.4374 -0.0323 -0.5345
 6205TIP3    H140030   1.284   2.731   2.611  0.9887  0.4190  0.5183
 6205TIP3    H240031   1.155   2.803   2.575 -0.2702 -3.0049 -2.3987
 6206TIP3   OH240032   5.606   6.271  11.110  0.1575 -0.1381 -0.0998
 6206TIP3    H140033   5.630   6.217  11.185  3.2172  0.3257 -0.6050
 6206TIP3    H240034   5.597   6.359  11.147  1.1165 -0.0062 -0.1463
 6207TIP3   OH240035   5.251   4.313  15.884 -0.1698  0.6941 -0.8110
 6207TIP3    H140036   5.234   4.221  15.905  0.4128  0.5035 -1.1616
 6207TIP3    H240037   5.176   4.339  15.830 -0.1604  0.3200 -1.0126
 6208TIP3   OH240038   0.012   4.495   2.694 -0.6874 -0.2968 -0.0265
 6208TIP3    H140039   0.055   4.422   2.738 -0.7997  0.0236  0.6265
 6208TIP3    H240040  -0.062   4.455   2.648 -1.2748 -0.4860  1.0445
 6209TIP3   OH240041   5.457   4.856   0.298  0.0778 -0.4033  0.2259
 6209TIP3    H140042   5.375   4.840   0.345  0.3518 -0.4702  0.6829
 6209TIP3    H240043   5.433   4.918   0.229 -1.0832 -2.8340 -1.7424
 6210TIP3   OH240044   0.072   0.138  12.244  0.6250 -0.4439 -0.5809
 6210TIP3    H140045   0.002   0.200  12.222 -0.0903 -1.0193  0.0243
 6210TIP3    H240046   0.027   0.066  12.289  1.2520 -2.0008 -2.3135
 6211TIP3   OH240047   1.445   6.176   5.948  0.1725  0.6858 -0.0867
 6211TIP3    H140048   1.535   6.143   5.952 -0.9302 -2.7427  4.6339
 6211TIP3    H240049   1.401   6.118   5.886  1.0328  2.5096 -2.5830
 6212TIP3   OH240050   5.412   3.342  15.845 -0.6900  0.1505  0.3330
 6212TIP3    H140051   5.375   3.255  15.830  2.1263 -1.1043  0.0486
 6212TIP3    H240052   5.416   3.382  15.758  1.8984 -1.1844 -0.2256
 6213TIP3   OH240053   5.952   3.471   4.720 -0.0213  0.3930  0.7733
 6213TIP3    H140054   5.957   3.564   4.743 -0.3066  0.5762  0.0957
 6213TIP3    H240055   5.940   3.470   4.625  0.3137 -0.3439  0.7339
 6214TIP3   OH240056   5.061   3.093  15.516  0.6199 -0.0568 -0.2402
 6214TIP3    H140057   5.063   3.105  15.611  1.3334  0.2346 -0.2899
 6214TIP3    H240058   5.131   3.149  15.482 -0.9823  1.5134 -1.1253
 6215TIP3   OH240059   3.177   2.424  13.106 -0.1661 -0.1438 -0.1750
 6215TIP3    H140060   3.265   2.435  13.069  0.3786 -0.5396  0.9413
 6215TIP3    H240061   3.144   2.344  13.066 -1.0711  1.3202 -2.5262
 6216TIP3   OH240062   4.019   1.794  14.764  0.2167  0.2139  0.2471
 6216TIP3    H140063   3.962   1.871  14.762 -0.5956 -0.2842  2.2761
 6216TIP3    H240064   3.960   1.720  14.755  0.6425 -0.2714  1.3341
 6217TIP3   OH240065   2.444   1.196  11.394  0.0071  0.5957 -0.3500
 6217TIP3    H140066   2.436   1.292  11.400 -0.0200  0.5135  1.4100
 6217TIP3    H240067   2.484   1.181  11.309 -0.6455  2.1367 -0.9686
 6218TIP3   OH240068   0.270   6.182   6.479  0.0114 -0.5609 -0.0890
 6218TIP3    H140069   0.352   6.146   6.513 -0.0251  0.4023  1.0670
 6218TIP3    H240070   0.275   6.276   6.497 -1.0007 -0.3601 -0.7412
 6219TIP3   OH240071   2.673   1.355  13.102 -0.6915 -0.0075 -0.2739
 6219TIP3    H140072   2.648   1.276  13.150 -1.2255  0.1324 -0.3216
 6219TIP3    H240073   2.744   1.393  13.153  0.9870 -1.5894 -1.2754
 6220TIP3   OH240074   2.173   4.577  14.094  0.3989 -0.6853 -0.2377
 6220TIP3    H140075   2.248   4.566  14.035  1.2291 -0.6776  0.7840
 6220TIP3    H240076   2.098   4.589  14.035  1.0894 -1.3331 -1.2915
 6221TIP3   OH240077   4.902   5.761  15.325 -0.0500  0.1173  0.3481
 6221TIP3    H140078   4.972   5.781  15.262  1.0229  1.4781  1.9098
 6221TIP3    H240079   4.822   5.759  15.272  1.1634 -2.1340 -1.6146
 6222TIP3   OH240080   5.817   4.464   4.853 -0.3577 -0.0129  0.3637
 6222TIP3    H140081   5.754   4.411   4.904 -0.4702 -1.5697 -1.2904
 6222TIP3    H240082   5.766   4.539   4.824 -0.6305  0.2499  1.4568
 6223TIP3   OH240083   0.712   3.376  12.073  0.0051 -0.2093  0.2659
 6223TIP3    H140084   0.807   3.376  12.069  0.0131  0.4889  0.3738
 6223TIP3    H240085   0.689   3.287  12.099  0.8152  0.5635  4.3074
 6224TIP3   OH240086   1.891   2.586  13.303  0.4826 -0.5996 -0.2529
 6224TIP3    H140087   1.884   2.597  13.208 -1.7256 -1.0537 -0.2005
 6224TIP3    H240088   1.912   2.674  13.336 -2.3826  0.4664 -0.9455
 6225TIP3   OH240089   4.838   3.060   1.041  0.4200  0.0273  0.0969
 6225TIP3    H140090   4.821   2.981   0.990 -1.7491 -0.8460  1.9915
 6225TIP3    H240091   4.934   3.066   1.045  0.7319 -0.2153 -3.3418
 6226TIP3   OH240092   1.311   5.785   3.837 -0.1339 -0.4275 -0.3351
 6226TIP3    H140093   1.294   5.702   3.882 -0.3982 -0.6261 -0.7921
 6226TIP3    H240094   1.240   5.842   3.866  0.1902 -0.2771  0.1763
 6227TIP3   OH240095   4.797   6.370   2.393  0.6388 -0.1118 -0.5623
 6227TIP3    H140096   4.765   6.350   2.305  0.4521 -1.9428 -0.1211
 6227TIP3    H240097   4.718   6.393   2.442  0.5990 -0.1519 -0.6065
 6228TIP3   OH240098   2.018   5.095   1.039  0.5581  0.3577 -0.1520
 6228TIP3    H140099   2.073   5.171   1.022  0.3424  0.4760 -0.3292
 6228TIP3    H240100   1.949   5.100   0.973  2.4742 -1.9594 -2.5050
 6229TIP3   OH240101   6.066   3.731   1.786  0.5491 -0.4765 -0.1490
 6229TIP3    H140102   6.095   3.779   1.708 -0.8344 -0.1117 -0.4594
 6229TIP3    H240103   6.056   3.798   1.853  1.3395 -0.7364  0.2447
 6230TIP3   OH240104   5.398   3.596   4.674 -0.8378 -0.3846  0.2839
 6230TIP3    H140105   5.388   3.617   4.767 -0.0873  1.5641 -0.0290
 6230TIP3    H240106   5.475   3.540   4.669 -0.4824  0.0520  0.7857
 6231TIP3   OH240107   1.870   5.537  16.543  0.5680 -0.0443 -0.2712
 6231TIP3    H140108   1.912   5.603  16.597 -0.9701  0.7445  0.0355
 6231TIP3    H240109   1.942   5.491  16.500  1.8619 -0.4720  2.1513
 6232TIP3   OH240110   1.906   4.126  10.507 -0.0769 -0.9076 -0.5563
 6232TIP3    H140111   1.950   4.161  10.584 -1.8331  1.4616 -0.5109
 6232TIP3    H240112   1.813   4.125  10.531 -0.5887 -0.7278 -2.3830
 6233TIP3   OH240113   0.696   6.609  13.403  0.1359  0.3018 -0.3962
 6233TIP3    H140114   0.615   6.661  13.394  0.1574  0.5031  0.5512
 6233TIP3    H240115   0.696   6.579  13.494  0.3332 -1.0343 -0.8143
 6234TIP3   OH240116   0.710   6.024   2.622  0.1537  0.7394 -0.4264
 6234TIP3    H140117   0.723   6.116   2.600  0.8505  0.4564 -1.2651
 6234TIP3    H240118   0.686   6.024   2.715  0.1688  1.7582 -0.4151
 6235TIP3   OH240119   3.331   1.786   0.442  0.2958 -0.4261  0.3073
 6235TIP3    H140120   3.358   1.812   0.354  0.0902 -1.3184 -0.0377
 6235TIP3    H240121   3.391   1.831   0.500  0.6979 -0.1449 -0.3133
 6236TIP3   OH240122   0.775   5.767  15.369 -0.4064  0.1794  0.2011
 6236TIP3    H140123   0.758   5.792  15.278  0.5580 -0.0642 -0.0492
 6236TIP3    H240124   0.834   5.693  15.364  2.0468  1.9329  1.0526
 6237TIP3   OH240125   1.428   2.226  11.784 -0.0826  0.1523 -0.2544
 6237TIP3    H140126   1.495   2.167  11.751 -0.0419  0.6300 -1.0458
 6237TIP3    H240127   1.361   2.168  11.821 -0.3320 -0.4371 -1.5540
 6238TIP3   OH240128   4.694   0.256   2.806 -0.4033 -0.0275 -0.4205
 6238TIP3    H140129   4.719   0.348   2.794  0.3628 -0.3570 -1.6238
 6238TIP3    H240130   4.723   0.234   2.894  0.4243  0.5760 -0.5336
 6239TIP3   OH240131   3.917   2.008   5.767 -0.1966  0.0726  0.2612
 6239TIP3    H140132   3.960   2.082   5.809 -1.5662  0.1067  1.7004
 6239TIP3    H240133   3.930   1.935   5.827 -1.5226 -0.0758  0.4042
 6240TIP3   OH240134   6.326   4.399  14.448 -0.4149 -0.4452 -0.2209
 6240TIP3    H140135   6.240   4.372  14.418 -0.7550  1.0574 -0.6559
 6240TIP3    H240136   6.371   4.430  14.369  0.7631 -1.7537 -0.1138
 6241TIP3   OH240137   2.288   2.239  13.970 -0.4666 -0.2478  0.2225
 6241TIP3    H140138   2.202   2.279  13.962 -0.8200 -0.7687  1.2672
 6241TIP3    H240139   2.341   2.302  14.018 -0.1933  0.1567 -0.5897
 6242TIP3   OH240140   4.809   2.689  17.290  0.6316  0.2296  0.6376
 6242TIP3    H140141   4.729   2.697  17.237 -0.8811 -0.3680  2.7248
 6242TIP3    H240142   4.843   2.779  17.296  0.1974  0.4744 -0.3607
 6243TIP3   OH240143   1.200   1.852   3.524 -0.5816  0.1607  0.1510
 6243TIP3    H140144   1.203   1.948   3.525  0.8953  0.1597  1.3634
 6243TIP3    H240145   1.289   1.826   3.548 -1.0674 -1.5177  0.2452
 6244TIP3   OH240146   0.033   1.188   6.013 -0.3013 -0.5104  0.1599
 6244TIP3    H140147   0.098   1.206   6.081 -0.1318  1.3498 -0.4658
 6244TIP3    H240148   0.058   1.243   5.939 -1.0362 -1.7981 -1.0997
 6245TIP3   OH240149   4.892   1.327  17.274 -0.6777  0.2792  0.4654
 6245TIP3    H140150   4.860   1.346  17.185 -0.0433  0.1361  0.2008
 6245TIP3    H240151   4.824   1.272  17.312 -1.0787  0.5543  0.1576
 6246TIP3   OH240152   1.481   3.270  15.202 -0.3521  0.2162 -0.0712
 6246TIP3    H140153   1.429   3.296  15.126  1.7071 -0.8578 -1.9707
 6246TIP3    H240154   1.516   3.352  15.236 -0.8038  0.6692 -0.6756
 6247TIP3   OH240155   3.791   4.363   5.050  0.1001 -0.3607  0.0639
 6247TIP3    H140156   3.830   4.334   5.132  0.7291  0.0946 -0.0715
 6247TIP3    H240157   3.829   4.307   4.983  1.4265  0.8242 -0.2170
 6248TIP3   OH240158   0.608   2.957  17.327  0.3455  0.6211  0.5828
 6248TIP3    H140159   0.631   3.044  17.359 -1.3718  0.9536  0.9650
 6248TIP3    H240160   0.570   2.913  17.403  1.5231 -0.6218  0.4975
 6249TIP3   OH240161   0.839   2.492   4.323 -0.1435 -0.0298 -0.2572
 6249TIP3    H140162   0.751   2.517   4.352  0.0346  0.3737 -0.0654
 6249TIP3    H240163   0.824   2.415   4.267 -0.7091  0.6020 -1.0017
 6250TIP3   OH240164   6.391   2.126   3.580  0.4164 -0.3471 -0.5953
 6250TIP3    H140165   6.343   2.103   3.659  1.5388  0.7749  0.4604
 6250TIP3    H240166   6.386   2.221   3.575  1.4034 -0.3109 -1.1767
 6251TIP3   OH240167   5.784   6.505  16.772 -0.4597 -0.1215  0.2426
 6251TIP3    H140168   5.768   6.457  16.691 -0.1405 -0.0166  0.1166
 6251TIP3    H240169   5.714   6.476  16.831  1.5588 -3.3192  1.3252
 6252TIP3   OH240170   1.284   6.122  12.432  0.0984 -0.1466  0.0741
 6252TIP3    H140171   1.311   6.039  12.472 -0.1403  0.2682  1.1369
 6252TIP3    H240172   1.195   6.106  12.400  0.0496 -0.3003  0.2826
 6253TIP3   OH240173   1.348   5.538  14.073  0.0854 -0.0826  0.1639
 6253TIP3    H140174   1.327   5.444  14.073 -0.5637  0.0544  0.4647
 6253TIP3    H240175   1.443   5.541  14.079  0.1621 -0.7327 -0.4959
 6254TIP3   OH240176   1.395   5.620  12.038 -0.1939 -0.2386 -0.0342
 6254TIP3    H140177   1.329   5.661  12.094  0.0134 -0.4096  0.3401
 6254TIP3    H240178   1.349   5.550  11.993 -0.2309 -0.4650  0.3522
 6255TIP3   OH240179   2.006   3.902  14.077  0.1692  0.5783  0.6957
 6255TIP3    H140180   1.975   3.964  14.144 -2.0921 -0.4269  0.6975
 6255TIP3    H240181   1.990   3.947  13.994 -2.1630 -0.1802  0.6627
 6256TIP3   OH240182   0.098   5.055   1.004  0.1408 -0.1697  0.4029
 6256TIP3    H140183   0.165   5.047   0.936  2.5121  2.7710  2.1686
 6256TIP3    H240184   0.044   5.129   0.976 -0.4355 -0.5327  0.5415
 6257TIP3   OH240185   3.075   6.751  16.958 -0.2048  0.6699  0.2521
 6257TIP3    H140186   3.155   6.800  16.940 -0.8911  1.9400  0.5379
 6257TIP3    H240187   3.078   6.733  17.053  1.0442 -1.7373 -0.1534
 6258TIP3   OH240188   3.992   6.465  15.819  0.0548  0.1733 -0.0608
 6258TIP3    H140189   3.970   6.555  15.841 -2.0140 -0.4717  0.6892
 6258TIP3    H240190   3.969   6.456  15.727 -1.5588 -0.0734  0.3396
 6259TIP3   OH240191   5.229   4.956   4.795 -0.2696  0.3207  0.1098
 6259TIP3    H140192   5.254   5.012   4.868  3.4767  0.4494 -1.0846
 6259TIP3    H240193   5.217   5.016   4.721 -0.0885 -0.1171 -0.2808
 6260TIP3   OH240194   3.718   5.726  12.725 -0.9649  0.0414  0.3302
 6260TIP3    H140195   3.725   5.801  12.784 -1.1010  0.7239 -0.4993
 6260TIP3    H240196   3.685   5.763  12.643  0.0856 -0.7371 -0.4739
 6261TIP3   OH240197   0.287   6.390  16.557 -0.1663  0.5292 -0.0668
 6261TIP3    H140198   0.193   6.394  16.578 -0.7127 -0.3988 -2.1104
 6261TIP3    H240199   0.295   6.439  16.475  0.9865 -0.1784 -0.3914
 6262TIP3   OH240200   6.257   1.414   1.048  0.2207  0.3459  0.2946
 6262TIP3    H140201   6.223   1.347   1.107  1.6687  1.0757  2.0828
 6262TIP3    H240202   6.348   1.389   1.033 -0.0551  0.3204 -1.4712
 6263TIP3   OH240203   1.359   3.584  13.659  0.1899 -0.0599 -0.5170
 6263TIP3    H140204   1.330   3.501  13.621 -1.3953  0.2071  0.0218
 6263TIP3    H240205   1.412   3.624  13.590 -1.6647 -0.1089 -2.0832
 6264TIP3   OH240206   3.684   4.794  15.527  0.2685 -0.2293  0.0017
 6264TIP3    H140207   3.771   4.834  15.522  0.3831 -0.5455 -0.6205
 6264TIP3    H240208   3.683   4.729  15.456 -0.4016 -0.3687  0.1307
 6265TIP3   OH240209   0.643   4.755   3.509  0.2733 -0.0667  0.1954
 6265TIP3    H140210   0.555   4.791   3.519  0.5905  1.8334 -2.6487
 6265TIP3    H240211   0.667   4.725   3.596 -2.8569  0.0737  1.2311
 6266TIP3   OH240212   1.434   1.143   2.219  0.2293 -0.5044 -0.3227
 6266TIP3    H140213   1.476   1.103   2.143 -0.0065 -0.0483 -0.6952
 6266TIP3    H240214   1.345   1.107   2.220 -0.1201  0.3025 -0.9002
 6267TIP3   OH240215   6.519   6.537  17.144  0.2739  0.5820  0.4065
 6267TIP3    H140216   6.580   6.571  17.079  2.2645  0.6305  2.1920
 6267TIP3    H240217   6.457   6.608  17.158 -0.2489  0.5523 -1.4229
 6268TIP3   OH240218   5.343   1.344   5.506 -0.3550 -0.1594 -0.2385
 6268TIP3    H140219   5.379   1.431   5.523 -0.8806  0.6056 -2.5887
 6268TIP3    H240220   5.420   1.287   5.502 -0.1174 -0.2193  3.0264
 6269TIP3   OH240221   6.505   6.628  12.884  0.0337 -0.3406 -0.3110
 6269TIP3    H140222   6.556   6.710  12.890  0.1007 -0.2769 -1.4820
 6269TIP3    H240223   6.570   6.561  12.863  0.1419 -0.9210  1.6432
 6270TIP3   OH240224   1.386   3.200   3.152 -0.3061 -0.3792  0.2862
 6270TIP3    H140225   1.469   3.219   3.196  0.4748 -0.3552 -1.1378
 6270TIP3    H240226   1.363   3.282   3.109  0.6029 -1.2319 -1.9425
 6271TIP3   OH240227   1.795   2.685  11.367  0.2425  0.6077  0.7169
 6271TIP3    H140228   1.776   2.755  11.429  0.0102  1.9867 -0.8300
 6271TIP3    H240229   1.746   2.710  11.288  0.6566 -0.9892 -0.0851
 6272TIP3   OH240230   2.360   0.626   6.754 -0.4321  0.1801 -0.0060
 6272TIP3    H140231   2.365   0.718   6.727 -0.2472  0.2080  0.1182
 6272TIP3    H240232   2.268   0.603   6.744 -0.9458  1.0440  2.1165
 6273TIP3   OH240233   3.664   1.446  17.234  0.0935  0.7449  0.1717
 6273TIP3    H140234   3.750   1.420  17.267 -0.0389 -1.7513 -1.1870
 6273TIP3    H240235   3.682   1.518  17.174  0.6704  3.1031  2.9484
 6274TIP3   OH240236   2.817   1.694   2.435 -0.0834 -0.2002  0.0155
 6274TIP3    H140237   2.879   1.676   2.364 -0.0491 -0.1283  0.0274
 6274TIP3    H240238   2.798   1.787   2.427  1.5972  0.3134  1.4452
 6275TIP3   OH240239   1.946   4.005   0.493  0.5662  0.0309 -0.1984
 6275TIP3    H140240   1.916   4.044   0.575  0.2019  1.1099 -0.8351
 6275TIP3    H240241   1.989   3.923   0.520  2.0689  1.2340  1.2206
 6276TIP3   OH240242   5.785   2.472   4.195 -0.1419  0.3973  0.4997
 6276TIP3    H140243   5.757   2.540   4.135  2.0955  1.5226  0.6254
 6276TIP3    H240244   5.775   2.511   4.282  1.9814  0.9579  0.5311
 6277TIP3   OH240245   0.859   0.687   1.473 -0.5693 -0.5860 -0.1756
 6277TIP3    H140246   0.872   0.724   1.385  0.5225 -0.3752  0.0530
 6277TIP3    H240247   0.929   0.623   1.482 -0.8680 -0.8355  0.4275
 6278TIP3   OH240248   3.060   3.744   5.940 -0.8237  0.1994  0.0619
 6278TIP3    H140249   2.976   3.723   5.897 -1.5979  0.8206  1.2138
 6278TIP3    H240250   3.126   3.727   5.873 -1.9728  0.9560 -1.3315
 6279TIP3   OH240251   3.144   1.967   3.160  0.1714 -0.1102 -0.0515
 6279TIP3    H140252   3.172   1.959   3.069 -0.1833  0.3045 -0.2028
 6279TIP3    H240253   3.129   1.877   3.189 -3.1463 -0.1706 -1.5201
 6280TIP3   OH240254   1.024   4.010   0.412  0.3198 -0.0864 -0.5798
 6280TIP3    H140255   0.953   4.074   0.402 -0.4343 -0.2127  2.7291
 6280TIP3    H240256   0.998   3.936   0.356 -1.2671  0.5823 -0.7770
 6281TIP3   OH240257   3.564   4.083  12.277 -0.4222  0.4499  0.0076
 6281TIP3    H140258   3.655   4.081  12.248 -0.5662  0.6437 -0.4651
 6281TIP3    H240259   3.520   4.141  12.214 -0.8186  0.5637  0.3839
 6282TIP3   OH240260   0.922   5.024   6.108  0.1550  0.1364 -0.2456
 6282TIP3    H140261   0.923   5.117   6.131 -0.8138  0.2447 -0.6179
 6282TIP3    H240262   0.852   4.988   6.162  1.9798 -0.8511  1.6184
 6283TIP3   OH240263   5.598   5.466   5.272  0.0530  0.2339  0.3733
 6283TIP3    H140264   5.651   5.546   5.269  0.1643  0.2788 -4.4764
 6283TIP3    H240265   5.508   5.497   5.275  0.1214  0.5855 -0.6607
 6284TIP3   OH240266   4.478   1.340  16.177 -0.2804  0.4871 -0.3790
 6284TIP3    H140267   4.561   1.387  16.174 -0.4074  0.7505  0.2322
 6284TIP3    H240268   4.419   1.392  16.122  0.1431 -0.0901 -1.4191
 6285TIP3   OH240269   6.369   4.049   5.484 -0.4079 -0.2008  0.0724
 6285TIP3    H140270   6.319   3.977   5.522 -0.4056 -1.5400 -2.2844
 6285TIP3    H240271   6.340   4.053   5.393  0.4187  2.0585 -0.1467
 6286TIP3   OH240272   1.200   5.736  16.825  0.2327  0.3691 -0.0736
 6286TIP3    H140273   1.204   5.831  16.827 -0.0119  0.4285  2.7768
 6286TIP3    H240274   1.107   5.717  16.812  0.1794  0.5571  0.0222
 6287TIP3   OH240275   2.254   3.248  17.194  0.8805  0.4131 -0.3871
 6287TIP3    H140276   2.272   3.336  17.160 -0.5145  2.3747  3.2970
 6287TIP3    H240277   2.172   3.223  17.153 -0.9459  2.8255  1.4794
 6288TIP3   OH240278   3.298   6.391   5.487  0.0849 -0.1365  0.1064
 6288TIP3    H140279   3.250   6.309   5.469  0.7216 -0.5650  0.3281
 6288TIP3    H240280   3.235   6.460   5.468 -1.3387 -0.7118  2.3791
 6289TIP3   OH240281   5.998   1.313  13.176  0.1593 -0.3958 -0.2094
 6289TIP3    H140282   6.025   1.388  13.230  3.3591 -1.3446 -0.2676
 6289TIP3    H240283   5.953   1.352  13.102  1.3295  1.4717 -0.0097
 6290TIP3   OH240284   3.885   0.762   4.476  0.0504 -0.4092  0.3107
 6290TIP3    H140285   3.829   0.686   4.458 -0.2387 -0.2829  0.6675
 6290TIP3    H240286   3.974   0.732   4.454 -0.1066 -0.7376  0.1195
 6291TIP3   OH240287   4.885   6.155   3.325  0.5310 -0.3224 -0.3155
 6291TIP3    H140288   4.936   6.224   3.282  1.3646 -1.7885 -1.7906
 6291TIP3    H240289   4.907   6.164   3.418  1.3186  0.8136 -0.5842
 6292TIP3   OH240290   4.583   0.090  13.476  0.3151  0.5443  0.3136
 6292TIP3    H140291   4.523   0.027  13.516  0.3002  0.8489  0.7873
 6292TIP3    H240292   4.658   0.092  13.535  0.2597  1.0632  0.3754
 6293TIP3   OH240293   5.512   3.978   1.859  0.3765  0.1256  0.3942
 6293TIP3    H140294   5.454   4.054   1.868 -1.2238 -0.6942 -1.8504
 6293TIP3    H240295   5.456   3.911   1.821  2.3209 -1.4508  0.1685
 6294TIP3   OH240296   3.771   1.633  17.068  0.0601 -0.5429 -0.0694
 6294TIP3    H140297   3.746   1.721  17.094  0.7757 -0.1994 -0.5093
 6294TIP3    H240298   3.865   1.639  17.048  1.0132 -2.1704  3.2826
 6295TIP3   OH240299   0.318   3.360   1.118  0.3183  0.1705  0.0110
 6295TIP3    H140300   0.270   3.442   1.112  0.2404  0.1188 -0.0717
 6295TIP3    H240301   0.310   3.333   1.209  3.1576  1.9763  0.9241
 6296TIP3   OH240302   0.095   2.380   3.070 -0.6108 -0.3689 -0.4136
 6296TIP3    H140303   0.028   2.409   3.133  0.3983  2.6423 -0.5836
 6296TIP3    H240304   0.178   2.390   3.117  0.1091  1.2347 -1.9272
 6297TIP3   OH240305   3.019   0.096  11.157  0.1323 -0.9991 -0.0216
 6297TIP3    H140306   3.089   0.110  11.222 -0.0676 -0.7806  0.1503
 6297TIP3    H240307   3.054   0.132  11.076 -0.0424 -0.2586  0.2204
 6298TIP3   OH240308   0.550   6.153  17.287 -0.6266 -1.1283  0.1194
 6298TIP3    H140309   0.483   6.214  17.257 -0.4018 -0.5827  0.7061
 6298TIP3    H240310   0.599   6.202  17.353 -0.3466 -1.8898  0.4873
 6299TIP3   OH240311   2.688   0.724   4.114 -0.1643  0.5036  0.1292
 6299TIP3    H140312   2.619   0.687   4.169 -0.2403  1.1684  0.4930
 6299TIP3    H240313   2.656   0.715   4.025 -1.1474  1.6430  0.3385
 6300TIP3   OH240314   3.965   1.803   0.175  0.3476 -0.1473  0.2779
 6300TIP3    H140315   4.051   1.773   0.145  0.5284  0.5871  0.0218
 6300TIP3    H240316   3.975   1.898   0.183 -0.1360 -0.1648  1.2505
 6301TIP3   OH240317   4.931   0.492  12.969 -0.1539 -0.4647  0.2200
 6301TIP3    H140318   4.955   0.458  13.055  0.4150  0.2051  0.3405
 6301TIP3    H240319   4.949   0.586  12.974 -2.8866  0.1484  0.3417
 6302TIP3   OH240320   2.527   6.417  12.987  0.8905  0.0874 -0.6546
 6302TIP3    H140321   2.443   6.390  13.026  1.3297 -0.8158 -0.3013
 6302TIP3    H240322   2.549   6.498  13.034 -0.0848  0.6920 -1.1994
 6303TIP3   OH240323   0.058   5.042   1.504  0.3001 -0.6457 -0.4675
 6303TIP3    H140324  -0.025   5.077   1.473  0.0161 -0.2990  0.6506
 6303TIP3    H240325   0.122   5.110   1.484  0.3063 -0.8569 -1.2053
 6304TIP3   OH240326   4.114   6.670   2.723 -0.4500 -0.6316  0.0444
 6304TIP3    H140327   4.044   6.622   2.680 -0.8433  0.5355 -0.6761
 6304TIP3    H240328   4.182   6.605   2.740 -0.8801 -1.3834 -1.0671
 6305TIP3   OH240329   5.727   1.677  13.958  0.2402  0.2716  0.5136
 6305TIP3    H140330   5.664   1.672  14.031  1.4633 -0.3016  1.5806
 6305TIP3    H240331   5.676   1.653  13.881 -1.2703  1.6090  1.0529
 6306TIP3   OH240332   0.272   6.582  11.482  0.4087  0.4341 -0.2244
 6306TIP3    H140333   0.313   6.657  11.525  1.4286  0.1852 -0.7429
 6306TIP3    H240334   0.206   6.620  11.424 -1.0167  0.7795  1.5435
 6307TIP3   OH240335   1.848   5.019  13.085  0.3548 -0.2720 -0.4171
 6307TIP3    H140336   1.830   4.987  13.173 -1.8773  2.0360  0.0872
 6307TIP3    H240337   1.862   5.113  13.096  1.1034 -0.1053 -2.4185
 6308TIP3   OH240338   0.208   6.008  15.180 -0.8609  0.2511 -0.0739
 6308TIP3    H140339   0.143   6.027  15.248 -1.0910  1.6404 -0.6570
 6308TIP3    H240340   0.156   5.998  15.100 -0.6065 -1.5542 -0.0488
 6309TIP3   OH240341   5.858   4.469   2.732 -0.2887 -0.0647 -0.6649
 6309TIP3    H140342   5.842   4.543   2.673 -3.0993  0.6498  0.8332
 6309TIP3    H240343   5.833   4.501   2.819 -0.2881 -2.3630  0.2653
 6310TIP3   OH240344   5.688   5.102   2.310 -0.2941  0.4001  0.3664
 6310TIP3    H140345   5.694   5.083   2.216 -0.3881 -1.2492  0.6686
 6310TIP3    H240346   5.595   5.113   2.327 -0.2217  1.4564  0.1471
 6311TIP3   OH240347   2.642   5.282   2.753 -0.2402  0.0629  0.3983
 6311TIP3    H140348   2.608   5.211   2.808  1.0495 -2.7067 -2.0897
 6311TIP3    H240349   2.574   5.296   2.687  0.6813 -1.0820 -0.8710
 6312TIP3   OH240350   0.125   6.139   4.311  0.0274  0.0530 -0.7833
 6312TIP3    H140351   0.101   6.185   4.231  0.5158 -0.0375 -0.9866
 6312TIP3    H240352   0.100   6.048   4.296 -0.6505  0.1843 -0.5027
 6313TIP3   OH240353   5.218   1.803   4.347 -0.6967  0.3711  0.2714
 6313TIP3    H140354   5.285   1.860   4.309 -1.5577  0.7699 -0.7032
 6313TIP3    H240355   5.260   1.717   4.353 -0.0083  0.6761 -0.0710
 6314TIP3   OH240356   3.108   5.486   3.860  0.2509 -0.2423  0.5271
 6314TIP3    H140357   3.041   5.542   3.899 -0.8017 -0.7937 -0.4145
 6314TIP3    H240358   3.091   5.399   3.895  1.7400 -0.0663  1.8106
 6315TIP3   OH240359   1.028   4.512  13.529  0.1123  0.1303  0.0197
 6315TIP3    H140360   1.076   4.548  13.454 -1.0023 -0.3610 -0.9523
 6315TIP3    H240361   1.083   4.440  13.560 -0.7041 -1.5777 -2.1726
 6316TIP3   OH240362   6.218   6.251   0.730  0.9475  0.5146  0.2825
 6316TIP3    H140363   6.298   6.205   0.756  0.3966 -0.2797  0.5894
 6316TIP3    H240364   6.160   6.182   0.698  1.0024  1.2700 -1.5596
 6317TIP3   OH240365   0.572   2.631  12.870 -0.2667  0.5285  0.3183
 6317TIP3    H140366   0.554   2.642  12.964 -3.0349  1.6033 -0.2453
 6317TIP3    H240367   0.500   2.677  12.826  0.6112 -0.4580 -2.3578
 6318TIP3   OH240368   5.792   5.310  13.416 -0.2466 -0.1659 -0.1771
 6318TIP3    H140369   5.852   5.236  13.409  0.5758  0.4998 -0.2855
 6318TIP3    H240370   5.709   5.276  13.384 -0.1559 -1.3498  0.7469
 6319TIP3   OH240371   2.961   0.785   0.612  0.2066 -0.5874 -0.3810
 6319TIP3    H140372   3.025   0.804   0.542 -0.1733  0.3308 -0.4878
 6319TIP3    H240373   2.902   0.860   0.612 -2.4197 -2.4722 -1.9506
 6320TIP3   OH240374   2.021   0.899  12.490 -0.1871  0.1239 -0.4898
 6320TIP3    H140375   1.977   0.971  12.445  2.2259  3.3446  1.7823
 6320TIP3    H240376   2.113   0.910  12.468  0.3728 -1.7381  0.6817
 6321TIP3   OH240377   5.484   5.637  12.484 -0.4179  0.1442  0.0920
 6321TIP3    H140378   5.445   5.697  12.421  0.3199 -0.5253 -1.0368
 6321TIP3    H240379   5.573   5.671  12.497  0.0563 -0.7643 -0.6697
 6322TIP3   OH240380   1.800   2.461   5.307 -0.3759  0.1368  0.1821
 6322TIP3    H140381   1.749   2.386   5.337 -0.9389  0.6681  0.5793
 6322TIP3    H240382   1.744   2.503   5.241  0.2021 -0.1484 -0.4918
 6323TIP3   OH240383   1.832   6.220  11.266  0.0030  0.3216 -0.7107
 6323TIP3    H140384   1.788   6.193  11.347 -3.0965  0.9241 -2.0511
 6323TIP3    H240385   1.854   6.312  11.281 -2.1693  0.9532 -1.1037
 6324TIP3   OH240386   0.819   0.098  16.910  0.3829  0.4365 -0.0037
 6324TIP3    H140387   0.740   0.148  16.889  0.0439 -0.0788  0.0187
 6324TIP3    H240388   0.889   0.141  16.861  0.5439  2.3220  1.7649
 6325TIP3   OH240389   0.580   3.836   4.975  0.2612  0.9108  0.3451
 6325TIP3    H140390   0.525   3.759   4.964  0.9781  0.4580 -0.1694
 6325TIP3    H240391   0.551   3.896   4.906  2.5027 -0.6035 -2.1375
 6326TIP3   OH240392   6.079   0.346   2.390  0.2822  0.1625 -0.4654
 6326TIP3    H140393   6.048   0.410   2.454 -0.2950  0.4378 -1.0097
 6326TIP3    H240394   6.130   0.283   2.442  0.5543  0.8608  0.1237
 6327TIP3   OH240395   2.504   3.328   1.385  0.7504 -0.2228 -0.1358
 6327TIP3    H140396   2.587   3.373   1.402 -0.1366  1.0138  1.2154
 6327TIP3    H240397   2.465   3.318   1.472 -1.9353  2.1279 -0.9040
 6328TIP3   OH240398   0.174   6.656   3.451 -0.3974  0.2199 -0.2538
 6328TIP3    H140399   0.264   6.663   3.421 -0.9063  1.3157 -1.6319
 6328TIP3    H240400   0.121   6.688   3.378 -1.8746  0.1823  0.7400
 6329TIP3   OH240401   6.690   4.908  14.454 -0.3625  0.4224  0.2726
 6329TIP3    H140402   6.672   4.852  14.379 -1.1342  0.7144  0.2193
 6329TIP3    H240403   6.744   4.855  14.512  0.6907  0.3775 -0.7195
 6330TIP3   OH240404   2.866   2.933  11.132 -0.1360  0.0280 -0.3679
 6330TIP3    H140405   2.893   2.842  11.130 -0.9687 -0.2209 -0.8984
 6330TIP3    H240406   2.898   2.969  11.049 -1.2440 -0.2272 -0.9263
 6331TIP3   OH240407   6.590   3.949   0.315  0.4221  0.1523 -0.5305
 6331TIP3    H140408   6.530   3.912   0.251 -0.2483 -0.5296  0.4627
 6331TIP3    H240409   6.623   4.030   0.274  0.5991 -0.6415 -2.0234
 6332TIP3   OH240410   1.083   2.303   2.250  0.3793 -0.1484 -0.1793
 6332TIP3    H140411   1.116   2.321   2.161  1.2632  0.7696  0.3007
 6332TIP3    H240412   1.072   2.390   2.289  1.3123 -0.5508  1.0595
 6333TIP3   OH240413   4.919   4.873   2.622 -0.1652  0.2760  0.3075
 6333TIP3    H140414   4.928   4.779   2.607 -0.9851 -0.0794  1.8395
 6333TIP3    H240415   4.825   4.890   2.611 -0.3365  0.5231  1.8609
 6334TIP3   OH240416   0.801   1.369   1.103  0.1028 -0.6041  0.1255
 6334TIP3    H140417   0.768   1.331   1.185 -2.9681  1.1225 -0.1865
 6334TIP3    H240418   0.729   1.359   1.041  1.6601 -0.1451 -1.8767
 6335TIP3   OH240419   2.745   1.945   2.481  0.3922  0.5281  0.5096
 6335TIP3    H140420   2.805   2.005   2.437  0.4932  1.3965  1.7572
 6335TIP3    H240421   2.735   1.982   2.569  0.5557 -1.3554  1.3667
 6336TIP3   OH240422   4.536   3.170   6.059  0.1733  0.0098  0.5036
 6336TIP3    H140423   4.593   3.114   6.111 -0.2801 -1.3766 -0.4396
 6336TIP3    H240424   4.594   3.207   5.991  0.3433  0.2101  0.7549
 6337TIP3   OH240425   3.358   0.183  15.196  0.7090 -0.0994  0.5882
 6337TIP3    H140426   3.316   0.144  15.272  1.8180 -1.9717  0.3087
 6337TIP3    H240427   3.433   0.126  15.178  2.3555  2.0860  0.0247
 6338TIP3   OH240428   5.596   3.098  17.004  0.2692  0.1796 -0.0103
 6338TIP3    H140429   5.633   3.101  16.916 -0.6248 -1.6204 -0.4981
 6338TIP3    H240430   5.513   3.145  16.997  1.1840  1.9580  0.4563
 6339TIP3   OH240431   4.966   5.373   4.202  0.5456 -0.3365 -0.5085
 6339TIP3    H140432   4.958   5.432   4.278 -1.1151  0.5947 -1.3544
 6339TIP3    H240433   5.060   5.366   4.187  0.8268  2.9848 -0.9959
 6340TIP3   OH240434   0.039   4.798   5.830 -0.3817 -0.3482 -0.1638
 6340TIP3    H140435  -0.007   4.802   5.914 -0.5777  0.2848 -0.2923
 6340TIP3    H240436  -0.025   4.761   5.769 -0.4373 -0.2690 -0.1546
 6341TIP3   OH240437   5.927   6.179   3.577  0.3851  0.1543 -0.2678
 6341TIP3    H140438   5.900   6.189   3.668  1.0259  0.6956 -0.1290
 6341TIP3    H240439   5.880   6.102   3.546 -0.7337  0.6367  0.1783
 6342TIP3   OH240440   1.465   0.084   6.198 -0.7464 -0.5033  0.5328
 6342TIP3    H140441   1.510   0.135   6.130  0.8763 -2.1682  0.2879
 6342TIP3    H240442   1.385   0.134   6.216 -0.2931  0.9751 -1.2259
 6343TIP3   OH240443   0.797   1.902  16.854 -0.8724 -0.1908 -0.1013
 6343TIP3    H140444   0.777   1.864  16.940 -1.1285  0.9052  0.3429
 6343TIP3    H240445   0.735   1.975  16.845 -1.6743 -1.0295 -1.7599
 6344TIP3   OH240446   3.824   5.517   0.939  0.2465 -0.1482  0.0458
 6344TIP3    H140447   3.898   5.535   0.880 -0.7426  0.5991 -1.0155
 6344TIP3    H240448   3.754   5.486   0.881 -0.3579 -0.6321  0.9999
 6345TIP3   OH240449   4.575   6.122   1.400 -0.1953  0.2114 -0.3096
 6345TIP3    H140450   4.517   6.142   1.474  1.0794 -3.2280  1.8548
 6345TIP3    H240451   4.522   6.067   1.343 -0.1212 -0.0824 -0.0985
 6346TIP3   OH240452   0.404   5.810   1.602 -0.8675 -0.3071  0.4695
 6346TIP3    H140453   0.394   5.800   1.697  2.4283 -1.3545  0.8600
 6346TIP3    H240454   0.343   5.747   1.565 -2.4610  0.3525  1.8453
 6347TIP3   OH240455   3.919   3.423   3.254 -0.1026  0.1427  0.6580
 6347TIP3    H140456   3.867   3.499   3.229 -1.8192 -1.9879 -2.9142
 6347TIP3    H240457   4.005   3.439   3.216 -1.1247 -0.5706 -2.2240
 6348TIP3   OH240458   2.969   1.453  15.274 -0.0393 -0.2669 -0.1547
 6348TIP3    H140459   3.005   1.511  15.341  1.7280 -0.2327 -1.0694
 6348TIP3    H240460   2.974   1.503  15.193  0.3122 -1.1986 -0.7361
 6349TIP3   OH240461   2.071   2.152   3.208  0.3020  0.2153  0.6944
 6349TIP3    H140462   2.073   2.089   3.279  0.3090  0.8855  1.2996
 6349TIP3    H240463   1.994   2.128   3.156  0.7050 -0.7100  0.5179
 6350TIP3   OH240464   0.475   0.904   5.486 -0.3703  0.0073 -0.5616
 6350TIP3    H140465   0.404   0.847   5.515  0.5071 -0.1645  1.3795
 6350TIP3    H240466   0.433   0.966   5.427 -1.5556 -1.9013 -1.8302
 6351TIP3   OH240467   5.938   5.644  11.730  0.4240 -0.2122  0.4948
 6351TIP3    H140468   5.887   5.682  11.802 -1.3820 -1.3396 -0.1157
 6351TIP3    H240469   5.896   5.677  11.651  0.1757 -1.6957 -0.0284
 6352TIP3   OH240470   4.629   6.017  12.503  0.2770  0.0545  0.4945
 6352TIP3    H140471   4.542   5.998  12.469 -0.1821  2.0300  0.4236
 6352TIP3    H240472   4.688   5.964  12.450 -0.7375  0.0689 -0.6834
 6353TIP3   OH240473   1.506   0.182  17.174  0.0349 -0.6265  0.2262
 6353TIP3    H140474   1.510   0.195  17.268  1.1071 -1.2241  0.2817
 6353TIP3    H240475   1.444   0.248  17.143 -0.7291 -0.7695  1.3988
 6354TIP3   OH240476   2.344   1.016  16.353  0.0293 -0.3887  0.3920
 6354TIP3    H140477   2.363   0.993  16.444  0.6688 -1.3074  0.0436
 6354TIP3    H240478   2.394   1.096  16.337  0.6588 -0.7413  0.5806
 6355TIP3   OH240479   1.387   4.480  15.405  0.1302  0.3315  0.2282
 6355TIP3    H140480   1.352   4.455  15.490 -1.5610 -0.4750 -0.6667
 6355TIP3    H240481   1.446   4.553  15.423 -0.4655  0.3896  2.0302
 6356TIP3   OH240482   0.036   3.493  10.863  0.4847  0.9545  1.0581
 6356TIP3    H140483  -0.035   3.429  10.872  2.2586 -1.3782 -0.4322
 6356TIP3    H240484   0.074   3.499  10.950 -1.1162  1.7834  1.7420
 6357TIP3   OH240485   6.509   1.979   3.819  0.0210  0.2924  0.3158
 6357TIP3    H140486   6.559   2.058   3.798 -1.1699  0.5427 -1.8314
 6357TIP3    H240487   6.420   2.009   3.834 -0.6454 -0.6682 -1.3977
 6358TIP3   OH240488   1.441   3.820   5.382  0.2881 -0.3230  0.1376
 6358TIP3    H140489   1.415   3.728   5.371 -1.7876  0.0142  1.5721
 6358TIP3    H240490   1.508   3.817   5.451 -1.0825 -0.6508  1.5038
 6359TIP3   OH240491   5.239   6.433   2.289 -0.0596  0.9155  0.2342
 6359TIP3    H140492   5.281   6.427   2.204 -1.9207  1.0346 -0.7363
 6359TIP3    H240493   5.165   6.372   2.284  1.4532 -1.3611  2.8385
 6360TIP3   OH240494   3.779   3.519   3.534  0.0572  0.4171 -0.0347
 6360TIP3    H140495   3.723   3.535   3.458 -1.2559  0.2848  0.8559
 6360TIP3    H240496   3.738   3.445   3.578  1.4609 -0.2569  0.1990
 6361TIP3   OH240497   3.817   4.388  13.822 -0.3579  0.0296 -0.1680
 6361TIP3    H140498   3.836   4.400  13.729 -0.4553  0.6372 -0.1152
 6361TIP3    H240499   3.791   4.475  13.852  0.4383  0.0113  0.6068
 6362TIP3   OH240500   0.111   5.359   1.245  0.8818  0.0559  0.2997
 6362TIP3    H140501   0.167   5.434   1.264  1.9997 -0.3145 -1.3180
 6362TIP3    H240502   0.170   5.283   1.252  0.4421 -0.4003 -0.7593
 6363TIP3   OH240503   1.316   5.622  17.081 -0.0831 -0.2263  0.1675
 6363TIP3    H140504   1.333   5.541  17.032  2.4909  0.4956 -0.2434
 6363TIP3    H240505   1.279   5.681  17.015 -2.0172 -0.9970  0.4779
 6364TIP3   OH240506   4.694   4.848   2.206  0.3313 -0.6082  0.0375
 6364TIP3    H140507   4.609   4.882   2.179  1.7238  1.3664 -2.2911
 6364TIP3    H240508   4.711   4.890   2.290 -0.2535  0.3682 -0.3154
 6365TIP3   OH240509   4.237   1.333   0.583  0.7056 -0.1116  0.1803
 6365TIP3    H140510   4.224   1.290   0.667 -0.3734  2.1737  1.2593
 6365TIP3    H240511   4.268   1.421   0.605  2.3342 -0.0833 -1.9037
 6366TIP3   OH240512   3.544   5.445   5.086 -0.2111 -0.3817  0.4055
 6366TIP3    H140513   3.639   5.456   5.076 -0.2193  0.1799  0.8517
 6366TIP3    H240514   3.521   5.506   5.156 -0.9357 -0.3655  0.1581
 6367TIP3   OH240515   0.343   2.044  11.534 -0.1245 -0.4604  0.0958
 6367TIP3    H140516   0.267   2.088  11.572 -0.1953 -1.3460  1.0397
 6367TIP3    H240517   0.378   1.991  11.606  1.5267  0.1163 -0.2537
 6368TIP3   OH240518   0.372   1.690   5.978 -0.1816  0.5609  0.1812
 6368TIP3    H140519   0.325   1.732   5.905  0.6000  1.1429  0.0010
 6368TIP3    H240520   0.397   1.605   5.944  1.8106  1.5266 -0.9339
 6369TIP3   OH240521   3.254   3.743  12.038 -0.1529 -0.0678  0.7879
 6369TIP3    H140522   3.320   3.780  11.979 -1.5231 -0.0243 -0.8085
 6369TIP3    H240523   3.297   3.667  12.077  0.3656 -1.0058 -1.4433
 6370TIP3   OH240524   0.697   2.669   5.953 -0.4760 -0.7864  0.7259
 6370TIP3    H140525   0.766   2.652   6.017 -1.2011 -0.1979  1.6950
 6370TIP3    H240526   0.640   2.732   5.996 -0.1983  0.7662 -1.0716
 6371TIP3   OH240527   3.751   6.083   4.685 -0.2789 -0.3055 -0.1748
 6371TIP3    H140528   3.692   6.082   4.609 -1.2074  2.4419  0.3743
 6371TIP3    H240529   3.751   6.174   4.714  4.0757 -0.1660  0.0762
 6372TIP3   OH240530   5.547   5.548   1.213 -0.0221 -0.0503 -0.3160
 6372TIP3    H140531   5.511   5.524   1.128  0.5595 -2.8106  0.1399
 6372TIP3    H240532   5.631   5.590   1.193  1.1088 -2.5410 -1.1170
 6373TIP3   OH240533   2.728   1.951  15.441  0.3558 -0.3244  0.1303
 6373TIP3    H140534   2.677   2.028  15.467  1.8260  1.7356 -2.5474
 6373TIP3    H240535   2.814   1.965  15.481  0.3583 -1.0997  0.4069
 6374TIP3   OH240536   5.023   4.190  15.508  0.4960 -0.4318 -0.4484
 6374TIP3    H140537   5.118   4.179  15.503  0.7310  0.2862  1.6385
 6374TIP3    H240538   5.008   4.228  15.594 -1.4960  1.5435 -1.5606
 6375TIP3   OH240539   5.535   1.150  15.065 -0.2765 -0.8403  0.2918
 6375TIP3    H140540   5.475   1.140  15.138 -1.0404  0.6695 -0.0929
 6375TIP3    H240541   5.577   1.064  15.056  2.8492 -0.1760  5.0610
 6376TIP3   OH240542   1.006   3.498  16.780 -0.5189 -0.2228  0.7197
 6376TIP3    H140543   1.011   3.510  16.685 -0.4143 -1.3721  0.5575
 6376TIP3    H240544   0.921   3.458  16.796  0.0431 -1.4284  0.9082
 6377TIP3   OH240545   1.571   6.746  12.796 -0.3471  0.0169 -0.7174
 6377TIP3    H140546   1.547   6.812  12.732 -0.7192 -0.5868 -1.2199
 6377TIP3    H240547   1.664   6.729  12.781  0.5964  2.6005  1.4527
 6378TIP3   OH240548   6.087   4.731  16.384 -0.3379  0.3722 -0.0112
 6378TIP3    H140549   6.178   4.746  16.410 -0.4137  1.1288 -0.1517
 6378TIP3    H240550   6.089   4.734  16.288 -0.4636  0.0908 -0.0239
 6379TIP3   OH240551   5.226   2.525  15.098 -0.5099  0.2363  0.0917
 6379TIP3    H140552   5.148   2.486  15.058 -0.7478  0.3245  0.4660
 6379TIP3    H240553   5.195   2.563  15.180  0.0789 -0.4801  0.6664
 6380TIP3   OH240554   5.449   0.386  16.489  0.2064 -0.6056  0.4124
 6380TIP3    H140555   5.409   0.473  16.496  1.0237 -0.2775  1.2037
 6380TIP3    H240556   5.397   0.341  16.423  1.0284  1.1925 -1.5814
 6381TIP3   OH240557   5.267   0.471  16.274 -0.3450 -0.4069 -0.1036
 6381TIP3    H140558   5.231   0.393  16.317 -0.4844 -0.1204  0.3124
 6381TIP3    H240559   5.198   0.500  16.215 -0.3455 -0.5243 -0.1604
 6382TIP3   OH240560   2.522   4.644   2.307 -0.2262 -0.3360  0.5742
 6382TIP3    H140561   2.566   4.674   2.228 -1.2763  1.1916  0.5136
 6382TIP3    H240562   2.529   4.718   2.368  1.8865 -2.0007  2.5439
 6383TIP3   OH240563   5.741   6.326  15.521 -0.1704  0.6506  0.6486
 6383TIP3    H140564   5.768   6.412  15.489 -0.3584  0.6039  0.3529
 6383TIP3    H240565   5.817   6.270  15.505 -0.5967  0.4009 -0.6648
 6384TIP3   OH240566   0.177   2.188  10.712 -0.4603 -0.2858 -0.3263
 6384TIP3    H140567   0.124   2.149  10.642  0.7796 -1.6844 -0.5420
 6384TIP3    H240568   0.238   2.246  10.666 -0.7963  0.1629 -0.2168
 6385TIP3   OH240569   5.401   2.040   3.362  0.0517 -0.8310 -0.4226
 6385TIP3    H140570   5.479   2.093   3.355 -1.4371  1.4533 -0.6663
 6385TIP3    H240571   5.402   1.984   3.284  1.6565 -1.2373 -0.1467
 6386TIP3   OH240572   2.944   0.880  15.732  0.5596 -0.1046 -0.5804
 6386TIP3    H140573   2.961   0.787  15.717  1.2435  0.1069 -1.1450
 6386TIP3    H240574   2.849   0.889  15.719  0.3923 -0.8260  0.0828
 6387TIP3   OH240575   4.048   4.859   5.160  0.5278  0.2561  0.6287
 6387TIP3    H140576   3.958   4.889   5.145 -0.4269 -1.8476  1.6891
 6387TIP3    H240577   4.085   4.923   5.220 -0.1245  1.3388 -0.0814
 6388TIP3   OH240578   6.346   6.290  15.711 -0.7258 -0.1304 -0.0070
 6388TIP3    H140579   6.441   6.294  15.716 -0.7164  1.1034 -0.8370
 6388TIP3    H240580   6.317   6.294  15.802  0.0177 -1.6763  0.3401
 6389TIP3   OH240581   4.681   0.998  12.462 -0.0086 -0.7818 -0.2117
 6389TIP3    H140582   4.684   0.903  12.469  2.7286 -0.8168 -0.8688
 6389TIP3    H240583   4.749   1.020  12.398 -1.9504  1.5012 -1.6815
 6390TIP3   OH240584   6.400   2.593   3.006  0.0010 -1.0098  0.0986
 6390TIP3    H140585   6.470   2.539   3.041  0.9604 -1.1647 -1.9230
 6390TIP3    H240586   6.432   2.622   2.920 -1.8603  0.0165 -0.3153
 6391TIP3   OH240587   0.731   6.684  15.098 -0.7209 -0.0757 -0.0346
 6391TIP3    H140588   0.754   6.686  15.004  0.0101  0.0220  0.1357
 6391TIP3    H240589   0.773   6.604  15.130  2.7719  1.9563  1.0875
 6392TIP3   OH240590   2.998   2.577  15.942  0.4867 -0.0375 -0.2376
 6392TIP3    H140591   2.903   2.567  15.950  0.4068  0.6534 -0.2746
 6392TIP3    H240592   3.015   2.667  15.969  1.1148 -0.1066 -0.3878
 6393TIP3   OH240593   5.589   6.470   4.629  0.0756  0.1529  0.2425
 6393TIP3    H140594   5.566   6.536   4.694 -0.1692 -1.4975  1.9343
 6393TIP3    H240595   5.676   6.439   4.656 -0.7194 -1.7221  0.8641
 6394TIP3   OH240596   5.598   5.186   6.190  0.4071  0.5140 -0.5150
 6394TIP3    H140597   5.678   5.134   6.195  0.1017  0.1559  2.0614
 6394TIP3    H240598   5.530   5.122   6.167  0.4196  0.2353  0.2023
 6395TIP3   OH240599   2.373   0.113   1.923 -1.0835  0.5827  0.1939
 6395TIP3    H140600   2.374   0.033   1.870  0.7128 -0.2710  1.3896
 6395TIP3    H240601   2.359   0.183   1.860 -0.9437 -0.5413 -1.1407
 6396TIP3   OH240602   1.585   1.115   3.212 -0.2478  0.4674 -0.2680
 6396TIP3    H140603   1.612   1.152   3.296 -0.0970 -0.8440  0.2776
 6396TIP3    H240604   1.643   1.157   3.148  0.6488  0.3769  0.4638
 6397TIP3   OH240605   3.200   1.364  14.053  0.3803  0.5187  0.0305
 6397TIP3    H140606   3.138   1.348  14.125 -1.3911 -0.9730 -1.7105
 6397TIP3    H240607   3.185   1.455  14.028  1.2894  1.1815  1.7316
 6398TIP3   OH240608   3.539   1.630  14.106  0.6342  0.3242  0.7287
 6398TIP3    H140609   3.485   1.610  14.183  1.0402 -1.0663  0.6829
 6398TIP3    H240610   3.479   1.675  14.047 -0.5413 -1.2343  0.6493
 6399TIP3   OH240611   2.532   1.927  12.884  0.5932  0.3936 -0.2940
 6399TIP3    H140612   2.581   1.850  12.913  0.3212  0.3070 -0.0637
 6399TIP3    H240613   2.467   1.893  12.822  1.7211  0.6779 -1.6988
 6400TIP3   OH240614   2.942   6.044   4.418 -0.0758  0.4201  0.0610
 6400TIP3    H140615   2.908   5.980   4.480 -1.8616  1.8400  0.6204
 6400TIP3    H240616   2.942   5.998   4.334  2.1794 -1.4571  0.9730
 6401TIP3   OH240617   5.033   0.653  12.041  0.5298  0.0688  0.1708
 6401TIP3    H140618   4.948   0.640  12.082  0.7243 -1.1129  0.2389
 6401TIP3    H240619   5.024   0.613  11.954  0.7803  0.6159 -0.1117
 6402TIP3   OH240620   5.581   3.787   4.181  0.0266  0.4008 -0.1556
 6402TIP3    H140621   5.522   3.735   4.126  0.0232 -0.5475  0.7137
 6402TIP3    H240622   5.568   3.877   4.151 -1.9128  0.2309  0.0335
 6403TIP3   OH240623   6.029   4.847   3.603  0.1776 -0.3084  0.4935
 6403TIP3    H140624   6.048   4.931   3.561 -1.5988 -0.1623 -0.1488
 6403TIP3    H240625   6.069   4.781   3.546 -1.4903 -0.0566 -1.0849
 6404TIP3   OH240626   4.197   2.179   2.790  0.8812 -0.0674  0.0394
 6404TIP3    H140627   4.101   2.182   2.797  0.7090 -0.5311 -1.6840
 6404TIP3    H240628   4.228   2.209   2.876 -0.8004 -0.5013  0.8430
 6405TIP3   OH240629   6.733   4.255   2.367  0.0221 -0.3711  0.3407
 6405TIP3    H140630   6.684   4.175   2.349  0.5655 -0.6413  0.0255
 6405TIP3    H240631   6.741   4.298   2.282 -0.3255  0.0563  0.5190
 6406TIP3   OH240632   2.779   1.007  16.762 -0.1702  0.6810 -0.2813
 6406TIP3    H140633   2.835   0.981  16.689 -1.1193  0.8005 -1.0683
 6406TIP3    H240634   2.744   0.925  16.797  1.0685  0.5401  0.7163
 6407TIP3   OH240635   3.150   4.211  11.216  0.1711  0.6271  0.0440
 6407TIP3    H140636   3.131   4.200  11.123  0.3165 -0.1584  0.1001
 6407TIP3    H240637   3.238   4.251  11.218  0.8427 -0.7799 -0.1545
 6408TIP3   OH240638   4.999   4.775  13.121 -0.3357  0.2879 -0.2189
 6408TIP3    H140639   5.030   4.740  13.204 -1.6781  0.3430  0.3353
 6408TIP3    H240640   4.990   4.869  13.136 -0.4591  0.3173 -0.4692
 6409TIP3   OH240641   1.204   3.959   1.158 -0.3676  0.2119  1.1191
 6409TIP3    H140642   1.116   3.994   1.172 -0.6942 -0.2705  0.3663
 6409TIP3    H240643   1.191   3.864   1.151  0.1207  0.1922  0.3771
 6410TIP3   OH240644   4.679   0.443  12.887  0.2849 -0.4879  0.3856
 6410TIP3    H140645   4.679   0.362  12.836  0.0143 -0.2536  0.0148
 6410TIP3    H240646   4.771   0.457  12.908  0.8647  1.0532 -2.6628
 6411TIP3   OH240647   2.647   4.918  15.052  0.4947  0.2816 -0.2046
 6411TIP3    H140648   2.592   4.996  15.054  2.1035  1.4626 -0.1715
 6411TIP3    H240649   2.735   4.951  15.035  1.0985 -1.6126 -0.9887
 6412TIP3   OH240650   5.056   2.665  12.520  0.6277  0.2258  0.3874
 6412TIP3    H140651   5.088   2.728  12.585  2.0710 -1.0088  0.9352
 6412TIP3    H240652   4.968   2.642  12.550  0.8064  0.5874  1.2293
 6413TIP3   OH240653   2.250   3.591   3.828 -0.2314  0.3437 -0.6806
 6413TIP3    H140654   2.220   3.525   3.891  2.0411  1.2082  1.5150
 6413TIP3    H240655   2.209   3.673   3.857  0.7384  0.7265 -0.3283
 6414TIP3   OH240656   4.400   0.965  14.750 -0.2370  0.3541  0.1466
 6414TIP3    H140657   4.384   1.039  14.693 -1.6834  0.9803  1.2980
 6414TIP3    H240658   4.323   0.908  14.739 -0.0302 -0.0374  0.6635
 6415TIP3   OH240659   5.163   3.431   6.472  0.3501 -0.0422  0.1511
 6415TIP3    H140660   5.228   3.381   6.522  0.9458  0.6216  0.0503
 6415TIP3    H240661   5.215   3.479   6.407 -0.3680 -0.5318 -0.8069
 6416TIP3   OH240662   0.001   2.044  13.143  0.1172 -0.0403  0.2526
 6416TIP3    H140663   0.056   2.028  13.220  0.6887  1.5751  0.2171
 6416TIP3    H240664   0.063   2.062  13.073 -0.2960  4.0067  0.6818
 6417TIP3   OH240665   3.424   1.900  16.600 -0.3726 -0.3956  0.0717
 6417TIP3    H140666   3.363   1.958  16.646  0.8400  1.4259 -0.5141
 6417TIP3    H240667   3.505   1.906  16.651  0.2806 -0.1992 -0.9585
 6418TIP3   OH240668   6.354   3.789   5.195 -0.2029 -0.0805  0.6866
 6418TIP3    H140669   6.267   3.801   5.235 -0.5137  1.5424 -0.3688
 6418TIP3    H240670   6.400   3.731   5.256 -2.1791 -1.4292  1.0269
 6419TIP3   OH240671   4.795   6.404  16.066 -0.5250 -0.7225  0.3554
 6419TIP3    H140672   4.766   6.385  16.155 -0.1120 -0.9956  0.4321
 6419TIP3    H240673   4.720   6.447  16.025  0.2327  2.1438  1.7278
 6420TIP3   OH240674   1.509   5.012  15.305 -0.6182 -0.2515 -0.6769
 6420TIP3    H140675   1.553   4.994  15.388  0.4906 -0.6230 -1.3184
 6420TIP3    H240676   1.466   4.930  15.282 -1.1027 -0.0876 -0.3866
 6421TIP3   OH240677   3.976   2.353   0.932  0.0800 -0.3645 -0.9157
 6421TIP3    H140678   4.053   2.398   0.895 -0.2214 -0.2640 -1.4199
 6421TIP3    H240679   3.912   2.423   0.945 -0.9666 -0.8241 -3.1307
 6422TIP3   OH240680   4.344   1.434  12.418 -0.3192  0.0462 -0.0473
 6422TIP3    H140681   4.276   1.400  12.360 -0.6154  0.0909  0.2733
 6422TIP3    H240682   4.424   1.389  12.389 -0.3303  0.5895 -0.9389
 6423TIP3   OH240683   3.885   2.248   5.078 -0.1389 -0.0072 -0.1892
 6423TIP3    H140684   3.840   2.165   5.098 -0.2345  0.1728  0.3738
 6423TIP3    H240685   3.818   2.304   5.040 -0.4330  0.2869  0.7169
 6424TIP3   OH240686   1.999   6.430   5.585  0.3889 -0.2072 -0.2906
 6424TIP3    H140687   1.971   6.340   5.568  0.5411 -0.9099  2.7478
 6424TIP3    H240688   2.053   6.424   5.663  0.1498  2.5950  0.1874
 6425TIP3   OH240689   1.894   1.409   0.193  1.1900 -0.0343 -0.2677
 6425TIP3    H140690   1.900   1.355   0.272 -2.2495 -0.1007  0.1322
 6425TIP3    H240691   1.931   1.355   0.124 -0.1235 -2.0410  0.5105
 6426TIP3   OH240692   3.383   4.305   2.717  0.1244 -0.4817  0.7906
 6426TIP3    H140693   3.464   4.253   2.713 -0.4394 -1.3865  1.0042
 6426TIP3    H240694   3.349   4.303   2.627  0.0300 -0.5944  0.8293
 6427TIP3   OH240695   4.438   2.590   5.199  0.7638  0.1573  0.1318
 6427TIP3    H140696   4.373   2.545   5.254  1.9573 -1.1207  0.5320
 6427TIP3    H240697   4.440   2.540   5.118  0.3381  0.9758 -0.4094
 6428TIP3   OH240698   6.531   2.917  16.927  0.0621 -0.3768 -0.2110
 6428TIP3    H140699   6.526   2.944  16.835  0.2136  0.1839 -0.0616
 6428TIP3    H240700   6.448   2.945  16.965  0.4061  0.3037  0.0537
 6429TIP3   OH240701   4.865   6.320  13.668 -0.2641  0.1865  0.3663
 6429TIP3    H140702   4.931   6.314  13.736 -0.7353  0.8159  0.8847
 6429TIP3    H240703   4.904   6.376  13.601 -0.6406  1.3982  1.1258
 6430TIP3   OH240704   3.336   3.194  11.237 -0.1322 -0.4492  0.0766
 6430TIP3    H140705   3.247   3.184  11.204 -0.0066 -1.1268 -0.0776
 6430TIP3    H240706   3.333   3.159  11.326  0.1832 -1.3798 -0.2631
 6431TIP3   OH240707   2.964   0.495  15.258 -0.0243  0.3005 -0.2793
 6431TIP3    H140708   2.953   0.407  15.222 -3.0952  1.4738 -2.6562
 6431TIP3    H240709   2.986   0.481  15.350  0.9108 -2.8841 -0.8681
 6432TIP3   OH240710   0.335   0.072  11.825 -0.1707  0.2000  0.0499
 6432TIP3    H140711   0.343   0.106  11.914 -0.8549  0.1134  0.1532
 6432TIP3    H240712   0.252   0.024  11.825  0.0065 -0.1172 -0.5313
 6433TIP3   OH240713   1.330   5.836  12.468  0.0289  0.2333  0.0189
 6433TIP3    H140714   1.276   5.814  12.544  0.5025  1.1690  0.6485
 6433TIP3    H240715   1.394   5.765  12.462 -0.8263 -0.5199 -0.3108
 6434TIP3   OH240716   2.362   5.182   3.048  0.6701  0.1072 -0.4075
 6434TIP3    H140717   2.333   5.221   2.966 -0.7594 -1.3730 -0.6462
 6434TIP3    H240718   2.417   5.109   3.022  0.0275 -0.5109 -0.0661
 6435TIP3   OH240719   2.420   2.414  14.992 -0.4034  0.3509 -0.0239
 6435TIP3    H140720   2.357   2.434  15.062 -1.3096  0.0483 -0.7346
 6435TIP3    H240721   2.505   2.424  15.034 -0.9217  0.3868  1.0746
 6436TIP3   OH240722   3.043   3.429   4.318 -0.0962  0.3404 -0.5430
 6436TIP3    H140723   3.086   3.491   4.258  1.7860 -1.3907 -1.0822
 6436TIP3    H240724   2.979   3.384   4.264 -1.0028  1.2978 -0.3078
 6437TIP3   OH240725   2.112   1.678  13.852  0.4672 -0.5246  0.3541
 6437TIP3    H140726   2.066   1.762  13.857  2.8469  0.8249  1.0919
 6437TIP3    H240727   2.137   1.671  13.760  0.7301 -0.1590  0.3962
 6438TIP3   OH240728   6.379   1.533   6.257  0.0805 -0.0169  0.0519
 6438TIP3    H140729   6.460   1.483   6.267  1.7332  2.1278 -1.6707
 6438TIP3    H240730   6.370   1.545   6.162 -0.8066  2.0211  0.3422
 6439TIP3   OH240731   1.782   5.811   0.975  0.0589 -0.0551 -0.3660
 6439TIP3    H140732   1.712   5.869   1.005  0.5004  1.2048 -1.6685
 6439TIP3    H240733   1.820   5.777   1.056 -0.4639  1.1735  0.4433
 6440TIP3   OH240734   1.700   2.732  12.013 -0.2606  0.0909 -0.0392
 6440TIP3    H140735   1.638   2.744  11.941 -0.1973  1.4778  0.1074
 6440TIP3    H240736   1.785   2.730  11.971 -0.2280  0.8434 -0.0241
 6441TIP3   OH240737   2.345   6.531   0.640 -0.1202 -0.9707 -0.3241
 6441TIP3    H140738   2.257   6.525   0.676 -0.3223 -1.1077 -0.8230
 6441TIP3    H240739   2.334   6.513   0.546  0.8456 -4.1870  0.0601
 6442TIP3   OH240740   1.814   3.314   0.204 -0.1294  0.0719  0.1466
 6442TIP3    H140741   1.801   3.242   0.143  1.7309  0.4003 -0.7100
 6442TIP3    H240742   1.856   3.274   0.281 -0.5243  0.0010  0.3274
 6443TIP3   OH240743   0.255   1.167  15.536  0.2199 -0.4896  0.0613
 6443TIP3    H140744   0.347   1.183  15.513 -0.2007  1.2872 -0.5712
 6443TIP3    H240745   0.206   1.191  15.457 -0.9844  1.7190  1.3810
 6444TIP3   OH240746   2.511   2.976  13.095 -0.1574  0.1206  0.4504
 6444TIP3    H140747   2.565   2.943  13.023  0.6297  1.1074  0.5648
 6444TIP3    H240748   2.574   3.009  13.159 -0.8425 -0.7336  1.6165
 6445TIP3   OH240749   1.747   6.680   0.058  0.3820  0.0863  0.2990
 6445TIP3    H140750   1.843   6.686   0.051  0.5152  3.1993  2.4534
 6445TIP3    H240751   1.715   6.729  -0.017  0.3961 -1.3066 -0.6572
 6446TIP3   OH240752   1.080   4.865   5.218  0.2452  0.1081  0.0831
 6446TIP3    H140753   1.009   4.810   5.184  0.2555 -1.4284  2.3603
 6446TIP3    H240754   1.160   4.823   5.188  0.2610  1.0165 -1.2454
 6447TIP3   OH240755   5.951   3.016   0.450  0.0253  0.1109 -0.0568
 6447TIP3    H140756   5.962   3.101   0.493  1.6273 -0.4753  0.7687
 6447TIP3    H240757   5.964   2.953   0.520 -1.2052 -0.8417 -0.6526
 6448TIP3   OH240758   4.340   1.585   0.641  0.0901 -0.1463  0.1296
 6448TIP3    H140759   4.403   1.616   0.706 -0.4712 -1.2900  1.2539
 6448TIP3    H240760   4.360   1.636   0.562  1.3740  0.6279  0.9234
 6449TIP3   OH240761   5.824   3.165  15.774 -0.6501 -0.2284  0.1721
 6449TIP3    H140762   5.778   3.147  15.856  0.3146 -1.5704  0.4656
 6449TIP3    H240763   5.873   3.245  15.791 -1.3369  0.1231  0.5238
 6450TIP3   OH240764   5.324   4.514  11.588 -0.5961  0.4697 -0.4051
 6450TIP3    H140765   5.290   4.552  11.670  0.0748  2.3743 -0.9450
 6450TIP3    H240766   5.419   4.519  11.597 -0.4742 -1.1176 -0.5432
 6451TIP3   OH240767   6.341   1.960   3.252 -0.3233  0.8152 -0.6324
 6451TIP3    H140768   6.295   2.041   3.227 -0.8616  0.3292 -1.2473
 6451TIP3    H240769   6.414   1.990   3.307 -1.1019  1.6351 -0.0137
 6452TIP3   OH240770   4.073   2.705   4.668  0.0275 -0.4919  0.1132
 6452TIP3    H140771   4.143   2.645   4.641  2.4421  0.7794  3.0591
 6452TIP3    H240772   4.064   2.765   4.594  1.3957 -1.2150 -0.6895
 6453TIP3   OH240773   5.144   2.442  14.773  0.1295 -0.2860  0.0004
 6453TIP3    H140774   5.162   2.386  14.848 -1.1127  0.0356  0.5689
 6453TIP3    H240775   5.115   2.381  14.704  0.8743 -0.5390 -0.0977
 6454TIP3   OH240776   3.989   0.118  12.757  0.2454  0.2277  0.6129
 6454TIP3    H140777   3.953   0.045  12.707  0.4181  0.9549 -0.6248
 6454TIP3    H240778   3.927   0.132  12.829 -0.0830 -0.7543  0.5303
 6455TIP3   OH240779   0.390   2.160  15.435 -0.5807 -0.3113 -0.4193
 6455TIP3    H140780   0.458   2.166  15.368 -0.3863  0.0332 -0.1944
 6455TIP3    H240781   0.371   2.067  15.442  0.1828 -0.4516 -0.1741
 6456TIP3   OH240782   1.540   4.376   4.551 -0.0361  0.3383  0.0630
 6456TIP3    H140783   1.545   4.326   4.633 -1.3763 -0.7326 -0.4682
 6456TIP3    H240784   1.628   4.372   4.515  0.3781  0.1462  1.0698
 6457TIP3   OH240785   0.155   4.460   3.868 -0.1361 -0.2171 -0.4239
 6457TIP3    H140786   0.239   4.415   3.875  0.9358  1.7202 -0.0330
 6457TIP3    H240787   0.164   4.536   3.926 -1.7555  0.6223 -1.2017
 6458TIP3   OH240788   3.081   1.876   1.361  0.2020  0.0187 -0.0807
 6458TIP3    H140789   3.110   1.964   1.386  0.5121  0.0207 -0.4416
 6458TIP3    H240790   3.153   1.841   1.308 -1.2643  0.8277 -2.8049
 6459TIP3   OH240791   0.168   0.685   2.272  0.3108  0.3705  0.2399
 6459TIP3    H140792   0.097   0.685   2.336 -0.5540  0.1039 -0.6833
 6459TIP3    H240793   0.171   0.596   2.239  1.8088  0.1104  1.0167
 6460TIP3   OH240794   3.288   3.055  10.896 -0.6837 -0.2966 -0.6275
 6460TIP3    H140795   3.277   3.094  10.809 -0.1180  2.1330  0.2972
 6460TIP3    H240796   3.200   3.052  10.932 -0.8111 -0.4357 -0.9519
 6461TIP3   OH240797   3.477   5.014  11.450  0.4780  0.0591 -0.3311
 6461TIP3    H140798   3.406   5.027  11.388 -0.0619 -0.0964  0.2441
 6461TIP3    H240799   3.545   4.968  11.400 -0.8262 -2.0896 -0.2655
 6462TIP3   OH240800   5.804   6.076   4.774  0.5719  0.2643  0.0149
 6462TIP3    H140801   5.868   6.145   4.760  1.2144  0.2670  2.4437
 6462TIP3    H240802   5.794   6.072   4.869 -1.6778 -0.9917 -0.2060
 6463TIP3   OH240803   6.485   5.517  15.508 -0.0729  0.2341 -0.7448
 6463TIP3    H140804   6.490   5.423  15.495 -2.0661 -0.3638  1.8039
 6463TIP3    H240805   6.535   5.534  15.588  0.7170  1.4463 -1.4609
 6464TIP3   OH240806   6.754   0.521  16.687  0.3865  0.2493 -0.0928
 6464TIP3    H140807   6.675   0.486  16.646 -0.2802 -0.7302  1.9008
 6464TIP3    H240808   6.722   0.588  16.747  1.4114  2.2517 -1.6533
 6465TIP3   OH240809   0.098   5.023  13.185  0.5206  0.0661  0.2567
 6465TIP3    H140810   0.084   4.977  13.267  1.5848  0.2786  0.5706
 6465TIP3    H240811   0.177   4.983  13.148  1.4073  1.5473  0.4833
 6466TIP3   OH240812   0.718   5.168  12.707 -0.3475 -0.0854  0.2504
 6466TIP3    H140813   0.676   5.146  12.624 -0.9758  0.4356  0.4186
 6466TIP3    H240814   0.685   5.104  12.770  0.9950 -1.1901 -0.1163
 6467TIP3   OH240815   5.572   2.617  14.725  0.0340 -0.4901 -0.2347
 6467TIP3    H140816   5.600   2.698  14.767  0.4655 -1.4575  1.4331
 6467TIP3    H240817   5.477   2.625  14.717 -0.5267 -1.3756  3.6442
 6468TIP3   OH240818   5.862   4.368  13.724  0.1115  0.4351  0.4224
 6468TIP3    H140819   5.925   4.296  13.724  3.1853  2.8722  1.0521
 6468TIP3    H240820   5.784   4.333  13.766  1.2666 -2.6024  0.2514
 6469TIP3   OH240821   0.107   0.237   5.176 -0.0227 -0.2899 -0.5667
 6469TIP3    H140822   0.194   0.207   5.203  0.2216  0.2759 -0.7001
 6469TIP3    H240823   0.056   0.241   5.257  0.3558  0.2660 -0.3523
 6470TIP3   OH240824   0.511   1.248  17.336  0.3529  0.1752  0.4852
 6470TIP3    H140825   0.434   1.233  17.281  0.5496 -0.7475  0.4598
 6470TIP3    H240826   0.484   1.318  17.396 -0.0458  0.8052 -0.4094
 6471TIP3   OH240827   3.214   3.211  15.270 -0.1717 -0.6246  0.3888
 6471TIP3    H140828   3.243   3.250  15.353  1.2660  2.1553 -1.2605
 6471TIP3    H240829   3.294   3.174  15.232 -0.1857  0.5802 -0.9136
 6472TIP3   OH240830   0.092   1.167   2.968  0.3954  0.2347 -0.3697
 6472TIP3    H140831   0.062   1.204   2.885  0.3911 -0.1451 -0.5434
 6472TIP3    H240832   0.165   1.223   2.995 -0.7331  1.4338  0.2841
 6473TIP3   OH240833   1.568   0.864   4.825 -0.1838 -0.0396 -0.0842
 6473TIP3    H140834   1.555   0.791   4.765  0.5099 -0.0953 -0.1771
 6473TIP3    H240835   1.480   0.895   4.844 -0.4733 -0.7143 -0.2721
 6474TIP3   OH240836   2.564   0.511  12.744 -0.1869 -0.8422  0.3681
 6474TIP3    H140837   2.570   0.585  12.685  0.7662 -0.6449  0.7044
 6474TIP3    H240838   2.480   0.523  12.789 -0.0380  0.0202  0.4194
 6475TIP3   OH240839   2.272   6.581   3.514 -0.3925  0.6880  0.3321
 6475TIP3    H140840   2.355   6.605   3.554  0.0972  0.8888 -0.7700
 6475TIP3    H240841   2.213   6.653   3.536  0.0148  1.0486  0.2624
 6476TIP3   OH240842   0.559   1.620   5.143 -0.1956  0.0532 -1.1887
 6476TIP3    H140843   0.526   1.709   5.134 -0.2458 -0.0049 -1.6173
 6476TIP3    H240844   0.654   1.629   5.147 -0.1501  0.0805 -2.0038
 6477TIP3   OH240845   5.186   3.949  10.723  0.1490  0.5318  0.0726
 6477TIP3    H140846   5.234   3.998  10.790 -0.5942  0.5854  0.5704
 6477TIP3    H240847   5.132   3.888  10.773 -1.6133  1.6482 -0.4045
 6478TIP3   OH240848   3.913   5.294   0.034  0.5054  0.2644 -0.2065
 6478TIP3    H140849   3.824   5.288   0.068  0.7517  1.5076  0.7431
 6478TIP3    H240850   3.967   5.312   0.111  1.5852 -0.4315 -0.7656
 6479TIP3   OH240851   4.849   0.593   0.060 -0.1482  0.1126  0.3326
 6479TIP3    H140852   4.853   0.538  -0.018  0.4300 -0.0768  0.4899
 6479TIP3    H240853   4.934   0.637   0.063 -0.1309  0.0483  0.9090
 6480TIP3   OH240854   4.027   5.946   3.041  0.0692  0.5367 -0.8561
 6480TIP3    H140855   4.007   5.952   3.134  1.1576  0.4846 -0.6018
 6480TIP3    H240856   4.004   5.856   3.017 -1.8252  1.0332 -1.0673
 6481TIP3   OH240857   4.840   0.974   5.937  0.0256 -0.4316  0.0449
 6481TIP3    H140858   4.890   0.894   5.950  1.5263  0.0218 -2.3396
 6481TIP3    H240859   4.778   0.953   5.867  0.3170  0.4317 -0.4833
 6482TIP3   OH240860   0.778   5.937   3.548  0.2601 -0.1862 -0.1763
 6482TIP3    H140861   0.873   5.931   3.562  0.2471 -2.2356 -0.6018
 6482TIP3    H240862   0.765   5.900   3.460 -0.8944  0.5916 -0.3559
 6483TIP3   OH240863   6.450   3.460   0.628 -0.0863 -0.1610 -0.0830
 6483TIP3    H140864   6.435   3.372   0.593  0.3502  0.3290 -1.5863
 6483TIP3    H240865   6.380   3.473   0.692 -1.1267 -1.0018 -1.0150
 6484TIP3   OH240866   0.098   3.211  16.433 -0.4518  0.5529  0.1471
 6484TIP3    H140867   0.012   3.169  16.433  0.1368 -0.7089 -0.8484
 6484TIP3    H240868   0.117   3.228  16.341 -0.1899  2.0261  0.4554
 6485TIP3   OH240869   2.977   0.638   2.522 -0.0051  0.1424  0.0883
 6485TIP3    H140870   2.968   0.550   2.484 -1.9558  1.3298 -2.5615
 6485TIP3    H240871   3.022   0.689   2.454 -0.5932  1.6153  0.7535
 6486TIP3   OH240872   1.418   4.771   3.956 -0.4964 -0.6554  0.2658
 6486TIP3    H140873   1.503   4.752   3.917 -0.8435  0.1433 -0.9619
 6486TIP3    H240874   1.368   4.690   3.945 -0.3024 -0.7189 -0.1749
 6487TIP3   OH240875   0.695   3.616  17.348 -0.0624  0.7800  0.3434
 6487TIP3    H140876   0.790   3.603  17.356  0.1182  1.0549 -1.0718
 6487TIP3    H240877   0.676   3.599  17.256 -1.7578 -1.3867  1.0160
 6488TIP3   OH240878   5.235   3.866  10.448 -0.3177  0.1997  0.0916
 6488TIP3    H140879   5.329   3.879  10.439 -0.3983 -0.2608 -2.1095
 6488TIP3    H240880   5.215   3.892  10.538  1.2975  3.9764 -0.4505
 6489TIP3   OH240881   5.701   5.169   5.805 -0.1591  0.1650  0.9918
 6489TIP3    H140882   5.760   5.204   5.872  2.0672 -0.0452 -0.7445
 6489TIP3    H240883   5.688   5.241   5.744  1.8553 -0.9371 -0.8929
 6490TIP3   OH240884   2.854   5.243   5.929 -0.1041  0.4898 -0.1936
 6490TIP3    H140885   2.798   5.165   5.934 -0.5977  0.8076 -0.6196
 6490TIP3    H240886   2.859   5.262   5.836  1.3448  0.0363 -0.2257
 6491TIP3   OH240887   0.509   2.142  14.149 -0.2161 -0.3554 -0.0111
 6491TIP3    H140888   0.577   2.186  14.200 -0.9461  2.3364 -1.2061
 6491TIP3    H240889   0.552   2.066  14.112  1.2785 -0.4093  1.6911
 6492TIP3   OH240890   6.255   6.059  12.384  0.0896  0.2745  0.0033
 6492TIP3    H140891   6.219   6.033  12.469  0.1641  0.1092 -0.0165
 6492TIP3    H240892   6.247   5.981  12.330 -1.2450  0.7705 -0.5630
 6493TIP3   OH240893   6.410   2.936   0.575 -0.1138  0.2476 -0.1271
 6493TIP3    H140894   6.499   2.970   0.578  0.2642 -0.6934 -0.1715
 6493TIP3    H240895   6.404   2.891   0.491 -0.5191  0.0118  0.0233
 6494TIP3   OH240896   2.286   1.632  10.909 -0.4733  0.0667  0.5918
 6494TIP3    H140897   2.225   1.650  10.838  0.2229 -1.2292 -0.3710
 6494TIP3    H240898   2.282   1.710  10.964 -1.3359  0.9251 -0.6276
 6495TIP3   OH240899   0.322   5.893  16.070  0.1720  0.4129  0.1463
 6495TIP3    H140900   0.254   5.956  16.095  1.3095  2.2240 -1.0770
 6495TIP3    H240901   0.380   5.890  16.146  0.3721  1.2152  0.0296
 6496TIP3   OH240902   4.051   6.515  12.448 -0.4136 -0.1998  0.5119
 6496TIP3    H140903   4.018   6.536  12.361 -0.2832 -3.3342 -0.3969
 6496TIP3    H240904   3.979   6.471  12.492  0.5824 -1.7400  0.6870
 6497TIP3   OH240905   1.007   2.664   3.254 -0.5232 -0.2824  0.0396
 6497TIP3    H140906   0.980   2.747   3.295 -2.5757 -0.3610 -0.9755
 6497TIP3    H240907   1.097   2.679   3.227 -0.4160  1.1546  1.0521
 6498TIP3   OH240908   2.902   0.180   3.719  0.0024  0.6450  0.5131
 6498TIP3    H140909   2.966   0.113   3.743  1.2555  1.8236  0.5949
 6498TIP3    H240910   2.927   0.207   3.631  0.5990  2.1854  1.1182
 6499TIP3   OH240911   4.227   5.209   4.081 -0.2623  0.3842  0.4262
 6499TIP3    H140912   4.291   5.279   4.064  1.4805 -0.4386  2.9516
 6499TIP3    H240913   4.149   5.255   4.111 -0.7735  1.3811 -2.1079
 6500TIP3   OH240914   2.195   0.739   2.074  0.6422  0.2915  0.3845
 6500TIP3    H140915   2.120   0.742   2.134 -0.2372  2.0804 -0.7462
 6500TIP3    H240916   2.196   0.649   2.041 -1.8738  0.5530 -0.5924
 6501TIP3   OH240917   6.238   0.714  16.221  0.2102  0.1266  0.1768
 6501TIP3    H140918   6.224   0.692  16.129 -1.0981 -0.5729  0.5221
 6501TIP3    H240919   6.304   0.650  16.251  1.8576  1.3554 -0.6303
 6502TIP3   OH240920   5.667   6.520  13.827  0.1431 -0.3140 -0.6627
 6502TIP3    H140921   5.698   6.432  13.807  0.5255 -0.1384 -0.8416
 6502TIP3    H240922   5.572   6.515  13.816 -0.0470 -1.1448  0.9953
 6503TIP3   OH240923   1.803   4.642   2.464  0.0054 -0.7375 -0.2003
 6503TIP3    H140924   1.825   4.733   2.486 -0.9794 -0.5749  0.1696
 6503TIP3    H240925   1.748   4.649   2.386 -2.2674 -0.7911  1.3203
 6504TIP3   OH240926   5.560   5.986   3.937 -0.0989 -0.1427  0.5057
 6504TIP3    H140927   5.591   5.902   3.903 -0.6352 -0.1498  0.0194
 6504TIP3    H240928   5.495   5.962   4.003 -1.5161 -0.1194 -0.8318
 6505TIP3   OH240929   1.743   1.100   2.605 -0.6250  0.2453 -0.1222
 6505TIP3    H140930   1.649   1.083   2.607 -0.4609 -0.7718 -0.2964
 6505TIP3    H240931   1.781   1.031   2.660 -0.0672  1.3883  0.9866
 6506TIP3   OH240932   1.073   0.470   4.393 -0.6532  0.6890  0.5129
 6506TIP3    H140933   1.139   0.440   4.330 -0.6549  0.2720  0.7063
 6506TIP3    H240934   1.111   0.450   4.478 -0.5321  1.5016  0.6557
 6507TIP3   OH240935   4.819   2.543   0.922  0.1037 -0.4395  0.4798
 6507TIP3    H140936   4.827   2.461   0.969  2.3155  0.5515  2.0244
 6507TIP3    H240937   4.902   2.551   0.874 -0.4246  0.5144 -0.3301
 6508TIP3   OH240938   5.746   4.776  13.776  0.6015 -0.2514  0.4287
 6508TIP3    H140939   5.720   4.847  13.834 -3.6412 -0.3467 -0.9977
 6508TIP3    H240940   5.746   4.815  13.689 -0.7230 -1.6527 -0.2563
 6509TIP3   OH240941   0.888   2.891   2.298  0.3151  0.5230 -0.2530
 6509TIP3    H140942   0.918   2.924   2.382  1.4009  1.6710 -1.0571
 6509TIP3    H240943   0.796   2.867   2.312  0.3747  1.0603  1.1335
 6510TIP3   OH240944   2.070   2.883  10.957  0.1315 -0.4104  0.1744
 6510TIP3    H140945   2.079   2.934  11.038 -0.4246 -0.9682  0.5965
 6510TIP3    H240946   2.104   2.940  10.888  0.9982 -0.0843  0.8591
 6511TIP3   OH240947   2.778   4.565  13.430 -0.2571 -0.3260 -0.4668
 6511TIP3    H140948   2.805   4.512  13.504 -1.4919  0.2250  0.4201
 6511TIP3    H240949   2.789   4.508  13.354  0.8456 -0.9597  0.1599
 6512TIP3   OH240950   5.916   5.589  14.858 -0.3923  0.1821  0.9797
 6512TIP3    H140951   5.950   5.604  14.947  0.1362  0.1437  0.7879
 6512TIP3    H240952   5.911   5.676  14.819 -0.5821  0.1942  1.0302
 6513TIP3   OH240953   1.748   1.914  16.877  0.5981 -0.0405 -0.3147
 6513TIP3    H140954   1.800   1.874  16.947 -0.1860  0.0459  0.3320
 6513TIP3    H240955   1.799   1.992  16.852  0.3954  0.5170  0.8932
 6514TIP3   OH240956   2.061   0.097   0.171  0.6525 -0.0883  0.1726
 6514TIP3    H140957   2.151   0.126   0.190  0.4118  1.1850 -0.5219
 6514TIP3    H240958   2.064   0.002   0.184  2.1667 -0.1122 -0.0968
 6515TIP3   OH240959   0.974   6.531   6.886  0.3111 -0.3529  0.0692
 6515TIP3    H140960   1.068   6.544   6.897  0.3182 -0.7816  0.5365
 6515TIP3    H240961   0.935   6.570   6.964  0.2391 -1.8528  0.8149
 6516TIP3   OH240962   3.103   1.445   1.359  0.1495 -0.9524 -0.4042
 6516TIP3    H140963   3.181   1.496   1.385  1.5225 -3.4305  0.6801
 6516TIP3    H240964   3.038   1.511   1.338  1.9721  1.2610  0.4133
 6517TIP3   OH240965   3.539   1.708   3.965  1.0830  0.2708 -0.7876
 6517TIP3    H140966   3.538   1.787   3.910  0.3569  0.0792 -1.0572
 6517TIP3    H240967   3.489   1.732   4.043  1.0081  0.1275 -0.7923
 6518TIP3   OH240968   0.182   5.287   0.676  0.1209 -1.2046  0.1771
 6518TIP3    H140969   0.143   5.201   0.660 -1.3404 -0.4766 -0.3647
 6518TIP3    H240970   0.138   5.345   0.614  2.6028 -0.4294 -0.9825
 6519TIP3   OH240971   0.712   5.278  16.131 -0.0943  0.1488  0.4359
 6519TIP3    H140972   0.709   5.365  16.171 -2.6530  0.1417  0.4004
 6519TIP3    H240973   0.748   5.293  16.043  0.4149  0.9849  0.7686
 6520TIP3   OH240974   5.357   2.811  11.410 -0.4194 -0.0133  0.6925
 6520TIP3    H140975   5.266   2.792  11.431 -0.5959  0.5704  0.4925
 6520TIP3    H240976   5.398   2.725  11.399 -0.9929 -0.2790  0.5855
 6521TIP3   OH240977   2.866   2.234  17.267 -0.1312 -0.1664  0.8680
 6521TIP3    H140978   2.838   2.147  17.291 -0.4202  0.1265  1.6150
 6521TIP3    H240979   2.961   2.233  17.280  0.1163 -0.8416 -0.6790
 6522TIP3   OH240980   0.424   0.842  11.848  0.4039 -0.1116 -0.5244
 6522TIP3    H140981   0.430   0.870  11.756 -0.9563  0.8647 -0.3449
 6522TIP3    H240982   0.426   0.923  11.898 -0.2725 -0.5498  0.2310
 6523TIP3   OH240983   1.274   0.368  17.158  0.0947  0.1525  0.1315
 6523TIP3    H140984   1.204   0.396  17.218 -1.9052  0.3055 -2.1022
 6523TIP3    H240985   1.310   0.450  17.124 -0.5610  0.0827 -0.7636
 6524TIP3   OH240986   0.160   4.421   5.308  0.2248  0.0421 -0.2616
 6524TIP3    H140987   0.171   4.486   5.377 -1.5716 -1.3797  1.4804
 6524TIP3    H240988   0.071   4.435   5.275  0.3867 -0.5039 -0.9629
 6525TIP3   OH240989   6.422   3.833  16.632 -0.0473 -0.5886 -0.1003
 6525TIP3    H140990   6.506   3.875  16.615 -0.5540  0.5864  0.2399
 6525TIP3    H240991   6.420   3.821  16.728 -0.6717  0.2776  0.0038
 6526TIP3   OH240992   0.920   1.423  11.708 -0.1571  0.6170  0.3069
 6526TIP3    H140993   0.949   1.350  11.654 -2.1500 -1.6558  2.1328
 6526TIP3    H240994   0.835   1.448  11.671  0.8170  2.6080 -0.7508
 6527TIP3   OH240995   5.485   2.510  17.278 -0.6600 -0.3145 -0.5655
 6527TIP3    H140996   5.428   2.444  17.239 -2.9631  0.7220  0.8467
 6527TIP3    H240997   5.429   2.587  17.288  0.8669  0.6263  1.3273
 6528TIP3   OH240998   4.225   3.599   5.506 -0.0206  0.0285 -0.1160
 6528TIP3    H140999   4.196   3.660   5.438 -0.4934 -0.8582 -0.7398
 6528TIP3    H241000   4.159   3.529   5.504  1.2878 -1.2346 -0.4459
 6529TIP3   OH241001   6.305   1.271   3.739 -0.6470  0.1415 -0.1966
 6529TIP3    H141002   6.355   1.346   3.773  0.3950 -1.7027  2.7251
 6529TIP3    H241003   6.214   1.297   3.748 -0.4307  2.4636 -2.9373
 6530TIP3   OH241004   2.978   2.683   2.216  0.0588 -0.4590 -0.2785
 6530TIP3    H141005   3.051   2.703   2.274  0.4151 -1.5799 -0.3225
 6530TIP3    H241006   2.922   2.760   2.221 -0.2471 -0.7581  2.0451
 6531TIP3   OH241007   5.987   3.225   2.994  0.1053  0.2546 -0.0867
 6531TIP3    H141008   5.971   3.311   2.955  1.2274  0.0996 -0.9278
 6531TIP3    H241009   5.933   3.164   2.943 -1.4939  0.5513  1.1554
 6532TIP3   OH241010   3.540   2.776  12.249  0.3586 -0.0196  0.1983
 6532TIP3    H141011   3.537   2.722  12.170  0.2449  1.9679 -1.2242
 6532TIP3    H241012   3.628   2.762  12.284  1.0367  0.3511 -1.2715
 6533TIP3   OH241013   2.070   0.418  16.483 -0.0465 -0.7351  0.4079
 6533TIP3    H141014   1.997   0.480  16.488  0.0765 -0.6019  0.6013
 6533TIP3    H241015   2.107   0.432  16.395 -0.0728 -0.5938  0.4184
 6534TIP3   OH241016   0.390   2.396   1.010  0.1557  0.4648  0.1480
 6534TIP3    H141017   0.447   2.318   1.012 -0.1275  0.1399 -1.8903
 6534TIP3    H241018   0.384   2.418   0.917  0.1738  2.9159  0.6671
 6535TIP3   OH241019   3.728   6.289   1.968  0.4398  0.4966  0.6163
 6535TIP3    H141020   3.758   6.211   2.015  2.0784 -0.4944 -1.8751
 6535TIP3    H241021   3.789   6.357   1.993  2.4661 -0.4921 -1.3173
 6536TIP3   OH241022   0.370   6.341  15.908  0.0515  0.1586  0.2665
 6536TIP3    H141023   0.392   6.340  15.815 -0.5601  0.7457  0.1123
 6536TIP3    H241024   0.448   6.305  15.951  0.5752  0.4494 -0.4183
 6537TIP3   OH241025   3.564   4.482   1.947  0.0311 -0.1606  0.2053
 6537TIP3    H141026   3.585   4.389   1.942 -2.1750 -0.7904  1.2627
 6537TIP3    H241027   3.534   4.504   1.859  0.6227 -0.4145 -0.0683
 6538TIP3   OH241028   5.883   4.446  16.399  0.0267  0.5248  0.3150
 6538TIP3    H141029   5.971   4.413  16.386  0.1331  1.0362 -0.3018
 6538TIP3    H241030   5.867   4.503  16.324 -1.3555 -0.6482 -0.3066
 6539TIP3   OH241031   6.578   3.190   4.671  0.1329  0.2804  0.5060
 6539TIP3    H141032   6.608   3.280   4.677 -0.8465  0.6439  0.1100
 6539TIP3    H241033   6.496   3.188   4.719 -0.5492 -0.0764 -0.6436
 6540TIP3   OH241034   5.792   5.167  15.613 -0.4776  0.1019 -0.2733
 6540TIP3    H141035   5.711   5.123  15.640 -0.5896  0.9902  0.9492
 6540TIP3    H241036   5.837   5.186  15.696  0.1973  1.0832 -0.8529
 6541TIP3   OH241037   1.219   3.057   3.574 -0.3811 -0.3786  0.2289
 6541TIP3    H141038   1.181   2.973   3.549  3.0292 -1.8125 -0.7691
 6541TIP3    H241039   1.238   3.048   3.668 -0.0445 -0.7455  0.1289
 6542TIP3   OH241040   3.933   0.234   3.002  0.5678 -0.6863  0.5514
 6542TIP3    H141041   3.883   0.181   3.064  2.7433 -0.7042  2.4027
 6542TIP3    H241042   3.871   0.301   2.973 -0.5042 -0.5023  2.9995
 6543TIP3   OH241043   0.680   6.311  11.789  0.4294 -0.2642  0.3669
 6543TIP3    H141044   0.715   6.322  11.701  1.0869 -0.4630  0.5970
 6543TIP3    H241045   0.639   6.224  11.788  0.6673 -0.3769  0.3280
 6544TIP3   OH241046   1.966   5.116   2.435  0.3389  0.3386 -0.6752
 6544TIP3    H141047   2.037   5.052   2.423  0.9465  1.0932 -1.1564
 6544TIP3    H241048   1.981   5.152   2.522 -0.2510 -0.4589 -0.2296
 6545TIP3   OH241049   5.990   1.830  12.477  0.0246  0.0029 -0.1434
 6545TIP3    H141050   6.041   1.754  12.506  0.3807 -0.3330 -1.5605
 6545TIP3    H241051   5.908   1.823  12.525 -0.0718 -1.4696 -0.4772
 6546TIP3   OH241052   6.678   5.436  14.008 -0.0702 -0.2071  0.5420
 6546TIP3    H141053   6.606   5.497  14.019  0.0594 -0.2355  1.7712
 6546TIP3    H241054   6.643   5.352  14.036 -0.2810 -0.7533 -1.2393
 6547TIP3   OH241055   6.121   4.655  15.235 -0.0911 -0.2502 -0.5436
 6547TIP3    H141056   6.129   4.743  15.272  0.4388 -1.0620  1.3960
 6547TIP3    H241057   6.197   4.646  15.177  0.5247  0.1437  0.1925
 6548TIP3   OH241058   4.858   5.315  14.175 -0.4851 -0.0609 -0.5900
 6548TIP3    H141059   4.797   5.243  14.163 -1.3745  0.2203  1.7394
 6548TIP3    H241060   4.803   5.393  14.181  0.4642  0.9223 -3.1467
 6549TIP3   OH241061   4.513   2.771   2.589  0.2608 -0.1980 -0.5381
 6549TIP3    H141062   4.531   2.697   2.647  1.3263  0.9569  0.6737
 6549TIP3    H241063   4.438   2.743   2.537 -0.2187 -1.6005  0.8389
 6550TIP3   OH241064   5.825   6.393  15.119 -0.6915 -0.1656 -0.2531
 6550TIP3    H141065   5.867   6.447  15.187 -1.7791 -0.0500  0.3619
 6550TIP3    H241066   5.731   6.409  15.132 -0.9140  0.2564 -2.1280
 6551TIP3   OH241067   1.105   0.313  12.090 -0.0897 -0.4843  0.2122
 6551TIP3    H141068   1.141   0.306  12.002 -0.5289 -0.6362  0.0442
 6551TIP3    H241069   1.011   0.321  12.078 -0.0155  1.2989  0.5962
 6552TIP3   OH241070   1.190   2.588   2.849 -0.0380 -0.3909 -0.3366
 6552TIP3    H141071   1.178   2.616   2.759  1.3923 -0.4203 -0.5504
 6552TIP3    H241072   1.284   2.575   2.859 -0.3082 -1.7760  0.7522
 6553TIP3   OH241073   4.894   6.592  11.644 -0.0852  0.4356  0.0019
 6553TIP3    H141074   4.906   6.555  11.731 -0.5991 -0.0975 -0.1423
 6553TIP3    H241075   4.852   6.676  11.658  0.9069  0.8895  0.3288
 6554TIP3   OH241076   2.246   0.025   5.768  0.3195 -0.1052  0.0506
 6554TIP3    H141077   2.294   0.107   5.776  0.5274 -0.3538  1.6443
 6554TIP3    H241078   2.207   0.028   5.680  1.2492  1.1740 -0.3402
 6555TIP3   OH241079   3.297   1.998  11.127 -0.6820  0.0097  0.0216
 6555TIP3    H141080   3.246   1.916  11.126  0.4281 -0.7311  1.2480
 6555TIP3    H241081   3.360   1.987  11.055 -0.8073 -0.0269 -0.0837
 6556TIP3   OH241082   4.545   3.217   2.111 -0.1455 -0.4206  0.3318
 6556TIP3    H141083   4.475   3.271   2.149  2.0546  1.5269  1.9046
 6556TIP3    H241084   4.499   3.153   2.057 -3.2151 -0.1643  2.3994
 6557TIP3   OH241085   1.830   2.553   1.627 -0.0458 -0.0983  0.0835
 6557TIP3    H141086   1.843   2.560   1.721  0.2687  0.1226  0.0237
 6557TIP3    H241087   1.894   2.612   1.589  1.6698 -2.1565 -0.3898
 6558TIP3   OH241088   4.392   5.515   3.575  0.5297  0.6802 -0.1085
 6558TIP3    H141089   4.483   5.515   3.544  0.9248 -1.4220  0.8825
 6558TIP3    H241090   4.399   5.498   3.669 -0.9285 -1.2179 -0.3048
 6559TIP3   OH241091   3.699   0.379   0.608  0.6010  0.3672 -0.2343
 6559TIP3    H141092   3.667   0.302   0.654  0.8130 -0.8488 -2.0054
 6559TIP3    H241093   3.789   0.390   0.639  0.3111  0.3906  0.6144
 6560TIP3   OH241094   1.214   3.705   0.185  0.1660 -0.1563 -0.3256
 6560TIP3    H141095   1.247   3.659   0.262  1.6738 -0.3108 -1.0162
 6560TIP3    H241096   1.287   3.761   0.158 -0.6580  0.5742 -1.1162
 6561TIP3   OH241097   4.280   5.035  16.332 -0.1104  0.3712 -0.2147
 6561TIP3    H141098   4.268   5.072  16.245 -3.1368 -1.6474 -0.8011
 6561TIP3    H241099   4.304   4.944  16.318 -0.8133 -0.0400  1.0220
 6562TIP3   OH241100   1.649   0.962   1.534  0.3359 -0.2452 -0.4434
 6562TIP3    H141101   1.695   0.990   1.613 -0.6615  0.6247 -0.1573
 6562TIP3    H241102   1.580   0.904   1.567  1.3895 -1.8238 -0.8975
 6563TIP3   OH241103   1.592   0.632  11.561  0.1849 -0.4342  0.2401
 6563TIP3    H141104   1.584   0.538  11.542  1.1239 -1.0253  2.4267
 6563TIP3    H241105   1.502   0.664  11.563 -0.1877 -1.4162 -0.0227
 6564TIP3   OH241106   5.070   0.748   5.715  0.5043  0.0353  0.0002
 6564TIP3    H141107   5.162   0.762   5.737  0.3456 -0.0119  0.7201
 6564TIP3    H241108   5.037   0.692   5.785  0.6039 -2.2681 -1.6785
 6565TIP3   OH241109   0.016   0.897  13.027  0.4417 -0.3918  0.0556
 6565TIP3    H141110  -0.001   0.807  13.053 -0.3978  0.1420  1.4741
 6565TIP3    H241111   0.034   0.892  12.933 -0.0387 -1.9720  0.0233
 6566TIP3   OH241112   1.687   3.129  13.567  0.4612  0.8675 -0.8445
 6566TIP3    H141113   1.741   3.206  13.548 -0.2979  2.1657  1.8527
 6566TIP3    H241114   1.740   3.077  13.627 -0.4401  1.1590  0.2409
 6567TIP3   OH241115   1.364   2.462   3.100  0.1156 -0.5515  0.4472
 6567TIP3    H141116   1.447   2.415   3.091  0.2681 -0.0256 -1.1923
 6567TIP3    H241117   1.298   2.397   3.075  0.2394 -0.2408 -0.7151
 6568TIP3   OH241118   5.440   6.154  10.914 -0.1481 -0.5812 -0.1170
 6568TIP3    H141119   5.415   6.208  10.838  1.2285 -1.4129 -1.2174
 6568TIP3    H241120   5.482   6.216  10.974 -1.1731  0.0764 -0.0549
 6569TIP3   OH241121   1.137   2.948   4.184 -0.1343  0.0523 -0.6711
 6569TIP3    H141122   1.158   2.932   4.092 -0.7596 -0.2686 -0.7616
 6569TIP3    H241123   1.047   2.917   4.194  0.2863 -0.9192  0.3009
 6570TIP3   OH241124   6.543   3.961  11.523 -0.4903 -0.1126 -0.5573
 6570TIP3    H141125   6.509   3.916  11.445 -0.1735  1.3769 -1.5819
 6570TIP3    H241126   6.468   4.012  11.555  0.2608  2.0437 -1.9868
 6571TIP3   OH241127   0.415   1.025  12.254 -0.3578 -0.3723  0.2324
 6571TIP3    H141128   0.435   1.074  12.175 -1.0016  0.6439  0.6747
 6571TIP3    H241129   0.339   0.971  12.230 -3.2633  2.9109  1.1581
 6572TIP3   OH241130   2.365   4.858   0.367 -0.4176  0.1649  0.3549
 6572TIP3    H141131   2.417   4.891   0.293 -1.0585  0.5749  0.0713
 6572TIP3    H241132   2.423   4.798   0.413  0.0092 -0.0700 -0.4668
 6573TIP3   OH241133   2.924   4.940  15.299 -0.7975  0.2838  0.4281
 6573TIP3    H141134   2.903   5.028  15.328 -1.2502  0.6798 -1.0195
 6573TIP3    H241135   2.840   4.903  15.271 -0.6249 -0.6374  1.0814
 6574TIP3   OH241136   3.158   3.037  12.067  0.0426 -0.4795  0.4832
 6574TIP3    H141137   3.122   3.047  12.155 -1.1085 -1.4216  0.1448
 6574TIP3    H241138   3.182   3.125  12.040 -0.1242 -0.1079  1.5253
 6575TIP3   OH241139   0.115   1.351   4.159 -0.3963 -0.4118 -0.1724
 6575TIP3    H141140   0.105   1.405   4.080 -0.8063 -0.3297 -0.0713
 6575TIP3    H241141   0.047   1.284   4.151  0.3320 -1.1197 -0.4565
 6576TIP3   OH241142   3.484   5.144  16.117 -0.2346  0.6091 -0.4541
 6576TIP3    H141143   3.425   5.220  16.112 -3.1858 -1.4104  0.6079
 6576TIP3    H241144   3.501   5.133  16.210  1.1071  0.5783 -0.6828
 6577TIP3   OH241145   4.112   5.153  15.822 -0.5267  0.1638  0.5538
 6577TIP3    H141146   4.184   5.188  15.770 -0.3650 -2.0172 -0.8548
 6577TIP3    H241147   4.048   5.224  15.826  0.5438  1.2330 -0.4883
 6578TIP3   OH241148   2.157   1.238   2.366  0.2368  0.3574  0.4503
 6578TIP3    H141149   2.238   1.268   2.325 -0.9503 -0.3362 -2.6612
 6578TIP3    H241150   2.143   1.150   2.330 -1.6678  0.2532  1.3154
 6579TIP3   OH241151   2.237   2.387  16.692 -0.5947  0.3874 -0.2933
 6579TIP3    H141152   2.296   2.446  16.740 -1.0973  1.4005 -0.8700
 6579TIP3    H241153   2.253   2.301  16.729  0.8072  0.7431 -0.0215
 6580TIP3   OH241154   3.620   5.026   2.328 -0.0345  0.2262 -0.1366
 6580TIP3    H141155   3.667   4.999   2.249 -0.0615  1.0696 -0.4437
 6580TIP3    H241156   3.531   5.045   2.297 -1.0573 -2.7047  0.6468
 6581TIP3   OH241157   2.708   3.629  14.680 -0.2263 -0.6165 -0.0278
 6581TIP3    H141158   2.730   3.697  14.617 -2.0340  0.9315  0.9214
 6581TIP3    H241159   2.791   3.607  14.722  0.3287  1.4521  0.0582
 6582TIP3   OH241160   1.054   0.600  17.389  0.3224  0.5994  0.0393
 6582TIP3    H141161   1.091   0.661  17.325  1.2775  0.0575  0.0664
 6582TIP3    H241162   0.969   0.639  17.411 -0.9283 -0.1384 -2.9263
 6583TIP3   OH241163   4.245   3.425   4.673  0.3656 -0.0799  0.3940
 6583TIP3    H141164   4.248   3.394   4.764 -1.9750  0.0475  0.5664
 6583TIP3    H241165   4.171   3.379   4.634  0.7001  0.6347 -1.1651
 6584TIP3   OH241166   3.448   2.439  13.868 -0.1255  0.0268  0.2588
 6584TIP3    H141167   3.371   2.382  13.873  0.3764 -0.7767 -0.8551
 6584TIP3    H241168   3.522   2.379  13.860  0.3829  0.8179 -1.3615
 6585TIP3   OH241169   6.218   6.345  14.117  0.3107 -0.0150 -0.7606
 6585TIP3    H141170   6.264   6.428  14.130  0.6460  0.0274 -2.0309
 6585TIP3    H241171   6.255   6.310  14.036  1.5185 -2.2993  0.6507
 6586TIP3   OH241172   4.906   2.952  17.282 -0.4614 -0.0930 -0.1971
 6586TIP3    H141173   4.932   3.032  17.327  4.0224 -0.8217 -0.9366
 6586TIP3    H241174   4.879   2.981  17.195 -0.3408  0.7068  0.0223
 6587TIP3   OH241175   3.380   0.896  13.215 -0.2763 -0.1526 -0.1510
 6587TIP3    H141176   3.318   0.968  13.212 -0.6872 -0.5201 -0.9043
 6587TIP3    H241177   3.432   0.912  13.293 -1.7810 -0.2198  0.9056
 6588TIP3   OH241178   3.253   6.092   2.473  0.1669  0.0356  0.1272
 6588TIP3    H141179   3.189   6.062   2.408 -0.9882  0.1924  1.1601
 6588TIP3    H241180   3.318   6.139   2.422 -0.6232  0.0164 -0.9474
 6589TIP3   OH241181   4.965   2.260   6.421  0.1434 -0.3394 -0.1222
 6589TIP3    H141182   4.943   2.297   6.506  0.8112 -0.1217 -0.0335
 6589TIP3    H241183   5.041   2.204   6.438 -0.0598 -0.7329 -0.4801
 6590TIP3   OH241184   5.122   3.037   0.083 -0.0178  0.1808  0.4895
 6590TIP3    H141185   5.138   2.967   0.020 -0.4647  0.4148  0.1142
 6590TIP3    H241186   5.156   3.002   0.166  1.4892  0.2648 -0.0670
 6591TIP3   OH241187   4.468   3.063   3.640  0.3476 -0.5037 -0.4238
 6591TIP3    H141188   4.507   2.980   3.668  0.6576 -0.4065 -0.5703
 6591TIP3    H241189   4.379   3.039   3.613 -0.0237 -0.5741  0.8001
 6592TIP3   OH241190   0.033   4.827   1.721 -0.0009 -0.0994 -0.3713
 6592TIP3    H141191  -0.007   4.871   1.796  0.9041 -0.1496  0.1546
 6592TIP3    H241192   0.053   4.897   1.659 -2.9950 -0.2677 -1.7204
 6593TIP3   OH241193   0.096   5.754   5.488  0.7418  0.6659 -0.1973
 6593TIP3    H141194   0.095   5.671   5.536  0.5022  0.7593 -0.0424
 6593TIP3    H241195   0.163   5.741   5.421  2.0991  1.0242  1.0218
 6594TIP3   OH241196   1.734   4.328  14.388 -0.0748 -0.5129 -0.3852
 6594TIP3    H141197   1.735   4.296  14.479 -1.7694  0.0756 -0.1234
 6594TIP3    H241198   1.760   4.420  14.395  0.8465 -0.7455 -0.6439
 6595TIP3   OH241199   0.329   2.380  11.505 -0.2947  0.2982  0.0074
 6595TIP3    H141200   0.298   2.297  11.542 -0.6240 -0.1991 -1.3491
 6595TIP3    H241201   0.416   2.391  11.543  0.0015 -0.9780 -0.2503
 6596TIP3   OH241202   6.623   4.864  16.284 -0.1504 -0.4305  0.0642
 6596TIP3    H141203   6.696   4.824  16.237  0.9280  2.4017 -0.8600
 6596TIP3    H241204   6.545   4.827  16.244  0.7618 -1.5687 -0.7288
 6597TIP3   OH241205   5.378   0.245   5.504 -0.0472  0.2347  0.5402
 6597TIP3    H141206   5.397   0.195   5.584 -0.5839 -0.6452  0.1363
 6597TIP3    H241207   5.342   0.328   5.536  1.3682  0.6179  1.2395
 6598TIP3   OH241208   4.088   6.721   5.824  0.2419 -0.4080  0.0097
 6598TIP3    H141209   4.162   6.729   5.765 -1.2610 -2.1766 -2.2731
 6598TIP3    H241210   4.109   6.780   5.897  3.1128  0.3228 -1.2761
 6599TIP3   OH241211   6.093   6.450  11.852 -0.1777  0.0462  0.1782
 6599TIP3    H141212   6.037   6.525  11.872 -1.0100 -0.4372 -0.3013
 6599TIP3    H241213   6.093   6.400  11.934  0.9644  0.9117  0.7377
 6600TIP3   OH241214   4.014   5.202  12.848  0.4072 -0.7358  0.6690
 6600TIP3    H141215   4.017   5.198  12.752  0.6610 -1.5909  0.7057
 6600TIP3    H241216   3.995   5.294  12.867 -0.5820 -0.7303 -0.2212
 6601TIP3   OH241217   2.028   1.007   2.033  0.2768  0.2257 -0.2217
 6601TIP3    H141218   1.981   1.082   1.997  0.3595  0.4831  0.1991
 6601TIP3    H241219   2.028   0.942   1.962  2.0261  1.3886 -1.3906
 6602TIP3   OH241220   6.249   6.603   5.280 -0.0633 -0.3574  0.8157
 6602TIP3    H141221   6.311   6.652   5.226  1.2209 -0.0364  2.4858
 6602TIP3    H241222   6.164   6.642   5.261  0.5608  0.7216  0.1326
 6603TIP3   OH241223   0.044   2.943   5.634  0.1928  0.8823 -0.2521
 6603TIP3    H141224   0.080   3.029   5.612  2.0594 -0.0325 -1.0046
 6603TIP3    H241225  -0.044   2.943   5.597 -0.3146  2.8610  0.7824
 6604TIP3   OH241226   3.612   6.331  10.987 -0.1554  0.1502  0.3056
 6604TIP3    H141227   3.635   6.294  10.902  0.4618  1.0613  0.0456
 6604TIP3    H241228   3.682   6.395  11.004 -1.1980  1.2441  0.6687
 6605TIP3   OH241229   4.820   1.358  13.327 -0.0628 -0.8326  0.5801
 6605TIP3    H141230   4.727   1.338  13.318 -0.0696 -0.9451  0.8741
 6605TIP3    H241231   4.854   1.355  13.238 -0.4845 -0.0654  0.3785
 6606TIP3   OH241232   6.335   2.397  12.869  0.2422  0.1130 -0.2998
 6606TIP3    H141233   6.326   2.481  12.825  0.5054  0.2961 -0.0150
 6606TIP3    H241234   6.317   2.332  12.802 -0.3569  0.4049 -0.4211
 6607TIP3   OH241235   0.683   1.918   1.064 -0.4720  0.5130  0.6913
 6607TIP3    H141236   0.735   1.945   0.989 -0.7605  0.1455  0.3492
 6607TIP3    H241237   0.713   1.830   1.084  1.5591  1.5675  2.7820
 6608TIP3   OH241238   3.771   6.396   5.662 -0.3762 -0.6378  0.2667
 6608TIP3    H141239   3.841   6.446   5.706 -0.7126 -0.7764  0.9760
 6608TIP3    H241240   3.716   6.364   5.734 -2.3460  1.1488 -0.3312
 6609TIP3   OH241241   5.993   4.124  14.109  0.0290 -0.3050 -0.3827
 6609TIP3    H141242   5.917   4.128  14.167 -0.0478 -1.6166 -0.3732
 6609TIP3    H241243   5.962   4.079  14.031  0.5490  0.0184 -0.7840
 6610TIP3   OH241244   4.343   4.510   0.552 -0.3450 -0.3689  0.3054
 6610TIP3    H141245   4.406   4.531   0.621  0.5526 -0.1080 -0.5669
 6610TIP3    H241246   4.390   4.448   0.495 -1.4971 -1.5481  0.5796
 6611TIP3   OH241247   6.352   5.530  10.878 -0.0763 -0.0672 -0.5656
 6611TIP3    H141248   6.433   5.480  10.890 -0.5530 -1.0222 -1.1467
 6611TIP3    H241249   6.308   5.524  10.963  0.0219 -0.3693 -0.5316
 6612TIP3   OH241250   5.266   3.997  14.373  0.4581  0.0320 -0.4954
 6612TIP3    H141251   5.204   4.001  14.300 -1.3371  0.0546  0.9372
 6612TIP3    H241252   5.282   4.089  14.396  0.4972  0.0123 -0.4444
 6613TIP3   OH241253   2.600   5.485  10.717 -0.0243  0.6467  0.0970
 6613TIP3    H141254   2.657   5.501  10.642  1.2025 -1.3636  0.5263
 6613TIP3    H241255   2.643   5.530  10.790  1.3080 -1.1579  0.4968
 6614TIP3   OH241256   4.399   3.961   4.231 -0.5559 -0.4467 -0.4663
 6614TIP3    H141257   4.439   3.988   4.314 -0.3951  0.8547 -0.9409
 6614TIP3    H241258   4.314   4.006   4.230 -0.5463 -0.4353 -1.0202
 6615TIP3   OH241259   5.431   0.795  15.839 -0.3805 -0.0511  0.3360
 6615TIP3    H141260   5.480   0.763  15.763  0.9978  0.9396  0.7692
 6615TIP3    H241261   5.367   0.856  15.803 -1.2223 -1.2189 -0.2181
 6616TIP3   OH241262   6.217   2.512  13.516  0.5289  0.0257  0.3787
 6616TIP3    H141263   6.149   2.578  13.531 -0.8403 -1.3875  0.5741
 6616TIP3    H241264   6.257   2.499  13.602 -0.0215 -0.2672  0.5962
 6617TIP3   OH241265   2.471   2.110   2.275 -0.0504  0.2650  0.1656
 6617TIP3    H141266   2.416   2.163   2.333 -0.6076  1.1553 -1.1157
 6617TIP3    H241267   2.436   2.128   2.187  1.4586 -0.1829 -0.5550
 6618TIP3   OH241268   5.665   4.249   0.517 -0.0194 -0.2755 -0.3651
 6618TIP3    H141269   5.760   4.244   0.505  0.1081  0.0432  0.4499
 6618TIP3    H241270   5.653   4.308   0.591 -0.9378  1.1924 -1.6359
 6619TIP3   OH241271   0.622   5.831   2.435 -0.0175 -0.3216  0.5287
 6619TIP3    H141272   0.532   5.836   2.466  0.1270 -0.6350  1.0017
 6619TIP3    H241273   0.672   5.881   2.499 -0.0506  1.1302 -0.5341
 6620TIP3   OH241274   5.735   4.649  16.796 -0.4463 -0.2511  0.4761
 6620TIP3    H141275   5.824   4.633  16.764 -0.1491  1.3709  0.3705
 6620TIP3    H241276   5.745   4.657  16.891 -0.1266  1.7142  0.3186
 6621TIP3   OH241277   6.039   5.725   0.361 -0.7410 -0.0802 -0.0315
 6621TIP3    H141278   6.062   5.658   0.297  0.6310  0.8683 -0.5561
 6621TIP3    H241279   6.098   5.710   0.434 -0.9325  0.1121  0.1659
 6622TIP3   OH241280   3.241   4.928  16.745 -0.5903  0.4085 -0.0367
 6622TIP3    H141281   3.227   4.985  16.820  1.4133 -0.0451  0.7401
 6622TIP3    H241282   3.289   4.853  16.781  0.6989  0.3342 -1.8346
 6623TIP3   OH241283   5.790   1.265  16.780 -0.3865 -0.2873  0.3803
 6623TIP3    H141284   5.818   1.336  16.837 -1.1485  0.2246  0.1392
 6623TIP3    H241285   5.703   1.241  16.811 -1.4207  0.9470 -1.3854
 6624TIP3   OH241286   0.192   6.177   2.428 -0.0949  0.5933  0.0677
 6624TIP3    H141287   0.213   6.087   2.404 -0.1266  0.7131 -0.4106
 6624TIP3    H241288   0.179   6.222   2.345  0.5335  1.1880  0.2809
 6625TIP3   OH241289   3.119   5.471   2.406 -0.6014  0.2519  0.2853
 6625TIP3    H141290   3.086   5.447   2.492 -2.9092 -1.0542 -0.8692
 6625TIP3    H241291   3.063   5.543   2.377  1.9671  2.6727  0.9321
 6626TIP3   OH241292   6.050   4.083  16.623 -0.5468  0.5206  0.2192
 6626TIP3    H141293   6.086   3.994  16.629  0.6560  0.8666 -1.3059
 6626TIP3    H241294   6.054   4.104  16.530 -0.4581  2.3161  0.5987
 6627TIP3   OH241295   5.284   1.227   4.375 -0.3541  0.7446  0.0039
 6627TIP3    H141296   5.353   1.161   4.380 -1.1505 -0.2371 -1.4245
 6627TIP3    H241297   5.242   1.224   4.461  0.0600 -0.1158  0.1873
 6628TIP3   OH241298   5.939   3.238  11.042 -0.3424  0.5092 -0.1507
 6628TIP3    H141299   5.942   3.323  10.998  0.5635  0.4332 -0.2437
 6628TIP3    H241300   5.947   3.260  11.135  0.1692  0.5077 -0.1941
 6629TIP3   OH241301   5.202   4.936   1.901  0.0996 -0.1810  0.1006
 6629TIP3    H141302   5.133   4.893   1.951 -0.0486  0.5709  0.5669
 6629TIP3    H241303   5.173   4.930   1.810  0.8584 -2.4510 -0.0464
 6630TIP3   OH241304   3.238   0.103   4.983 -0.2427  0.1531 -0.2145
 6630TIP3    H141305   3.259   0.088   4.890 -2.6478 -0.4769 -0.7102
 6630TIP3    H241306   3.276   0.027   5.028  1.5649  0.8086 -0.5244
 6631TIP3   OH241307   0.240   1.189   0.502 -0.5290 -0.5721 -0.2460
 6631TIP3    H141308   0.286   1.221   0.580 -1.2827  0.5891 -0.2470
 6631TIP3    H241309   0.296   1.215   0.429 -0.8608  0.3091 -0.2088
 6632TIP3   OH241310   0.447   3.114   1.635  0.1062  0.4147  0.1824
 6632TIP3    H141311   0.484   3.197   1.604  0.6675  0.1330  0.0800
 6632TIP3    H241312   0.361   3.109   1.593 -0.0126  1.0376  0.3492
 6633TIP3   OH241313   1.172   4.417  12.515  0.5425  0.1263  0.4708
 6633TIP3    H141314   1.199   4.329  12.541 -0.7339 -0.5822 -0.4694
 6633TIP3    H241315   1.077   4.416  12.522  0.3141  0.6741 -1.6925
 6634TIP3   OH241316   2.942   3.914   4.922 -0.3967  0.0696 -0.3694
 6634TIP3    H141317   2.871   3.850   4.923 -0.8960  0.5996 -0.9179
 6634TIP3    H241318   2.959   3.932   5.014 -0.6950 -0.3709 -0.2238
 6635TIP3   OH241319   1.171   4.148  14.962  0.2666 -0.3550  0.6000
 6635TIP3    H141320   1.261   4.141  14.932  0.4670 -0.1301  1.1334
 6635TIP3    H241321   1.145   4.237  14.940 -0.2130 -0.7697 -0.5827
 6636TIP3   OH241322   4.693   0.769  12.765 -0.5639  0.1690  0.4343
 6636TIP3    H141323   4.635   0.721  12.706  0.7965 -1.6316  0.5002
 6636TIP3    H241324   4.761   0.805  12.707 -0.5771  0.4992  0.6199
 6637TIP3   OH241325   1.378   1.703   2.177 -0.1909  0.0389  0.5137
 6637TIP3    H141326   1.361   1.678   2.086 -1.3329 -0.8057  0.9340
 6637TIP3    H241327   1.320   1.777   2.192  1.0075  1.0711  0.1619
 6638TIP3   OH241328   4.831   6.646  14.132 -0.1582 -0.1526  0.0848
 6638TIP3    H141329   4.857   6.556  14.112  1.4247 -0.0369  1.4032
 6638TIP3    H241330   4.847   6.694  14.051  1.3186 -0.6162  0.0744
 6639TIP3   OH241331   3.035   0.112   2.558 -0.0065 -0.3360  0.0640
 6639TIP3    H141332   2.959   0.147   2.512 -0.0163  0.7353  0.8394
 6639TIP3    H241333   3.107   0.118   2.495 -0.5442 -1.3663 -0.6781
 6640TIP3   OH241334   4.746   2.183  16.198  0.1060  0.4602  0.0437
 6640TIP3    H141335   4.691   2.256  16.228  0.0445  0.3707  0.1449
 6640TIP3    H241336   4.730   2.113  16.261  0.5609  0.5330  0.2446
 6641TIP3   OH241337   1.989   3.961  13.108  0.0190 -0.7428 -0.4340
 6641TIP3    H141338   1.976   3.921  13.022 -2.2542 -1.2531  0.0746
 6641TIP3    H241339   1.958   3.894  13.170 -0.6630  0.5177  0.6273
 6642TIP3   OH241340   6.016   6.038   0.677 -0.2069 -0.0698 -0.3678
 6642TIP3    H141341   6.063   6.015   0.597 -0.9611 -1.0320 -0.5512
 6642TIP3    H241342   6.049   5.977   0.743  0.4593  0.7615  0.0841
 6643TIP3   OH241343   2.664   0.348   0.711  0.3036 -0.3537 -0.4771
 6643TIP3    H141344   2.607   0.385   0.644 -0.0056 -1.9543 -1.1493
 6643TIP3    H241345   2.748   0.394   0.699 -0.0707  0.1563 -1.2305
 6644TIP3   OH241346   4.058   1.245  16.207  0.5748 -0.0331  0.1409
 6644TIP3    H141347   4.033   1.200  16.287 -2.0286 -0.3965 -0.7868
 6644TIP3    H241348   4.103   1.324  16.237 -0.4137 -0.1029  1.9674
 6645TIP3   OH241349   6.734   5.764   3.785 -0.1908 -0.4916  0.2856
 6645TIP3    H141350   6.732   5.678   3.826 -0.1405 -0.5693  0.1278
 6645TIP3    H241351   6.815   5.804   3.817  0.8234 -1.2661 -1.1481
 6646TIP3   OH241352   1.094   5.253  12.890 -0.0242 -0.2352  0.2689
 6646TIP3    H141353   1.057   5.339  12.867  0.2706 -0.0758  0.3922
 6646TIP3    H241354   1.023   5.209  12.936  0.1055  0.2749  0.9828
 6647TIP3   OH241355   2.438   4.296   5.441 -0.9023  0.6179 -0.0518
 6647TIP3    H141356   2.490   4.253   5.508  0.5774  0.1016 -1.4789
 6647TIP3    H241357   2.387   4.226   5.400 -1.6937  0.9075  0.4123
 6648TIP3   OH241358   0.052   2.740  12.199  0.2978  0.3113  0.0061
 6648TIP3    H141359  -0.040   2.752  12.178  0.2081  0.5709  0.5433
 6648TIP3    H241360   0.083   2.827  12.223  1.2656  0.7171 -2.3753
 6649TIP3   OH241361   4.535   4.028   3.988  1.1666 -0.5702 -0.4354
 6649TIP3    H141362   4.611   4.015   4.045 -0.1053 -0.9951  1.2401
 6649TIP3    H241363   4.465   3.978   4.030 -0.4468  1.0694 -1.0632
 6650TIP3   OH241364   0.886   0.377  11.888 -0.8322  0.4640 -0.3592
 6650TIP3    H141365   0.894   0.472  11.884 -0.0083  0.5071  1.2076
 6650TIP3    H241366   0.807   0.357  11.837 -0.7842  1.9313 -1.0639
 6651TIP3   OH241367   4.011   6.445   5.511  0.2500 -0.0443 -0.0424
 6651TIP3    H141368   4.053   6.409   5.589 -1.5945  1.8299  1.9448
 6651TIP3    H241369   3.921   6.412   5.515 -0.0309  0.5443 -1.0748
 6652TIP3   OH241370   2.702   4.480   5.507  0.3260  0.2582 -0.0859
 6652TIP3    H141371   2.687   4.556   5.451 -0.1480  0.8548  0.8332
 6652TIP3    H241372   2.614   4.451   5.533  0.5365  1.8474  2.7737
 6653TIP3   OH241373   5.603   2.266  13.728 -0.1921 -0.0358  0.4773
 6653TIP3    H141374   5.664   2.295  13.796 -0.1552  0.5589  0.1942
 6653TIP3    H241375   5.531   2.329  13.731 -1.1885 -1.1638  1.3210
 6654TIP3   OH241376   3.061   3.975   1.751 -0.0865  0.8293 -0.0126
 6654TIP3    H141377   3.047   4.006   1.840 -3.2048  0.8981 -0.4240
 6654TIP3    H241378   3.005   3.898   1.742  0.8404  0.2814 -1.6550
 6655TIP3   OH241379   0.941   6.409   3.505  0.9829  0.1990  0.0919
 6655TIP3    H141380   0.871   6.470   3.530  0.2354  0.2784 -2.0069
 6655TIP3    H241381   0.962   6.362   3.586  0.6849  2.3071  1.4821
 6656TIP3   OH241382   1.069   5.003  14.963  0.7364 -0.1116  0.9020
 6656TIP3    H141383   1.062   5.057  14.885  0.2748 -0.0682  0.9744
 6656TIP3    H241384   0.982   4.965  14.974  0.3333  1.1244  2.2940
 6657TIP3   OH241385   5.428   4.866   0.987  0.3214  0.0645 -0.2698
 6657TIP3    H141386   5.517   4.857   1.021  0.6602 -0.6502 -1.3009
 6657TIP3    H241387   5.372   4.835   1.057  0.9831 -0.9867 -0.1868
 6658TIP3   OH241388   2.182   5.861   0.010 -0.2285  0.9142 -0.5347
 6658TIP3    H141389   2.220   5.793   0.065  0.9998  0.9379 -1.3254
 6658TIP3    H241390   2.257   5.901  -0.035 -1.0901  1.6305 -1.3821
 6659TIP3   OH241391   2.144   5.554   6.760  0.2787 -0.1879  0.2542
 6659TIP3    H141392   2.221   5.596   6.722  0.4352 -2.8167 -2.7348
 6659TIP3    H241393   2.176   5.470   6.793 -0.8492 -0.1245  1.6179
 6660TIP3   OH241394   1.334   3.600  11.765 -0.9633  0.1437  0.0736
 6660TIP3    H141395   1.341   3.666  11.834 -0.4736 -0.4412  0.5999
 6660TIP3    H241396   1.240   3.586  11.754 -1.0487 -0.9035  1.7608
 6661TIP3   OH241397   1.902   4.430  13.346 -0.3928 -0.1851 -0.3360
 6661TIP3    H141398   1.996   4.444  13.337 -0.3690 -1.1323 -2.0376
 6661TIP3    H241399   1.890   4.336  13.334 -1.4956 -0.2049  0.6640
 6662TIP3   OH241400   5.819   6.405  11.696 -0.5138 -0.1441  0.0631
 6662TIP3    H141401   5.835   6.363  11.611 -0.6039 -2.0176  0.9405
 6662TIP3    H241402   5.906   6.424  11.730 -0.4367 -0.6014  0.1289
 6663TIP3   OH241403   0.073   4.370  13.258 -0.7696  0.3003  0.0139
 6663TIP3    H141404   0.002   4.398  13.315 -2.0583 -1.2777 -0.7366
 6663TIP3    H241405   0.047   4.282  13.228  1.3338 -0.1884 -0.5544
 6664TIP3   OH241406   4.055   0.354  10.814 -0.2157  0.0015  0.1599
 6664TIP3    H141407   3.980   0.341  10.755  0.9507  0.1565 -1.4030
 6664TIP3    H241408   4.045   0.444  10.844 -0.3241  0.2220 -0.5231
 6665TIP3   OH241409   5.121   6.343   2.758  0.1935  0.0749  0.0948
 6665TIP3    H141410   5.101   6.270   2.816 -1.6649 -1.6489 -2.4925
 6665TIP3    H241411   5.214   6.332   2.737  0.3641 -0.4908  1.0812
 6666TIP3   OH241412   1.941   1.939   5.902 -0.6065 -0.2105  0.0853
 6666TIP3    H141413   2.020   1.992   5.896 -0.7988  0.1491  0.6463
 6666TIP3    H241414   1.959   1.863   5.846 -0.3349  0.4425 -0.7440
 6667TIP3   OH241415   5.706   2.636  15.561 -0.4183  0.0543  0.2976
 6667TIP3    H141416   5.679   2.631  15.653  0.0978 -0.6318  0.4191
 6667TIP3    H241417   5.644   2.580  15.514  0.2817 -0.9013  0.4693
 6668TIP3   OH241418   2.051   2.842   0.575  0.6885 -0.3900 -0.7690
 6668TIP3    H141419   2.026   2.868   0.486 -0.0036 -0.4169 -0.5918
 6668TIP3    H241420   2.046   2.747   0.574 -0.9997 -0.3375 -0.2503
 6669TIP3   OH241421   2.452   2.118   4.953  0.4459  0.2674  0.1315
 6669TIP3    H141422   2.497   2.049   5.001  1.0668  1.5106  1.4144
 6669TIP3    H241423   2.384   2.149   5.013 -1.1823 -0.5483 -1.1992
 6670TIP3   OH241424   3.648   0.284   5.691  0.2911  0.6265  0.0877
 6670TIP3    H141425   3.726   0.253   5.739 -0.2939 -0.5086  0.3540
 6670TIP3    H241426   3.628   0.212   5.630  0.2159  1.4706 -0.9086
 6671TIP3   OH241427   5.949   6.668   0.793  0.3001  0.3296  0.4717
 6671TIP3    H141428   5.892   6.743   0.806  1.2502  0.8861  1.5661
 6671TIP3    H241429   5.971   6.638   0.881 -0.5097 -1.6168  0.0824
 6672TIP3   OH241430   1.968   1.503   6.056  0.1419 -0.0613 -0.4566
 6672TIP3    H141431   1.903   1.571   6.075  0.7054 -0.0626  1.8142
 6672TIP3    H241432   1.918   1.422   6.049 -0.3638  0.3340 -1.5188
 6673TIP3   OH241433   4.664   0.788   3.244 -0.0141  0.1387  0.0516
 6673TIP3    H141434   4.637   0.724   3.178  1.4330 -1.0565  0.5576
 6673TIP3    H241435   4.588   0.798   3.301 -1.1768  0.9447 -1.5655
 6674TIP3   OH241436   6.159   3.837   2.284 -0.0185 -0.3111  0.3693
 6674TIP3    H141437   6.167   3.812   2.376 -1.8152  0.8162  0.8737
 6674TIP3    H241438   6.114   3.764   2.242  0.9537 -0.9020  0.3091
 6675TIP3   OH241439   2.898   6.674  16.301 -0.3829 -0.4246  0.4527
 6675TIP3    H141440   2.906   6.625  16.383 -0.4098 -0.7694  0.2517
 6675TIP3    H241441   2.842   6.620  16.246  0.5076 -0.7194 -0.1842
 6676TIP3   OH241442   6.691   3.715  10.693 -0.4863  0.5129  0.2878
 6676TIP3    H141443   6.695   3.635  10.745 -1.0911 -0.5114 -1.1951
 6676TIP3    H241444   6.772   3.762  10.715 -0.0150 -0.6116  1.0027
 6677TIP3   OH241445   0.336   1.363   2.431  0.0873 -0.1850  0.3149
 6677TIP3    H141446   0.262   1.304   2.416  1.2280 -1.2961 -1.2918
 6677TIP3    H241447   0.296   1.448   2.448 -1.5674 -1.0147  0.7939
 6678TIP3   OH241448   2.825   4.466   3.899  0.5157 -0.1347  0.4907
 6678TIP3    H141449   2.903   4.416   3.878 -0.6740 -1.4287 -1.1132
 6678TIP3    H241450   2.753   4.403   3.894 -0.6214  0.8908  2.3898
 6679TIP3   OH241451   0.965   3.839  17.271  0.3089  0.2522 -0.4195
 6679TIP3    H141452   0.974   3.761  17.326 -0.6531  0.3561 -0.1003
 6679TIP3    H241453   1.025   3.823  17.197 -0.7367 -1.3501 -0.9742
 6680TIP3   OH241454   2.050   0.875  15.990  0.0558  0.6602  0.2884
 6680TIP3    H141455   2.092   0.893  15.906  1.3551  0.0615  0.7835
 6680TIP3    H241456   2.109   0.912  16.055 -0.9451  1.1332  0.9607
 6681TIP3   OH241457   0.809   3.744  15.587 -0.1122  0.1924 -0.0677
 6681TIP3    H141458   0.733   3.802  15.592 -1.2707 -1.1979 -0.6824
 6681TIP3    H241459   0.869   3.787  15.526 -0.5151  1.1984  0.2342
 6682TIP3   OH241460   1.098   0.248  15.027 -0.6224  0.2529  0.4585
 6682TIP3    H141461   1.091   0.333  14.983 -0.4418  1.0211  1.8627
 6682TIP3    H241462   1.062   0.262  15.114  0.2996 -0.8538  1.0565
 6683TIP3   OH241463   6.389   2.525   1.825  0.0319  0.0619 -0.5074
 6683TIP3    H141464   6.466   2.473   1.802  0.7894  1.1226 -0.4354
 6683TIP3    H241465   6.411   2.614   1.796 -0.1088  0.9024  1.7800
 6684TIP3   OH241466   4.104   1.854   1.684  0.3299 -0.5917  0.1295
 6684TIP3    H141467   4.172   1.793   1.653  1.2185  0.0956  0.6534
 6684TIP3    H241468   4.145   1.940   1.676  0.0042 -0.2641  1.6731
 6685TIP3   OH241469   5.606   4.716   5.370  0.7139 -0.0335 -0.4533
 6685TIP3    H141470   5.612   4.653   5.442  1.3251  1.1655  0.5938
 6685TIP3    H241471   5.693   4.758   5.367  1.3498 -1.3183 -3.1270
 6686TIP3   OH241472   0.643   0.899   1.169 -0.5018 -0.6393 -0.0709
 6686TIP3    H141473   0.590   0.827   1.135 -2.0856  0.3239  0.2772
 6686TIP3    H241474   0.681   0.940   1.091 -0.5040 -1.1561 -0.3474
 6687TIP3   OH241475   4.752   6.654   4.661 -0.3815 -0.0740  0.0133
 6687TIP3    H141476   4.821   6.611   4.611 -0.1021  1.3519 -0.8866
 6687TIP3    H241477   4.784   6.654   4.751  0.9394  0.7784 -0.4237
 6688TIP3   OH241478   3.206   5.837  14.299  0.0331 -0.0669  0.8045
 6688TIP3    H141479   3.273   5.882  14.248 -1.0133 -1.1247 -1.6967
 6688TIP3    H241480   3.252   5.766  14.343  1.1149  1.3722  2.1226
 6689TIP3   OH241481   0.633   5.983  14.525 -0.1568  0.3951  0.5297
 6689TIP3    H141482   0.717   6.013  14.491  0.0078 -2.4009 -1.9290
 6689TIP3    H241483   0.657   5.933  14.604  0.2984  0.9215  0.7323
 6690TIP3   OH241484   0.840   3.472   2.675  0.4280  0.3440 -0.1466
 6690TIP3    H141485   0.789   3.519   2.742  0.2102  0.2238 -0.2259
 6690TIP3    H241486   0.890   3.408   2.725  0.2994  0.2839 -0.0935
 6691TIP3   OH241487   4.480   0.932  11.985  0.4893  0.3128 -0.4501
 6691TIP3    H141488   4.495   0.904  12.076  0.7622 -0.0802 -0.6131
 6691TIP3    H241489   4.554   0.989  11.966 -0.1571  1.3230 -0.0599
 6692TIP3   OH241490   1.472   2.360  15.206 -0.2779 -0.2995 -0.1327
 6692TIP3    H141491   1.405   2.423  15.182  0.2442  0.5701  0.6197
 6692TIP3    H241492   1.550   2.389  15.159  0.6031  1.0836  2.0108
 6693TIP3   OH241493   5.580   1.597  13.733 -0.3641 -0.9807  0.1002
 6693TIP3    H141494   5.527   1.562  13.662 -0.8768  0.0964 -0.0665
 6693TIP3    H241495   5.645   1.652  13.689 -1.5008  0.7582  0.4965
 6694TIP3   OH241496   5.707   0.271  16.477  0.1007 -0.3381  0.1290
 6694TIP3    H141497   5.664   0.262  16.392  0.1724 -0.8880  0.1447
 6694TIP3    H241498   5.635   0.279  16.540  0.0480  0.0900  0.0162
 6695TIP3   OH241499   0.350   5.237  16.660 -0.0921 -0.2714  0.0410
 6695TIP3    H141500   0.285   5.307  16.667 -0.5109 -0.5980 -0.4936
 6695TIP3    H241501   0.357   5.201  16.748  0.8114  1.0314  0.5482
 6696TIP3   OH241502   3.595   5.218   3.847 -0.3899 -0.3615  0.2535
 6696TIP3    H141503   3.555   5.297   3.881 -0.0401 -0.1447  0.1695
 6696TIP3    H241504   3.600   5.232   3.752 -0.1809 -0.4159  0.2561
 6697TIP3   OH241505   6.417   3.592   3.605 -0.5620  1.0688  0.1489
 6697TIP3    H141506   6.435   3.683   3.583  0.6598  0.9498  0.5523
 6697TIP3    H241507   6.365   3.559   3.532  2.0814  1.0765 -1.9201
 6698TIP3   OH241508   1.188   3.056   2.130 -0.5910 -0.2476 -0.1685
 6698TIP3    H141509   1.242   3.073   2.052  0.6555 -0.2723  0.6646
 6698TIP3    H241510   1.175   3.143   2.169 -0.7542 -0.3001 -0.1054
 6699TIP3   OH241511   5.033   6.347  11.612 -0.1047  0.0755  0.1595
 6699TIP3    H141512   5.090   6.417  11.646  0.2532 -0.2848  0.3032
 6699TIP3    H241513   4.948   6.390  11.601  0.5344  1.0242 -1.5069
 6700TIP3   OH241514   0.137   3.371  14.074  0.6217 -0.3830 -0.1925
 6700TIP3    H141515   0.070   3.387  14.140  0.6723 -0.9022 -0.0114
 6700TIP3    H241516   0.198   3.444  14.084  0.6691 -0.4942  0.3889
 6701TIP3   OH241517   4.480   2.200  14.328  0.2149 -0.1015 -0.4626
 6701TIP3    H141518   4.500   2.107  14.336 -0.6924 -0.4335 -1.6926
 6701TIP3    H241519   4.565   2.243  14.322  0.9335 -0.3128  4.1904
 6702TIP3   OH241520   1.513   2.730   1.782  0.0119 -0.0924 -0.3588
 6702TIP3    H141521   1.558   2.769   1.707  0.4811 -2.6066 -1.5147
 6702TIP3    H241522   1.422   2.721   1.753 -0.0003 -0.2248 -0.2783
 6703TIP3   OH241523   0.443   4.977   3.045 -0.1830  0.4599  0.4756
 6703TIP3    H141524   0.457   4.911   2.977 -2.4125  0.1469  0.2647
 6703TIP3    H241525   0.508   5.045   3.026 -0.1427 -0.0537 -1.4187
 6704TIP3   OH241526   6.243   3.006  16.748  0.1762 -0.0573 -0.7703
 6704TIP3    H141527   6.336   3.007  16.726 -0.1860  1.6357 -2.4369
 6704TIP3    H241528   6.215   3.097  16.743 -1.4230 -0.4010  0.5699
 6705TIP3   OH241529   6.567   3.567  11.142 -0.6858 -0.8607 -0.6308
 6705TIP3    H141530   6.586   3.519  11.223 -1.4993 -1.9047 -1.0338
 6705TIP3    H241531   6.576   3.502  11.073 -0.5092 -0.0963 -1.3365
 6706TIP3   OH241532   1.669   0.926   2.181  0.4406 -0.0574  0.0311
 6706TIP3    H141533   1.624   0.876   2.249  1.6928  0.4830  1.3028
 6706TIP3    H241534   1.697   1.007   2.224  1.1014  0.4024 -1.1856
 6707TIP3   OH241535   0.265   1.064   6.527  0.9164 -0.3157  0.0711
 6707TIP3    H141536   0.251   1.053   6.621 -0.2342  0.3217 -0.0176
 6707TIP3    H241537   0.237   0.981   6.489  1.4259 -0.5921  0.2794
 6708TIP3   OH241538   3.642   4.604  12.740  0.2446 -0.2987  0.2472
 6708TIP3    H141539   3.704   4.581  12.809 -1.4499 -0.0626  1.9300
 6708TIP3    H241540   3.665   4.547  12.667  2.6768  0.0665  0.6166
 6709TIP3   OH241541   6.700   1.464  16.377  0.1258  0.3248 -0.3648
 6709TIP3    H141542   6.656   1.548  16.391  0.4150  0.7320 -1.7597
 6709TIP3    H241543   6.789   1.488  16.351  0.3641 -0.4382 -0.2746
 6710TIP3   OH241544   4.531   6.074  11.621 -0.7678 -0.0413  1.2345
 6710TIP3    H141545   4.619   6.035  11.620 -1.1085 -0.8466  1.3259
 6710TIP3    H241546   4.544   6.161  11.658 -0.0074 -0.1547  1.2639
 6711TIP3   OH241547   0.742   0.953  11.269  0.4130 -0.4821  0.2022
 6711TIP3    H141548   0.771   1.007  11.343  0.1854 -0.0753 -0.0002
 6711TIP3    H241549   0.649   0.936  11.286  0.1134  0.4093 -0.4557
 6712TIP3   OH241550   3.938   4.632   3.305  0.1677 -0.3455  0.2142
 6712TIP3    H141551   3.856   4.622   3.256  0.9716  0.8385 -1.4332
 6712TIP3    H241552   3.936   4.560   3.368 -0.8515 -2.0534 -1.6442
 6713TIP3   OH241553   0.556   4.682   0.373  0.4718 -0.6339 -0.1974
 6713TIP3    H141554   0.547   4.678   0.278  0.6201 -1.4115 -0.1861
 6713TIP3    H241555   0.482   4.737   0.402  0.3394 -0.5197 -0.7412
 6714TIP3   OH241556   0.648   3.154  12.559  0.2923  0.1475 -0.2934
 6714TIP3    H141557   0.600   3.110  12.488 -0.8345  0.6985  0.0935
 6714TIP3    H241558   0.624   3.246  12.551  1.9555  0.5885 -0.5737
 6715TIP3   OH241559   5.004   5.258   5.946  0.1654  0.0580 -0.6509
 6715TIP3    H141560   4.938   5.254   5.877 -0.5828 -2.5080  0.0946
 6715TIP3    H241561   4.986   5.340   5.992 -1.6358  0.0737 -1.3086
 6716TIP3   OH241562   6.257   1.537  11.750 -0.1838  0.3353  0.1846
 6716TIP3    H141563   6.167   1.566  11.735  0.5548  2.0091 -1.3977
 6716TIP3    H241564   6.291   1.519  11.662  0.4107 -2.4691  0.8681
 6717TIP3   OH241565   2.270   3.972  10.917  0.1842  0.4468  0.0855
 6717TIP3    H141566   2.247   4.060  10.885  0.0785  0.4255  0.1040
 6717TIP3    H241567   2.296   3.986  11.008 -2.4746  0.0919  0.9927
 6718TIP3   OH241568   0.711   0.582   3.354  0.3476  0.1944 -0.2354
 6718TIP3    H141569   0.789   0.564   3.407 -0.4238 -2.1881  0.1803
 6718TIP3    H241570   0.642   0.527   3.392 -1.1495  1.0870 -1.5467
 6719TIP3   OH241571   6.393   4.411   1.112 -0.0569  0.4079  0.3582
 6719TIP3    H141572   6.340   4.490   1.108 -0.4294  0.2048  1.2518
 6719TIP3    H241573   6.361   4.363   1.188  1.8506  0.6047  1.3544
 6720TIP3   OH241574   0.623   2.709   0.932  0.0604 -0.0491  0.0991
 6720TIP3    H141575   0.667   2.658   0.864 -0.9326 -0.2069 -0.4507
 6720TIP3    H241576   0.537   2.730   0.894 -0.6363 -0.3804  1.4126
 6721TIP3   OH241577   0.937   4.963  12.292  0.2012 -0.2239  0.1101
 6721TIP3    H141578   0.852   4.956  12.333 -0.4866  0.4595 -1.1326
 6721TIP3    H241579   0.961   5.056  12.301  0.0499 -0.0692 -0.9756
 6722TIP3   OH241580   1.921   1.904  17.333 -0.2355  0.3689 -0.4039
 6722TIP3    H141581   1.902   1.948  17.416 -1.8429  1.4107 -1.2691
 6722TIP3    H241582   1.973   1.968  17.284 -1.2473  0.7291 -1.0539
 6723TIP3   OH241583   0.534   0.285   3.790 -0.7464  0.0972  0.2904
 6723TIP3    H141584   0.589   0.220   3.832  0.0055  0.4952 -0.0657
 6723TIP3    H241585   0.447   0.245   3.787 -0.5722 -0.3721  1.2143
 6724TIP3   OH241586   0.156   0.534   0.538 -0.4571  0.0856  0.2396
 6724TIP3    H141587   0.125   0.612   0.585 -0.6931  0.2946 -0.2533
 6724TIP3    H241588   0.228   0.501   0.592  0.2828  1.1855 -0.0349
 6725TIP3   OH241589   4.939   5.128  12.328 -0.0107 -0.3052 -0.3283
 6725TIP3    H141590   4.889   5.046  12.324 -1.0962  0.3178  0.0448
 6725TIP3    H241591   4.967   5.135  12.419 -0.1184 -0.1542 -0.3062
 6726TIP3   OH241592   0.678   0.710   3.749  0.3067 -0.0732 -0.1170
 6726TIP3    H141593   0.672   0.748   3.837 -0.8811  0.6232 -0.4734
 6726TIP3    H241594   0.590   0.677   3.732  0.5266 -0.1892 -1.0518
 6727TIP3   OH241595   0.978   5.376   4.068  0.6011 -0.0479  0.2134
 6727TIP3    H141596   0.925   5.393   4.146 -1.0403 -1.4308 -0.5439
 6727TIP3    H241597   1.011   5.287   4.080 -0.5824 -0.7033 -1.1452
 6728TIP3   OH241598   0.375   3.032   2.667 -0.1441  0.4506  0.5276
 6728TIP3    H141599   0.322   3.112   2.671  0.4218  0.8030  1.2279
 6728TIP3    H241600   0.465   3.063   2.663  0.0676 -0.1577  0.4625
 6729TIP3   OH241601   3.388   0.739  16.398  0.2190  0.4052 -0.1766
 6729TIP3    H141602   3.341   0.665  16.439 -0.3961  1.2408  0.6802
 6729TIP3    H241603   3.365   0.733  16.306  0.4594 -0.6798 -0.1834
 6730TIP3   OH241604   0.090   3.111  11.674 -0.0330  0.1648  0.2790
 6730TIP3    H141605   0.166   3.167  11.660 -0.0220 -0.1231 -0.8605
 6730TIP3    H241606   0.121   3.041  11.731  1.5048 -1.8159 -2.7511
 6731TIP3   OH241607   2.204   2.311   2.842 -0.2545 -0.2686 -0.2495
 6731TIP3    H141608   2.257   2.245   2.887 -1.1448 -1.2403 -0.5817
 6731TIP3    H241609   2.122   2.266   2.822 -1.2224  1.2145  0.2656
 6732TIP3   OH241610   4.742   4.617  10.749  0.0416 -0.5348  0.1743
 6732TIP3    H141611   4.804   4.545  10.743 -1.7458 -2.2298  1.0887
 6732TIP3    H241612   4.658   4.579  10.724 -1.1783  0.9117  1.8403
 6733TIP3   OH241613   6.473   6.522   1.287  0.3843  0.2189 -0.1838
 6733TIP3    H141614   6.476   6.426   1.294  0.9686  0.3036  0.9227
 6733TIP3    H241615   6.449   6.538   1.196 -0.9042 -0.9922 -0.0995
 6734TIP3   OH241616   1.422   2.004  15.589  0.5835 -0.1380 -0.3686
 6734TIP3    H141617   1.396   1.912  15.584  1.9699 -0.5431 -0.7448
 6734TIP3    H241618   1.452   2.026  15.501 -0.5693  0.9723 -0.5188
 6735TIP3   OH241619   1.181   4.120   2.788 -0.2344 -0.1469 -0.2565
 6735TIP3    H141620   1.142   4.038   2.817  1.8418 -1.0278  0.1631
 6735TIP3    H241621   1.218   4.159   2.867  2.1527 -0.7269 -1.0239
 6736TIP3   OH241622   1.211   2.134   3.421 -0.1724  0.1587 -0.1412
 6736TIP3    H141623   1.135   2.191   3.431  1.1346  2.0085 -0.2750
 6736TIP3    H241624   1.212   2.112   3.328 -0.0759  0.8221 -0.2992
 6737TIP3   OH241625   5.496   1.277  11.891  0.1094 -0.7166 -0.9946
 6737TIP3    H141626   5.448   1.324  11.959 -0.1321 -1.7435 -0.4224
 6737TIP3    H241627   5.469   1.318  11.809 -0.0073  0.1907 -0.5134
 6738TIP3   OH241628   3.140   1.490  12.515 -0.3182 -0.5300 -0.1066
 6738TIP3    H141629   3.216   1.442  12.483  0.8241  1.2103 -0.1523
 6738TIP3    H241630   3.101   1.433  12.581 -0.2519 -2.3742 -1.5947
 6739TIP3   OH241631   4.497   0.170  14.447  0.6766  0.0201  0.2589
 6739TIP3    H141632   4.529   0.243  14.394 -1.8757  0.7663 -0.3765
 6739TIP3    H241633   4.520   0.092  14.397  0.2049  0.6120 -0.9203
 6740TIP3   OH241634   5.539   1.280  15.478  0.3075 -0.3888 -0.4228
 6740TIP3    H141635   5.512   1.338  15.550 -2.3089 -2.5098  0.5082
 6740TIP3    H241636   5.544   1.337  15.402  1.3239  1.6264  1.0552
 6741TIP3   OH241637   2.669   5.256  10.862 -0.0441  0.3643  0.2607
 6741TIP3    H141638   2.622   5.195  10.919  2.1690 -1.8959 -0.1235
 6741TIP3    H241639   2.602   5.291  10.804 -1.3417 -2.8995 -0.4585
 6742TIP3   OH241640   5.065   0.396  11.540 -0.3397  0.1074 -0.0390
 6742TIP3    H141641   5.121   0.406  11.464  1.7172 -0.0328  1.3743
 6742TIP3    H241642   5.120   0.353  11.605 -2.0211  0.1933  1.5294
 6743TIP3   OH241643   1.660   1.086   0.860  0.3675  0.3488 -0.1538
 6743TIP3    H141644   1.635   1.132   0.779 -0.2758  1.6292  0.7239
 6743TIP3    H241645   1.729   1.140   0.898  2.2094 -1.3793 -0.8517
 6744TIP3   OH241646   6.545   3.180   4.112  0.3496 -0.4803  0.1659
 6744TIP3    H141647   6.569   3.129   4.189  2.5679  0.8121  0.3968
 6744TIP3    H241648   6.546   3.116   4.040  2.7829 -0.8838  0.4813
 6745TIP3   OH241649   6.719   3.663  14.215  0.3145 -0.2823 -0.0711
 6745TIP3    H141650   6.638   3.696  14.255 -0.0042 -0.2651 -0.7146
 6745TIP3    H241651   6.713   3.568  14.225 -0.1814 -0.3369 -0.8470
 6746TIP3   OH241652   1.267   3.215  15.450 -0.0542 -0.5770  0.9028
 6746TIP3    H141653   1.242   3.264  15.371 -0.7833 -0.4549  1.1960
 6746TIP3    H241654   1.348   3.256  15.479 -0.2641 -0.0257  0.7241
 6747TIP3   OH241655   6.104   4.824  16.788 -0.0015 -0.4972  0.0060
 6747TIP3    H141656   6.009   4.822  16.801  0.0687  0.3109  0.7350
 6747TIP3    H241657   6.120   4.757  16.721 -1.1422 -0.3118 -0.4877
 6748TIP3   OH241658   3.117   5.724  16.410 -0.0156  0.1819 -0.1648
 6748TIP3    H141659   3.129   5.798  16.350 -2.4479  1.3712  0.7024
 6748TIP3    H241660   3.097   5.764  16.494 -0.0796 -1.4679  0.6359
 6749TIP3   OH241661   4.400   3.465   6.491 -0.5308  0.1329  0.1539
 6749TIP3    H141662   4.430   3.551   6.463 -0.4705 -0.1271 -0.6069
 6749TIP3    H241663   4.306   3.475   6.505 -0.2024  0.8307  2.0871
 6750TIP3   OH241664   2.995   5.323  10.618  0.0831 -0.5019  0.0277
 6750TIP3    H141665   3.006   5.298  10.710  0.2420 -1.4521 -0.2489
 6750TIP3    H241666   3.059   5.271  10.570  0.4742  0.4909 -0.5554
 6751TIP3   OH241667   2.434   3.136   0.579  0.1648 -0.2308  0.0426
 6751TIP3    H141668   2.451   3.117   0.487  0.9973  1.0498 -0.0908
 6751TIP3    H241669   2.521   3.150   0.617 -0.2222  0.1593  0.8229
 6752TIP3   OH241670   1.291   4.853   5.886 -0.5285  0.3750 -0.2587
 6752TIP3    H141671   1.336   4.909   5.949 -0.3277 -2.1007  1.9645
 6752TIP3    H241672   1.236   4.914   5.836  1.3779  2.8165  0.3881
 6753TIP3   OH241673   0.426   1.899  15.433  0.0121 -0.4551 -0.4857
 6753TIP3    H141674   0.347   1.865  15.390  0.6381 -0.9830 -1.2297
 6753TIP3    H241675   0.498   1.849  15.395  0.8400  0.8463 -0.7018
 6754TIP3   OH241676   1.874   2.405  16.720  0.0946  0.0160  0.8160
 6754TIP3    H141677   1.839   2.369  16.802  0.0189 -0.3213  0.6401
 6754TIP3    H241678   1.969   2.401  16.731  0.0858 -0.1332  0.8443
 6755TIP3   OH241679   4.638   1.529  11.908  0.0579  0.4936 -0.4246
 6755TIP3    H141680   4.613   1.519  12.000  1.7426  2.6586  0.3625
 6755TIP3    H241681   4.699   1.603  11.908  1.0940 -0.2551 -3.1311
 6756TIP3   OH241682   3.362   5.196   2.190  0.4020 -0.2231 -0.5177
 6756TIP3    H141683   3.443   5.204   2.140 -0.0015 -2.6450 -1.6886
 6756TIP3    H241684   3.294   5.231   2.132  0.3830  0.3167 -0.1786
 6757TIP3   OH241685   1.672   0.282   3.064  0.2741 -0.2079  0.3317
 6757TIP3    H141686   1.690   0.358   3.008  0.7066 -1.2393 -1.0076
 6757TIP3    H241687   1.758   0.258   3.099 -0.0571  0.6690  1.7884
 6758TIP3   OH241688   3.226   6.555  14.659  0.1270  0.0497  0.0838
 6758TIP3    H141689   3.232   6.482  14.597 -0.0622 -0.9558  1.2100
 6758TIP3    H241690   3.148   6.535  14.711 -1.6453  2.5231 -1.3726
 6759TIP3   OH241691   4.327   4.050  11.745  0.2472 -0.1857 -0.1540
 6759TIP3    H141692   4.408   4.001  11.732 -0.3260 -0.6312 -2.6927
 6759TIP3    H241693   4.342   4.103  11.823  1.7334 -2.6833  1.3823
 6760TIP3   OH241694   5.131   0.999  16.421 -0.6941  0.2949  0.1567
 6760TIP3    H141695   5.104   0.991  16.330 -1.2461 -1.0765  0.4073
 6760TIP3    H241696   5.137   1.093  16.436 -1.0374  0.5505 -1.1645
 6761TIP3   OH241697   6.649   6.679  16.138  0.6033 -0.1878  0.0861
 6761TIP3    H141698   6.663   6.688  16.232  3.1388  1.1126 -0.3162
 6761TIP3    H241699   6.567   6.630  16.130 -0.7199  1.3414  2.9224
 6762TIP3   OH241700   0.691   3.019  16.695  0.3065 -0.1704  0.1015
 6762TIP3    H141701   0.770   3.049  16.651  0.6372 -0.1245  0.7206
 6762TIP3    H241702   0.718   3.003  16.786 -0.3159 -0.4620  0.2428
 6763TIP3   OH241703   5.253   2.728  16.147  0.0571  0.2449  0.7506
 6763TIP3    H141704   5.226   2.800  16.090 -1.1290 -1.0218 -0.3774
 6763TIP3    H241705   5.293   2.664  16.088  0.2215 -0.4319  1.5780
 6764TIP3   OH241706   5.972   1.752  14.094  0.7355 -0.3209  0.0532
 6764TIP3    H141707   6.056   1.723  14.057  0.3966 -1.9647  0.5137
 6764TIP3    H241708   5.909   1.739  14.023  0.6661 -0.2299  0.0983
 6765TIP3   OH241709   1.301   5.869   4.697  0.4886  1.0392  0.1449
 6765TIP3    H141710   1.267   5.804   4.759 -0.4175  1.3956  0.0432
 6765TIP3    H241711   1.256   5.950   4.720 -0.1154  1.1137 -1.1686
 6766TIP3   OH241712   4.380   5.167  16.557  0.0813  0.1527  0.0722
 6766TIP3    H141713   4.339   5.143  16.474 -1.8382  2.5488  0.2105
 6766TIP3    H241714   4.474   5.154  16.543 -0.2775 -0.3403 -2.1707
 6767TIP3   OH241715   6.037   4.318  13.133  0.5990 -0.0463  0.4709
 6767TIP3    H141716   6.063   4.409  13.122  3.0192 -0.8766 -1.5149
 6767TIP3    H241717   6.093   4.285  13.204  1.3249 -0.5215 -0.3066
 6768TIP3   OH241718   3.377   0.467   1.482  0.0984  0.0036  0.2525
 6768TIP3    H141719   3.296   0.418   1.496  0.0257  0.2030  0.5520
 6768TIP3    H241720   3.447   0.406   1.507 -0.0749  0.8445  3.1418
 6769TIP3   OH241721   2.626   4.220  15.014  0.1316  0.6802 -0.0918
 6769TIP3    H141722   2.663   4.296  15.059  0.5613  0.4777 -0.0948
 6769TIP3    H241723   2.584   4.169  15.083  2.2442 -0.5040  0.4129
 6770TIP3   OH241724   3.965   1.043  11.906  0.1909 -0.3305  0.1439
 6770TIP3    H141725   3.878   1.025  11.870  0.8215 -1.6999 -0.7892
 6770TIP3    H241726   4.018   1.065  11.829  1.1285 -1.5137  0.4212
 6771TIP3   OH241727   5.273   1.807  13.648 -0.2206 -0.1788  0.1018
 6771TIP3    H141728   5.286   1.890  13.601  0.6040 -1.4628 -2.0940
 6771TIP3    H241729   5.326   1.816  13.727  1.3367  0.7465 -0.9895
 6772TIP3   OH241730   2.762   0.021   4.848 -0.3068  0.2362 -0.2459
 6772TIP3    H141731   2.733   0.113   4.847  0.0952  0.4720  2.7455
 6772TIP3    H241732   2.858   0.027   4.847 -0.2460 -0.0387  1.4854
 6773TIP3   OH241733   3.147   3.339   6.114 -0.0989 -0.5326  0.9016
 6773TIP3    H141734   3.142   3.414   6.173 -1.3511 -0.1628  0.3574
 6773TIP3    H241735   3.153   3.263   6.171 -1.0086 -0.1655  1.5045
 6774TIP3   OH241736   4.686   0.967   0.520 -0.3776 -0.3933  0.0339
 6774TIP3    H141737   4.739   1.046   0.529  0.3345 -0.8799  0.1744
 6774TIP3    H241738   4.630   0.984   0.445  0.2772 -0.0421 -0.3796
 6775TIP3   OH241739   3.072   5.356  12.414  0.1837  0.2968 -0.5061
 6775TIP3    H141740   3.167   5.351  12.405  0.1306  0.5398 -1.2759
 6775TIP3    H241741   3.039   5.338  12.326 -0.6394 -3.3700  0.4101
 6776TIP3   OH241742   5.765   0.775   1.477  0.6460  0.2381  0.1560
 6776TIP3    H141743   5.804   0.687   1.479  0.2567  0.0637  0.4423
 6776TIP3    H241744   5.689   0.766   1.420 -0.8105 -0.2492  2.0528
 6777TIP3   OH241745   4.872   0.778   1.510  0.0474 -0.3856 -0.4630
 6777TIP3    H141746   4.833   0.713   1.452 -0.8707 -2.4377  2.2312
 6777TIP3    H241747   4.820   0.857   1.497 -1.0368 -1.2273 -1.3798
 6778TIP3   OH241748   0.179   2.511   1.949  0.0451 -0.5693  0.6429
 6778TIP3    H141749   0.107   2.523   2.011 -0.2867  2.9336 -0.1752
 6778TIP3    H241750   0.258   2.516   2.003 -0.2518  2.0103  0.9925
 6779TIP3   OH241751   1.557   4.107  13.527  0.1803 -0.2036  0.3344
 6779TIP3    H141752   1.483   4.090  13.585  0.2680  2.4910  1.3925
 6779TIP3    H241753   1.633   4.075  13.575  0.1062  0.8282  1.1824
 6780TIP3   OH241754   4.860   4.966  11.907  0.0288 -0.5192  0.4641
 6780TIP3    H141755   4.906   4.948  11.989  1.9083 -0.4786 -0.5196
 6780TIP3    H241756   4.848   5.061  11.907  0.6851 -0.4327  0.3699
 6781TIP3   OH241757   4.739   3.942   3.084 -0.0684  0.0588  0.9573
 6781TIP3    H141758   4.810   3.886   3.114  0.8975  0.7561  0.0334
 6781TIP3    H241759   4.725   3.917   2.993 -0.8447  0.1188  1.0472
 6782TIP3   OH241760   2.660   0.229   0.394  0.6467  0.1926 -0.2052
 6782TIP3    H141761   2.716   0.206   0.468  0.3601 -0.0259 -0.0535
 6782TIP3    H241762   2.678   0.162   0.328 -0.5474 -0.8082  0.4196
 6783TIP3   OH241763   5.442   4.321  13.239  0.0173 -0.2588  0.0659
 6783TIP3    H141764   5.446   4.227  13.226  3.6607 -0.2530  0.1231
 6783TIP3    H241765   5.424   4.356  13.152 -1.6163 -0.9328  0.0890
 6784TIP3   OH241766   4.587   6.313  11.746  0.3576 -0.4543  0.2369
 6784TIP3    H141767   4.552   6.366  11.818  1.9722  0.8597  0.1345
 6784TIP3    H241768   4.676   6.291  11.773  1.1691  0.4615 -1.5060
 6785TIP3   OH241769   1.978   1.060   6.560  0.0434 -0.7192  0.7582
 6785TIP3    H141770   2.025   1.120   6.617 -0.0269  0.5314 -0.4352
 6785TIP3    H241771   2.030   0.980   6.560  2.3059  0.6396 -0.5845
 6786TIP3   OH241772   5.079   6.347  16.403 -0.0187 -0.2701 -0.4540
 6786TIP3    H141773   5.087   6.409  16.331 -3.7628  1.2513  0.1589
 6786TIP3    H241774   5.070   6.262  16.361 -1.2350  0.4755 -1.8126
 6787TIP3   OH241775   0.224   2.177   6.354  0.1075 -0.2561  0.0955
 6787TIP3    H141776   0.295   2.114   6.366  0.9143  0.6869  0.4186
 6787TIP3    H241777   0.145   2.124   6.349  0.8857 -1.3790 -0.8459
 6788TIP3   OH241778   1.401   6.568   6.157  0.5427 -0.4286 -0.7428
 6788TIP3    H141779   1.378   6.535   6.244 -0.1510 -0.5732 -0.9762
 6788TIP3    H241780   1.429   6.658   6.172 -0.6405 -0.0835 -0.4956
 6789TIP3   OH241781   3.842   4.217  13.446  0.1244 -0.0889  0.5519
 6789TIP3    H141782   3.872   4.134  13.483  0.6563 -0.5387 -0.8136
 6789TIP3    H241783   3.869   4.213  13.354 -2.0952  0.5040 -0.1749
 6790TIP3   OH241784   2.472   3.394  13.136 -0.1880 -0.3932  0.4769
 6790TIP3    H141785   2.497   3.386  13.228  0.3310  3.0260  0.7918
 6790TIP3    H241786   2.552   3.424  13.093 -0.9116 -0.0970 -0.7102
 6791TIP3   OH241787   5.168   5.621   0.549 -0.3377 -0.2074 -0.4108
 6791TIP3    H141788   5.231   5.571   0.601 -0.2795  0.1002 -0.1882
 6791TIP3    H241789   5.103   5.651   0.612 -1.1950 -1.2493 -0.7539
 6792TIP3   OH241790   5.502   1.719  14.132 -0.1659  0.5299  0.6886
 6792TIP3    H141791   5.424   1.700  14.185 -1.1065  2.4045  0.0660
 6792TIP3    H241792   5.553   1.779  14.187  0.0177  0.6267  0.4116
 6793TIP3   OH241793   2.458   4.085   1.175 -0.6100 -0.0870 -0.9559
 6793TIP3    H141794   2.441   4.177   1.156 -0.8433  0.2343  0.6630
 6793TIP3    H241795   2.534   4.064   1.121  0.4699  1.5442 -0.1914
 6794TIP3   OH241796   4.058   5.324  14.715  0.5018  0.2012  0.5600
 6794TIP3    H141797   4.153   5.314  14.704  0.3927  0.2762 -0.5380
 6794TIP3    H241798   4.048   5.398  14.774  1.1210  0.2113  0.6610
 6795TIP3   OH241799   1.989   0.260   3.725 -0.6843 -0.5589 -0.0467
 6795TIP3    H141800   1.942   0.248   3.808 -0.1544 -3.2944 -0.0389
 6795TIP3    H241801   1.982   0.354   3.706 -2.0999 -0.1149  2.3123
 6796TIP3   OH241802   6.210   4.346   2.590 -0.4307 -0.4260  0.4048
 6796TIP3    H141803   6.202   4.252   2.571  1.3523 -0.5415  0.0020
 6796TIP3    H241804   6.196   4.352   2.685 -0.5766 -1.1081  0.4328
 6797TIP3   OH241805   6.204   3.726   0.192  0.1731 -0.0379  0.2429
 6797TIP3    H141806   6.223   3.819   0.181  0.0432  0.2579  2.1122
 6797TIP3    H241807   6.209   3.712   0.287 -1.2804 -1.6079  0.1415
 6798TIP3   OH241808   2.505   5.574   3.088 -0.0263  0.2624  1.0630
 6798TIP3    H141809   2.469   5.625   3.161  1.0444  0.7254  1.2951
 6798TIP3    H241810   2.596   5.605   3.080  0.0747 -0.2672 -0.0310
 6799TIP3   OH241811   1.911   6.617  12.189  0.0669  0.0214 -0.0380
 6799TIP3    H141812   1.832   6.665  12.161  0.3717  0.3030 -0.4281
 6799TIP3    H241813   1.979   6.684  12.195  0.8362 -0.5159 -1.8501
 6800TIP3   OH241814   5.305   5.585  14.226  0.5509 -0.2104 -0.3495
 6800TIP3    H141815   5.231   5.547  14.178  0.3346  3.2388 -3.1893
 6800TIP3    H241816   5.382   5.541  14.190  0.1393 -0.2919 -1.1602
 6801TIP3   OH241817   1.675   5.071  15.080  0.7338  0.3246 -0.2858
 6801TIP3    H141818   1.641   5.062  15.169  1.4902  3.0571  0.3939
 6801TIP3    H241819   1.750   5.012  15.076 -0.4203 -1.2481  0.1876
 6802TIP3   OH241820   0.247   5.556  11.253  0.2241  0.4716  0.0109
 6802TIP3    H141821   0.181   5.583  11.190 -0.1841  1.2797  0.7666
 6802TIP3    H241822   0.242   5.621  11.323  0.5112 -0.5238  0.9876
 6803TIP3   OH241823   3.501   3.613  12.060 -0.6463 -0.1495 -0.5971
 6803TIP3    H141824   3.488   3.602  11.965  3.2176 -1.4645 -1.1565
 6803TIP3    H241825   3.594   3.635  12.069 -0.8384 -0.2196  2.9464
 6804TIP3   OH241826   0.435   5.397   0.667 -0.2560  0.1616 -0.2260
 6804TIP3    H141827   0.484   5.315   0.673  1.3641  1.1550  1.0752
 6804TIP3    H241828   0.343   5.370   0.661  0.3368 -1.7526 -1.5035
 6805TIP3   OH241829   0.861   5.771  13.746  0.1814 -0.3907 -0.2048
 6805TIP3    H141830   0.878   5.775  13.652  0.3885  1.1655 -0.1164
 6805TIP3    H241831   0.931   5.822  13.785 -1.3122  1.1088  0.6007
 6806TIP3   OH241832   5.641   0.293  14.212  0.3480  0.1318 -0.2313
 6806TIP3    H141833   5.697   0.249  14.149  0.4568  0.3555 -0.2918
 6806TIP3    H241834   5.698   0.311  14.287  0.4532  0.6849 -0.4386
 6807TIP3   OH241835   6.344   3.790   6.333  0.4172 -0.4154 -0.3468
 6807TIP3    H141836   6.300   3.831   6.407  1.4192 -0.6545  0.4168
 6807TIP3    H241837   6.347   3.857   6.265 -0.6204 -0.2322 -0.2225
 6808TIP3   OH241838   6.381   5.084  11.864 -0.6459  0.2747 -0.0250
 6808TIP3    H141839   6.470   5.060  11.840 -0.5203  0.8057 -0.0787
 6808TIP3    H241840   6.371   5.052  11.954 -0.1712  0.8492  0.2322
 6809TIP3   OH241841   5.781   4.696   5.955 -0.3750 -0.7840 -0.0494
 6809TIP3    H141842   5.816   4.609   5.936  2.6340 -0.1273  1.8371
 6809TIP3    H241843   5.737   4.722   5.874  0.4086 -3.2184 -1.3600
 6810TIP3   OH241844   1.659   2.598   0.492 -0.1678  0.1284 -0.2232
 6810TIP3    H141845   1.671   2.523   0.434 -0.2259  0.7513 -1.0532
 6810TIP3    H241846   1.714   2.578   0.568 -0.7627 -1.0946 -0.0833
 6811TIP3   OH241847   3.102   1.679   5.459  0.2739  0.0622  0.3951
 6811TIP3    H141848   3.068   1.759   5.419 -3.5056 -0.9642  1.1183
 6811TIP3    H241849   3.085   1.610   5.394 -2.6240 -1.0411  2.1130
 6812TIP3   OH241850   6.044   4.121   0.607  0.3836 -0.9183  0.5053
 6812TIP3    H141851   6.056   4.096   0.515  1.6165  1.4944 -0.0452
 6812TIP3    H241852   6.109   4.069   0.655 -0.4079 -2.3479  0.0871
 6813TIP3   OH241853   0.348   2.295  15.934 -0.1890 -0.0426 -0.5602
 6813TIP3    H141854   0.335   2.207  15.970  1.7771  0.1946  0.9419
 6813TIP3    H241855   0.423   2.286  15.876 -1.2475  0.2783 -2.0248
 6814TIP3   OH241856   6.188   0.013  12.188 -0.6292  0.0783  0.4062
 6814TIP3    H141857   6.272   0.053  12.164 -1.2678  0.4951 -1.2727
 6814TIP3    H241858   6.167   0.050  12.274  0.4099  0.7290  0.4015
 6815TIP3   OH241859   4.567   5.571   2.501 -0.2475  0.8394  0.1868
 6815TIP3    H141860   4.488   5.613   2.465 -1.4137 -2.1759 -1.1193
 6815TIP3    H241861   4.537   5.486   2.532  2.0143  0.7639  2.5013
 6816TIP3   OH241862   6.540   4.086  14.090  0.4709 -0.4123 -0.1865
 6816TIP3    H141863   6.448   4.068  14.072  0.3888 -0.3445  0.1513
 6816TIP3    H241864   6.586   4.006  14.065  0.3225 -0.4321 -0.3888
 6817TIP3   OH241865   4.954   1.040   1.217 -0.2397 -0.1985  0.2289
 6817TIP3    H141866   5.034   1.065   1.264 -1.1722  1.6010  0.9301
 6817TIP3    H241867   4.893   1.013   1.285 -0.7955  0.0830 -0.1470
 6818TIP3   OH241868   3.709   4.663  16.436  0.5312 -0.0694 -0.3140
 6818TIP3    H141869   3.761   4.712  16.499  0.1274  0.3004 -0.2623
 6818TIP3    H241870   3.671   4.729  16.378  0.4884 -0.3665 -0.6344
 6819TIP3   OH241871   6.684   0.008   1.218 -0.2954  0.0274  0.5706
 6819TIP3    H141872   6.700  -0.034   1.303  0.7386  0.0224  0.3874
 6819TIP3    H241873   6.691  -0.064   1.155 -0.9548  0.0505  0.4655
 6820TIP3   OH241874   3.460   5.040  15.679  0.5463  0.6759  0.4872
 6820TIP3    H141875   3.478   4.993  15.761  1.2559 -1.0464 -0.6050
 6820TIP3    H241876   3.546   5.073  15.651  0.3895  0.8128  0.1693
 6821TIP3   OH241877   0.258   1.985  16.749  0.0495 -0.2720 -0.1933
 6821TIP3    H141878   0.295   2.053  16.693  1.3963  0.0680  1.0591
 6821TIP3    H241879   0.266   1.905  16.697  0.2177  0.2114 -0.9320
 6822TIP3   OH241880   0.840   4.967  15.286  0.6702  0.3186 -0.3757
 6822TIP3    H141881   0.897   4.914  15.341  0.8659  0.6001 -0.3042
 6822TIP3    H241882   0.838   4.921  15.202 -0.7040 -0.8514  0.2407
 6823TIP3   OH241883   4.521   3.333   0.857  0.2426 -0.3144  0.0468
 6823TIP3    H141884   4.569   3.350   0.938 -1.7544 -2.2285  1.7580
 6823TIP3    H241885   4.462   3.408   0.848  1.0753  0.3321 -0.1551
 6824TIP3   OH241886   5.423   6.748  13.576 -0.0889 -0.2887 -0.1600
 6824TIP3    H141887   5.438   6.787  13.662 -0.3983  0.2517 -0.3480
 6824TIP3    H241888   5.511   6.736  13.540  0.0918 -1.2441  0.5375
 6825TIP3   OH241889   2.946   2.223  13.989 -0.4133  0.0714 -0.1244
 6825TIP3    H141890   3.009   2.290  14.018  0.0458 -0.3554 -0.1280
 6825TIP3    H241891   3.000   2.147  13.969 -1.0472 -0.6750  0.9429
 6826TIP3   OH241892   1.425   6.663   5.386 -0.3063  0.0955 -0.2417
 6826TIP3    H141893   1.408   6.578   5.427 -1.8133  0.3276 -0.3306
 6826TIP3    H241894   1.378   6.726   5.441 -0.7457  0.6461 -1.2279
 6827TIP3   OH241895   1.988   4.879   4.102 -0.5229 -0.0874 -0.0733
 6827TIP3    H141896   1.933   4.802   4.111 -0.2421 -0.2107  0.6998
 6827TIP3    H241897   1.930   4.947   4.069 -0.2071 -1.2901 -3.5149
 6828TIP3   OH241898   4.290   0.955   6.309  0.1241 -0.4828  0.0574
 6828TIP3    H141899   4.335   1.030   6.271  1.6241 -1.0344  0.6494
 6828TIP3    H241900   4.326   0.948   6.398 -0.8951 -1.1675  0.4308
 6829TIP3   OH241901   3.977   3.787  14.822 -0.0074  0.4905 -0.2117
 6829TIP3    H141902   3.929   3.744  14.893 -2.1630  1.0250 -1.2670
 6829TIP3    H241903   4.062   3.742  14.821 -0.8579 -1.3000  1.0199
 6830TIP3   OH241904   2.754   4.463  10.773  0.6105 -0.3543  0.1805
 6830TIP3    H141905   2.829   4.498  10.725  1.5999 -0.3039  1.6951
 6830TIP3    H241906   2.693   4.436  10.705  2.7068 -2.0055 -1.1816
 6831TIP3   OH241907   6.552   5.093   0.492 -0.7920  0.4882  0.0607
 6831TIP3    H141908   6.615   5.044   0.438 -2.9648  0.7971 -3.0033
 6831TIP3    H241909   6.483   5.029   0.511 -1.6699  1.2559 -0.4679
 6832TIP3   OH241910   3.657   5.710  12.034 -0.2298  0.2354 -0.1509
 6832TIP3    H141911   3.614   5.666  11.961  0.2143  1.0246 -0.9171
 6832TIP3    H241912   3.609   5.792  12.045  0.1191  0.4270 -0.0151
 6833TIP3   OH241913   2.216   4.783   4.184  0.0310  0.0970 -0.1096
 6833TIP3    H141914   2.137   4.834   4.164  0.1793  0.1516 -0.5642
 6833TIP3    H241915   2.258   4.771   4.100 -0.3170 -1.3104 -0.1050
 6834TIP3   OH241916   0.852   4.474  12.685  0.0939  0.4717 -0.2374
 6834TIP3    H141917   0.852   4.465  12.590  0.8660  0.7062 -0.2682
 6834TIP3    H241918   0.899   4.556  12.701 -0.7699  0.8683  0.3147
 6835TIP3   OH241919   3.146   1.145   5.959  0.7185  0.1802  0.5271
 6835TIP3    H141920   3.142   1.121   5.867  0.9022  0.6451  0.3919
 6835TIP3    H241921   3.067   1.108   5.997 -0.6397  2.0139 -0.3252
 6836TIP3   OH241922   4.657   0.998   5.381  0.5981  0.1185 -0.4590
 6836TIP3    H141923   4.565   1.015   5.399  1.3066  2.9724  1.0169
 6836TIP3    H241924   4.682   1.064   5.316  1.8390 -0.0026 -0.1413
 6837TIP3   OH241925   6.619   4.769   0.978 -0.3963  0.3500 -0.8047
 6837TIP3    H141926   6.543   4.765   0.920 -0.6151  1.7273 -0.6488
 6837TIP3    H241927   6.627   4.862   1.000  1.4727  0.2525 -0.9887
 6838TIP3   OH241928   5.762   3.472  13.272  0.5863  0.0044  0.2913
 6838TIP3    H141929   5.736   3.422  13.349  0.9943 -1.3668 -0.4169
 6838TIP3    H241930   5.744   3.414  13.198  3.6527 -0.2749 -0.3791
 6839TIP3   OH241931   3.237   5.828  16.985  0.1616 -0.3699 -0.0954
 6839TIP3    H141932   3.260   5.765  17.053  1.3348  1.7352  1.5675
 6839TIP3    H241933   3.197   5.901  17.031  0.7757  1.0354 -1.6583
 6840TIP3   OH241934   1.622   3.378  15.868 -0.2550  0.5845  0.3761
 6840TIP3    H141935   1.531   3.406  15.854 -0.0250  1.9951  1.3817
 6840TIP3    H241936   1.619   3.330  15.951 -0.6212 -2.4951 -1.2775
 6841TIP3   OH241937   5.424   0.127  12.102  0.2229 -0.7209  0.4366
 6841TIP3    H141938   5.490   0.079  12.052  0.5053 -1.7207  1.7190
 6841TIP3    H241939   5.455   0.123  12.192 -1.3883 -0.8711  1.0096
 6842TIP3   OH241940   3.939   2.069   0.283  0.7601 -0.5680 -0.7355
 6842TIP3    H141941   3.888   2.090   0.205  1.8885  0.1163 -1.3078
 6842TIP3    H241942   3.964   2.154   0.320  1.0235 -0.8891 -0.1569
 6843TIP3   OH241943   0.979   3.832  13.868  0.4006  0.0909 -0.2777
 6843TIP3    H141944   0.995   3.807  13.959  2.6403 -0.7758 -0.8389
 6843TIP3    H241945   0.993   3.751  13.819 -1.2197  0.4406 -1.3796
 6844TIP3   OH241946   2.851   1.006  14.063  0.3631 -0.3267 -0.6414
 6844TIP3    H141947   2.804   1.079  14.023  1.9300  1.1476  0.0640
 6844TIP3    H241948   2.819   1.002  14.153  1.3086  0.4676 -0.2554
 6845TIP3   OH241949   1.572   5.438   3.019 -0.1723  0.1605  0.3050
 6845TIP3    H141950   1.582   5.502   3.089 -1.8140  0.1420  0.6085
 6845TIP3    H241951   1.582   5.489   2.939 -1.0685  0.7485  0.5461
 6846TIP3   OH241952   3.123   2.606  14.703  0.1829  0.1961  0.2181
 6846TIP3    H141953   3.159   2.670  14.765  2.6698 -1.7583  0.9988
 6846TIP3    H241954   3.175   2.619  14.623  1.8422 -1.7293  0.8886
 6847TIP3   OH241955   3.698   3.543  15.629  0.1777 -0.3647  0.0670
 6847TIP3    H141956   3.709   3.570  15.720 -0.0527  0.5263 -0.1604
 6847TIP3    H241957   3.780   3.500  15.607  0.6674  0.4017  0.3643
 6848TIP3   OH241958   2.222   2.944   0.049 -0.0876 -0.1165 -0.4926
 6848TIP3    H141959   2.212   2.886  -0.026 -0.2533 -1.2394  0.3630
 6848TIP3    H241960   2.315   2.966   0.051  0.0480 -0.6666 -0.6070
 6849TIP3   OH241961   1.680   6.403   1.246 -0.5390 -0.2017  0.3007
 6849TIP3    H141962   1.719   6.337   1.189  2.4912  2.0070 -0.4680
 6849TIP3    H241963   1.688   6.367   1.334  2.3745 -0.3899  0.0485
 6850TIP3   OH241964   6.073   6.660   4.144 -0.3927 -0.1235 -0.1748
 6850TIP3    H141965   6.137   6.589   4.150  0.2662  0.5786  2.3755
 6850TIP3    H241966   6.004   6.625   4.088  0.2847 -2.4820  0.3449
 6851TIP3   OH241967   4.663   4.349  11.952  0.9044  0.3181  0.2836
 6851TIP3    H141968   4.746   4.350  11.999  1.8521 -0.2027 -1.3174
 6851TIP3    H241969   4.639   4.442  11.944  0.9613  0.4359  1.3403
 6852TIP3   OH241970   3.747   5.974   1.434 -0.4099  0.2972  0.0336
 6852TIP3    H141971   3.701   6.045   1.479  1.4274  1.4398  0.2070
 6852TIP3    H241972   3.727   5.896   1.486 -3.0884  0.4680 -0.5804
 6853TIP3   OH241973   5.265   3.325   4.297 -0.0890 -0.0811 -0.6777
 6853TIP3    H141974   5.318   3.402   4.281  0.4935  0.2081  2.2054
 6853TIP3    H241975   5.314   3.274   4.361 -0.8388 -2.4967 -1.8665
 6854TIP3   OH241976   1.217   1.371  17.259  0.1141  0.2511 -0.1842
 6854TIP3    H141977   1.253   1.454  17.290  1.1184 -0.4504  0.6136
 6854TIP3    H241978   1.136   1.395  17.213  0.3295  1.6451  0.1198
 6855TIP3   OH241979   3.865   6.189   4.190 -0.6029 -0.3127 -0.1596
 6855TIP3    H141980   3.900   6.277   4.201 -1.2561 -0.1430  0.6219
 6855TIP3    H241981   3.929   6.131   4.232 -1.3040  0.0109  1.4296
 6856TIP3   OH241982   3.596   5.888  15.743 -0.6350 -0.4369  0.3805
 6856TIP3    H141983   3.586   5.873  15.837  0.1339 -0.6622  0.4361
 6856TIP3    H241984   3.508   5.910  15.713 -0.5716  1.5334  1.4798
 6857TIP3   OH241985   4.606   5.062  14.113  0.5178 -0.0318 -0.1762
 6857TIP3    H141986   4.679   5.001  14.107  1.4529  1.0232  0.0502
 6857TIP3    H241987   4.540   5.017  14.166  1.9614 -0.1388  1.6080
 6858TIP3   OH241988   3.601   2.038  17.216  0.1652  0.1522 -0.1747
 6858TIP3    H141989   3.696   2.046  17.211  0.1879  0.7724  0.9191
 6858TIP3    H241990   3.576   1.992  17.136  1.2785  0.9194 -0.9893
 6859TIP3   OH241991   0.056   3.334   1.281 -0.1605 -0.1505 -0.5077
 6859TIP3    H141992   0.044   3.344   1.187  0.9683  0.2718 -0.6336
 6859TIP3    H241993   0.062   3.240   1.295  1.0680 -0.1893 -1.0927
 6860TIP3   OH241994   3.631   1.343  13.702 -1.0386 -0.2441  0.1552
 6860TIP3    H141995   3.613   1.371  13.792  1.5900  0.7413  0.4789
 6860TIP3    H241996   3.547   1.348  13.658 -1.9125  2.1140  1.8534
 6861TIP3   OH241997   0.988   0.349   5.544  0.2119 -0.0978  0.0959
 6861TIP3    H141998   0.935   0.394   5.610 -1.6449 -1.3140 -0.4945
 6861TIP3    H241999   1.039   0.285   5.593 -0.6642 -0.5410  0.4446
 6862TIP3   OH242000   2.935   5.556   4.087 -0.1313 -0.3906 -0.0334
 6862TIP3    H142001   2.843   5.580   4.082  0.0013 -0.1045 -1.5346
 6862TIP3    H242002   2.935   5.460   4.090 -0.4658 -0.4226 -0.8158
 6863TIP3   OH242003   1.452   5.642  16.165  0.5522 -0.1490 -0.3144
 6863TIP3    H142004   1.395   5.672  16.236 -1.8874 -0.8779 -1.8409
 6863TIP3    H242005   1.431   5.700  16.092  3.1701  0.7322 -0.4568
 6864TIP3   OH242006   5.979   4.450  16.871  0.1470  0.3356 -0.1867
 6864TIP3    H142007   5.981   4.535  16.916  0.4039 -0.7440  1.9785
 6864TIP3    H242008   6.047   4.399  16.914 -1.7251 -1.8232  0.4414
 6865TIP3   OH242009   1.580   2.469  13.815 -0.5008 -0.5898  0.4105
 6865TIP3    H142010   1.610   2.556  13.843 -2.7865  0.7297 -0.9274
 6865TIP3    H242011   1.650   2.436  13.760 -1.5401  2.7392 -3.3503
 6866TIP3   OH242012   4.836   4.266  12.968 -0.5316 -0.0426  0.5773
 6866TIP3    H142013   4.865   4.295  12.882  1.7125 -0.0441  1.2638
 6866TIP3    H242014   4.829   4.346  13.020  0.2467 -0.2205  0.9697
 6867TIP3   OH242015   1.988   2.995  12.109  0.3262  0.1337 -0.1851
 6867TIP3    H142016   1.983   2.908  12.149  2.0489 -0.5252 -1.3129
 6867TIP3    H242017   1.925   2.992  12.037 -0.1330  0.0791  0.2120
 6868TIP3   OH242018   1.242   1.101   5.786 -0.2193  0.3775 -0.2807
 6868TIP3    H142019   1.269   1.142   5.703  1.2738 -0.4892 -0.2658
 6868TIP3    H242020   1.188   1.167   5.829 -1.6941  0.5578 -2.2897
 6869TIP3   OH242021   4.630   0.160   2.234 -0.2570  0.0818 -0.3739
 6869TIP3    H142022   4.625   0.093   2.302 -2.1095 -0.0288 -0.5739
 6869TIP3    H242023   4.558   0.139   2.175  0.9072  0.5599 -2.0381
 6870TIP3   OH242024   3.217   0.989  15.288 -0.3194 -0.8535  0.4121
 6870TIP3    H142025   3.296   0.945  15.318 -1.5146 -2.4827  1.3731
 6870TIP3    H242026   3.179   1.026  15.368  1.3851  3.4895 -0.4843
 6871TIP3   OH242027   3.213   1.012  16.178 -0.2678  0.8294  0.6872
 6871TIP3    H142028   3.179   1.073  16.243 -0.5607  1.3349  0.0710
 6871TIP3    H242029   3.247   1.068  16.108 -2.6960  0.3610 -1.0139
 6872TIP3   OH242030   4.162   2.091  13.647 -0.7457 -0.0710 -0.0561
 6872TIP3    H142031   4.094   2.027  13.665  0.3285 -0.8161  1.5860
 6872TIP3    H242032   4.240   2.057  13.692  0.6959  0.8045 -1.7415
 6873TIP3   OH242033   3.225   2.005   0.945  0.4493 -0.0159 -0.0786
 6873TIP3    H142034   3.248   1.952   1.021  1.7480 -0.2863 -0.6487
 6873TIP3    H242035   3.267   2.090   0.961 -0.7503  0.5381  0.3259
 6874TIP3   OH242036   5.165   0.393   5.794 -0.1755 -0.2259  0.1627
 6874TIP3    H142037   5.229   0.436   5.737 -1.5684  0.8170 -0.6861
 6874TIP3    H242038   5.082   0.400   5.746 -1.1043 -0.6937  1.6382
 6875TIP3   OH242039   3.234   3.751  14.539  0.2298  0.3829 -0.2272
 6875TIP3    H142040   3.275   3.834  14.515  1.4988 -0.3364 -0.6064
 6875TIP3    H242041   3.242   3.747  14.634 -1.8834  1.7154  0.0844
 6876TIP3   OH242042   3.433   5.104  13.247  0.1823 -0.3150  0.0776
 6876TIP3    H142043   3.412   5.161  13.174 -0.5793 -0.7384 -0.0433
 6876TIP3    H242044   3.352   5.098  13.298  0.4193 -0.8177  0.4100
 6877TIP3   OH242045   3.384   3.748  15.004 -0.4150 -0.4641 -0.3779
 6877TIP3    H142046   3.462   3.749  14.948  0.6951 -0.9075  1.0827
 6877TIP3    H242047   3.377   3.837  15.037  0.8649 -0.9235  1.2601
 6878TIP3   OH242048   3.325   1.369  17.137 -0.0095 -0.1509 -0.4729
 6878TIP3    H142049   3.249   1.418  17.105  0.0519  1.1403  1.1854
 6878TIP3    H242050   3.400   1.422  17.110  0.0869  0.4369  0.8556
 6879TIP3   OH242051   1.587   6.555  13.236 -0.0020 -0.1722  0.6530
 6879TIP3    H142052   1.547   6.630  13.193 -0.2195 -0.9570 -0.5887
 6879TIP3    H242053   1.521   6.486  13.229  0.1957 -0.4862  1.7550
 6880TIP3   OH242054   2.839   3.549  16.987 -0.2224 -0.2439 -0.0124
 6880TIP3    H142055   2.771   3.544  16.920  1.7604 -1.9291 -2.0316
 6880TIP3    H242056   2.869   3.640  16.983 -1.8790  0.3730  0.5148
 6881TIP3   OH242057   1.383   3.843   4.889 -0.3575  0.2663  0.5437
 6881TIP3    H142058   1.346   3.928   4.863 -1.5223 -0.4368 -0.2214
 6881TIP3    H242059   1.444   3.821   4.819  0.6667  0.8962  1.2225
 6882TIP3   OH242060   1.145   0.895   0.973  0.5493 -0.3561 -0.0169
 6882TIP3    H142061   1.201   0.885   0.897  1.1615 -1.7322  0.5797
 6882TIP3    H242062   1.196   0.859   1.046 -0.1117  0.6911  1.0113
 6883TIP3   OH242063   1.563   0.740   5.874  0.1377 -0.1975 -0.2931
 6883TIP3    H142064   1.488   0.699   5.829  0.0927 -0.5362  0.0854
 6883TIP3    H242065   1.600   0.670   5.927  0.8525 -0.0881 -0.6309
 6884TIP3   OH242066   1.568   5.020  13.798 -0.2060 -0.2870  0.1394
 6884TIP3    H142067   1.529   5.003  13.713 -1.4687  0.7566  0.4714
 6884TIP3    H242068   1.580   4.934  13.838 -0.3972 -0.7249 -0.7409
 6885TIP3   OH242069   2.297   0.452   5.327  0.3377 -0.0881 -0.1575
 6885TIP3    H142070   2.215   0.411   5.354  0.3281 -0.6172 -0.9683
 6885TIP3    H242071   2.361   0.422   5.391  0.0010 -0.0683  0.1916
 6886TIP3   OH242072   0.655   1.018   0.011 -0.2688  0.6729 -0.4963
 6886TIP3    H142073   0.706   1.049   0.086 -1.3312  2.1136 -0.3266
 6886TIP3    H242074   0.572   1.064   0.018 -0.0636  1.6285 -3.0935
 6887TIP3   OH242075   0.243   5.051  15.554  0.2919  0.1225 -0.2732
 6887TIP3    H142076   0.196   5.023  15.476  0.8834  1.1366 -1.0076
 6887TIP3    H242077   0.190   5.123  15.589  0.3538  0.0771 -0.0840
 6888TIP3   OH242078   6.211   5.256   3.906  0.0387 -0.3410  0.5940
 6888TIP3    H142079   6.281   5.297   3.956 -0.9843  1.0915  0.9098
 6888TIP3    H242080   6.254   5.185   3.858  1.6449  0.3407  0.9613
 6889TIP3   OH242081   5.976   5.896   3.285  0.0344  0.0829  0.3690
 6889TIP3    H142082   6.021   5.865   3.207 -1.5679 -0.1256 -0.5173
 6889TIP3    H242083   6.033   5.964   3.321  0.5356  0.5754 -1.3041
 6890TIP3   OH242084   3.789   6.731  13.591  0.3598 -0.3826 -0.0270
 6890TIP3    H142085   3.705   6.696  13.620  1.2499 -1.3916  1.4777
 6890TIP3    H242086   3.791   6.820  13.625  0.1454 -0.5602  0.4603
 6891TIP3   OH242087   3.208   4.852  12.721 -0.5717  0.2145  0.4334
 6891TIP3    H142088   3.172   4.922  12.666 -1.7917 -0.1851  0.6864
 6891TIP3    H242089   3.285   4.821  12.673 -1.2099  0.3432 -0.7159
 6892TIP3   OH242090   0.283   4.744   5.271  0.2933 -0.3293  0.2602
 6892TIP3    H142091   0.332   4.822   5.244 -0.8087  0.5391  0.7135
 6892TIP3    H242092   0.339   4.703   5.337  1.0706 -0.1649 -0.2787
 6893TIP3   OH242093   4.398   6.686  16.847 -0.4158  0.1329  0.0035
 6893TIP3    H142094   4.411   6.736  16.927 -1.1556 -0.4480  0.5014
 6893TIP3    H242095   4.405   6.594  16.874  1.8540 -0.0795 -1.0470
 6894TIP3   OH242096   2.288   2.602  13.346  0.0019 -0.2777  0.4576
 6894TIP3    H142097   2.284   2.656  13.266 -0.0079  0.5043  0.9781
 6894TIP3    H242098   2.233   2.526  13.326 -0.4055  0.1560 -0.0988
 6895TIP3   OH242099   2.408   4.222   2.455  0.0488  0.2761  0.0625
 6895TIP3    H142100   2.494   4.217   2.415 -0.3025  1.0343 -0.8226
 6895TIP3    H242101   2.410   4.157   2.525  1.3716  0.3655  0.1267
 6896TIP3   OH242102   1.730   3.577  15.684  0.3537 -0.0372 -0.5239
 6896TIP3    H142103   1.766   3.650  15.734 -0.4013  0.9625 -1.4012
 6896TIP3    H242104   1.708   3.512  15.750 -0.3241  1.1270  0.4430
 6897TIP3   OH242105   5.582   2.210  15.472 -0.0283 -0.0153  0.3588
 6897TIP3    H142106   5.561   2.137  15.530  1.7131  0.3107  1.4746
 6897TIP3    H242107   5.628   2.170  15.398 -0.0002 -0.1524  0.4504
 6898TIP3   OH242108   5.065   2.807  11.585  0.2867  0.3008 -1.0502
 6898TIP3    H142109   5.113   2.874  11.632 -0.3473  0.4495 -0.6153
 6898TIP3    H242110   5.001   2.855  11.533 -2.2059 -0.0367  1.4949
 6899TIP3   OH242111   5.628   1.204   6.771 -0.1255  0.3905 -0.1550
 6899TIP3    H142112   5.534   1.208   6.793 -0.8268  2.8469 -2.9396
 6899TIP3    H242113   5.636   1.129   6.713 -0.7437  1.0176 -1.0925
 6900TIP3   OH242114   0.752   0.654  16.175 -0.6057 -0.3511  0.1493
 6900TIP3    H142115   0.680   0.611  16.219 -2.2537  1.7206 -0.3528
 6900TIP3    H242116   0.786   0.717  16.239 -0.2875 -0.2172 -0.1445
 6901TIP3   OH242117   5.037   3.117  12.303 -0.3403  0.3187  0.5560
 6901TIP3    H142118   5.039   3.069  12.220  0.8552 -0.7391  1.1701
 6901TIP3    H242119   5.088   3.196  12.286  0.9651 -0.4765  0.5852
 6902TIP3   OH242120   2.605   0.702   1.073 -0.8802 -0.4802  0.0071
 6902TIP3    H142121   2.512   0.701   1.092 -0.7665 -0.0880  0.6389
 6902TIP3    H242122   2.638   0.779   1.119  0.0822 -1.6955  1.4698
 6903TIP3   OH242123   3.863   2.239   2.474  0.1298 -0.2414 -0.4476
 6903TIP3    H142124   3.884   2.271   2.561 -1.4361 -2.3086  0.7612
 6903TIP3    H242125   3.933   2.177   2.453  1.0426  0.9699 -1.1438
 6904TIP3   OH242126   4.441   3.921  13.132  0.3680  0.0768  0.0580
 6904TIP3    H142127   4.460   3.859  13.202  0.5666 -3.9108 -3.1599
 6904TIP3    H242128   4.526   3.937  13.090  0.4770  3.4009  1.2343
 6905TIP3   OH242129   3.426   5.094  13.566 -0.5916  0.1229  0.1154
 6905TIP3    H142130   3.510   5.058  13.540 -1.3175 -0.9559 -0.8035
 6905TIP3    H242131   3.421   5.179  13.521  0.4343  0.6798  1.0177
 6906TIP3   OH242132   1.374   4.403   2.525 -0.4603 -0.4349  0.3016
 6906TIP3    H142133   1.374   4.370   2.435 -1.3962  0.2067  0.0569
 6906TIP3    H242134   1.341   4.492   2.519  1.1693  0.2571  1.0788
 6907TIP3   OH242135   5.371   4.606  13.984 -0.1264 -0.0337 -0.0752
 6907TIP3    H142136   5.338   4.623  13.896  1.0289  1.1439 -0.3088
 6907TIP3    H242137   5.438   4.673  13.999  1.2358 -1.5119  0.8753
 6908TIP3   OH242138   1.151   0.597  11.495 -0.3510 -0.1583  0.4566
 6908TIP3    H142139   1.174   0.566  11.407  0.4674 -0.0995  0.6423
 6908TIP3    H242140   1.055   0.601  11.495 -0.3630 -0.3275 -0.3742
 6909TIP3   OH242141   0.809   3.102   0.215  0.4177 -0.3405  0.2288
 6909TIP3    H142142   0.810   3.111   0.119  1.3210  0.8625  0.3315
 6909TIP3    H242143   0.727   3.056   0.234 -0.8942  1.4023 -0.9550
 6910TIP3   OH242144   0.287   0.342   4.613  0.8417  0.1157  0.3510
 6910TIP3    H142145   0.363   0.386   4.575  0.2858  0.5350 -0.3143
 6910TIP3    H242146   0.212   0.392   4.580  0.1795 -1.3471 -0.4608
 6911TIP3   OH242147   6.558   6.290  16.213 -0.0623  0.3486 -0.3037
 6911TIP3    H142148   6.550   6.382  16.187  0.2620  0.6542  0.6325
 6911TIP3    H242149   6.596   6.247  16.136  0.5330  1.1508 -0.4705
 6912TIP3   OH242150   0.601   6.492   6.084  0.3568  0.8418 -0.4889
 6912TIP3    H142151   0.689   6.512   6.052  0.3559  1.0604 -0.3548
 6912TIP3    H242152   0.587   6.554   6.156  1.4939 -1.4622  1.9207
 6913TIP3   OH242153   4.929   2.265  11.194  0.6473 -0.1642  0.0242
 6913TIP3    H142154   4.939   2.170  11.195 -1.0943 -0.3764  0.7543
 6913TIP3    H242155   5.012   2.298  11.229  0.8104 -1.4758  0.9702
 6914TIP3   OH242156   6.421   2.013   4.397  0.0849  0.1308  0.3544
 6914TIP3    H142157   6.481   2.085   4.414 -1.2682  1.2762  0.4486
 6914TIP3    H242158   6.369   2.005   4.478 -0.3725 -0.3529  0.0252
 6915TIP3   OH242159   4.657   1.213  17.395 -1.0783 -0.5872  0.1902
 6915TIP3    H142160   4.605   1.139  17.362 -1.7902  0.4618 -1.1332
 6915TIP3    H242161   4.599   1.289  17.386  0.0719  0.3315  0.3549
 6916TIP3   OH242162   2.624   4.049   4.362  0.1010 -0.6342  0.6056
 6916TIP3    H142163   2.609   3.966   4.316 -0.2442 -1.9640  2.9900
 6916TIP3    H242164   2.694   4.031   4.424  2.5245  1.8880 -1.1323
 6917TIP3   OH242165   5.540   6.435   1.498  0.7467 -0.1301  0.1290
 6917TIP3    H142166   5.480   6.368   1.531  0.7244  0.0157  0.3930
 6917TIP3    H242167   5.621   6.388   1.479  0.3030 -0.4765 -1.0095
 6918TIP3   OH242168   3.025   5.184   2.808  0.2770 -0.6323  0.2441
 6918TIP3    H142169   3.033   5.254   2.872 -1.4692 -0.6787  0.5535
 6918TIP3    H242170   3.001   5.106   2.859  0.0482 -0.9472 -0.3303
 6919TIP3   OH242171   3.314   5.008   0.819  0.1462  0.0424  0.3019
 6919TIP3    H142172   3.357   5.019   0.734 -0.3072 -0.4990 -0.0106
 6919TIP3    H242173   3.378   4.961   0.872  0.4341  0.3877  0.2627
 6920TIP3   OH242174   5.606   3.781  14.351 -0.1367  0.2972 -0.0245
 6920TIP3    H142175   5.582   3.804  14.261  1.7294 -0.0672 -0.6560
 6920TIP3    H242176   5.658   3.855  14.382  1.0292 -0.4849 -0.0316
 6921TIP3   OH242177   4.257   5.309  16.812  0.2471 -0.0972 -0.2567
 6921TIP3    H142178   4.213   5.392  16.797  2.2869  1.1702  0.3919
 6921TIP3    H242179   4.283   5.279  16.725 -0.4296 -0.0606 -0.4831
 6922TIP3   OH242180   2.005   2.922   2.884 -0.4470  0.1525 -0.1271
 6922TIP3    H142181   1.932   2.882   2.837  0.9260 -1.4972 -0.9744
 6922TIP3    H242182   2.049   2.848   2.926  0.4950  1.1585  0.6970
 6923TIP3   OH242183   1.344   1.034  11.597  0.0589  0.2497 -0.0185
 6923TIP3    H142184   1.324   0.965  11.533  1.3017  0.9728 -1.2409
 6923TIP3    H242185   1.433   1.061  11.576  0.1392  1.1981  1.4124
 6924TIP3   OH242186   2.382   5.575   1.759 -0.4692  0.0378 -0.1775
 6924TIP3    H142187   2.331   5.649   1.791 -2.0748 -1.3581  0.7071
 6924TIP3    H242188   2.448   5.559   1.827  0.9694  1.6009 -1.1350
 6925TIP3   OH242189   6.666   3.477   2.464  0.2282 -0.1272 -0.3124
 6925TIP3    H142190   6.588   3.481   2.521  0.5517 -0.0673  0.1336
 6925TIP3    H242191   6.733   3.525   2.513  0.8661 -1.1117 -0.1921
 6926TIP3   OH242192   5.708   6.108   3.745 -0.3514 -0.1510  0.3896
 6926TIP3    H142193   5.658   6.059   3.811  0.5488  0.0317  1.2321
 6926TIP3    H242194   5.753   6.040   3.695 -0.3645 -0.2546  0.5164
 6927TIP3   OH242195   4.822   5.617   0.406 -0.4143  0.6193  0.0616
 6927TIP3    H142196   4.801   5.707   0.379  0.4612  0.2038 -2.2087
 6927TIP3    H242197   4.745   5.566   0.380 -0.0381  0.3954 -0.6390
 6928TIP3   OH242198   2.752   4.098  16.263  0.1948 -0.2143 -0.0736
 6928TIP3    H142199   2.806   4.021  16.245  0.6980  0.2216 -0.4330
 6928TIP3    H242200   2.782   4.128  16.349 -2.0839 -2.1879  1.5693
 6929TIP3   OH242201   4.838   3.638   5.359  0.1206  0.1176  0.3056
 6929TIP3    H142202   4.888   3.677   5.287 -1.1617 -1.7309 -1.7362
 6929TIP3    H242203   4.901   3.580   5.402  0.7847  0.8646  0.3647
 6930TIP3   OH242204   6.381   6.035  15.576 -0.3846 -1.0433  0.0040
 6930TIP3    H142205   6.320   6.105  15.599 -0.3861 -0.7261 -0.9045
 6930TIP3    H242206   6.327   5.974  15.525  0.3979  0.1171 -2.3661
 6931TIP3   OH242207   3.857   4.084  13.741  0.2983  0.1129  0.1861
 6931TIP3    H142208   3.879   4.166  13.785  1.8410 -0.1614 -0.0290
 6931TIP3    H242209   3.929   4.025  13.763 -1.3580 -1.6000  1.3508
 6932TIP3   OH242210   5.317   3.913  11.493  0.1616 -0.1071 -0.1312
 6932TIP3    H142211   5.273   3.988  11.533 -0.8477 -1.1970  0.9053
 6932TIP3    H242212   5.251   3.876  11.434 -0.3998 -1.7966  1.4769
 6933TIP3   OH242213   0.667   2.314   6.464 -0.0678  0.0985  0.2049
 6933TIP3    H142214   0.619   2.262   6.400 -0.1259  0.9634 -0.4694
 6933TIP3    H242215   0.624   2.399   6.464  1.9346  1.2034 -1.0442
 6934TIP3   OH242216   3.175   1.341  15.750  0.2795 -0.2789  0.3516
 6934TIP3    H142217   3.237   1.272  15.726 -1.1890 -1.6608  0.3587
 6934TIP3    H242218   3.097   1.293  15.780 -1.2426  1.3680 -0.7859
 6935TIP3   OH242219   0.296   5.206  14.429  0.1427 -0.2998 -0.1168
 6935TIP3    H142220   0.228   5.148  14.395  0.0723  1.0156 -2.4434
 6935TIP3    H242221   0.377   5.174  14.389  0.7621 -1.1163  1.6821
 6936TIP3   OH242222   2.598   4.401   2.004 -0.5813  0.2274  0.0267
 6936TIP3    H142223   2.643   4.326   1.965 -1.8098 -1.2328  1.2715
 6936TIP3    H242224   2.509   4.395   1.971 -0.5916  1.4331 -0.2085
 6937TIP3   OH242225   4.394   0.245  12.051  0.3212 -0.9612 -0.2626
 6937TIP3    H142226   4.411   0.310  12.119 -0.0637 -1.3125  0.1765
 6937TIP3    H242227   4.376   0.297  11.972  0.8605 -0.5544 -0.1221
 6938TIP3   OH242228   1.234   2.063   1.931 -0.1240 -0.5371 -0.9348
 6938TIP3    H142229   1.229   2.154   1.961 -1.0154 -0.4520 -1.2937
 6938TIP3    H242230   1.236   2.011   2.012 -0.7760 -0.2391 -0.7198
 6939TIP3   OH242231   2.483   6.639   3.660 -0.6692  0.2838  0.5324
 6939TIP3    H142232   2.563   6.647   3.608 -1.5079 -0.2598 -0.9210
 6939TIP3    H242233   2.471   6.725   3.700  1.3088  0.0261  1.8761
 6940TIP3   OH242234   5.187   1.832   4.683 -1.0545 -0.1551 -0.0886
 6940TIP3    H142235   5.221   1.748   4.653  0.7535 -0.3641  2.2225
 6940TIP3    H242236   5.240   1.897   4.637 -1.1134 -0.3397 -0.4187
 6941TIP3   OH242237   5.488   5.045  12.092  0.4062 -0.9366 -0.6728
 6941TIP3    H142238   5.581   5.064  12.081  0.7447  1.3784  3.9297
 6941TIP3    H242239   5.451   5.125  12.128 -2.8619 -2.5607 -0.0460
 6942TIP3   OH242240   2.378   2.232  13.054 -0.2780  0.0740  0.0606
 6942TIP3    H142241   2.306   2.177  13.084 -0.1052  0.5174  1.3804
 6942TIP3    H242242   2.337   2.312  13.024 -0.4263 -0.1921 -0.4455
 6943TIP3   OH242243   6.062   0.874   1.236 -0.2958 -0.0893  0.9313
 6943TIP3    H142244   6.089   0.809   1.171 -0.9332 -0.5852  1.1514
 6943TIP3    H242245   6.069   0.828   1.320  1.5434  0.8584  1.3656
 6944TIP3   OH242246   3.055   5.549  14.961 -0.2842 -0.2954 -0.0093
 6944TIP3    H142247   3.052   5.478  14.897 -0.1649 -1.8849  1.6800
 6944TIP3    H242248   3.134   5.533  15.012  0.2725  1.6318 -0.1565
 6945TIP3   OH242249   6.233   2.642  13.055  0.5780 -0.0870  0.0821
 6945TIP3    H142250   6.298   2.642  12.985 -0.7565  2.6077 -1.3077
 6945TIP3    H242251   6.280   2.676  13.131  1.3280 -0.2466 -0.3022
 6946TIP3   OH242252   0.881   3.471  17.112 -0.4671 -0.0745 -0.4256
 6946TIP3    H142253   0.817   3.529  17.072 -0.0047  1.3348  0.7890
 6946TIP3    H242254   0.965   3.512  17.095  0.1213 -1.6182 -1.5251
 6947TIP3   OH242255   2.299   1.132   5.204  0.7931  0.8827  0.0671
 6947TIP3    H142256   2.216   1.165   5.170  0.5340  0.6909  0.5024
 6947TIP3    H242257   2.340   1.209   5.245  0.7254  0.9271  0.0522
 6948TIP3   OH242258   0.064   4.157  16.559  0.5855 -0.3378  0.1544
 6948TIP3    H142259   0.154   4.178  16.536  1.6749 -2.5197  1.9781
 6948TIP3    H242260   0.053   4.192  16.648 -0.6366  0.5503 -0.3178
 6949TIP3   OH242261   2.399   3.813   5.757  0.1860 -0.3926 -0.1531
 6949TIP3    H142262   2.414   3.774   5.843 -3.5543 -0.0357  0.8058
 6949TIP3    H242263   2.365   3.741   5.703  1.0364 -0.2580 -0.8956
 6950TIP3   OH242264   4.125   6.248   2.641 -0.1087  0.0228  0.1004
 6950TIP3    H142265   4.079   6.184   2.696  0.4947 -0.2954  0.2431
 6950TIP3    H242266   4.189   6.288   2.700 -1.0856  1.4111  0.2498
 6951TIP3   OH242267   1.528   4.356  16.550  0.0710 -0.2581  0.1258
 6951TIP3    H142268   1.583   4.340  16.474 -1.4165 -0.4568 -0.9374
 6951TIP3    H242269   1.515   4.270  16.589 -1.0295 -0.4924 -0.7279
 6952TIP3   OH242270   6.723   3.167   2.672  0.0176 -0.1620 -0.5633
 6952TIP3    H142271   6.667   3.144   2.598 -0.7358 -1.3116  0.3151
 6952TIP3    H242272   6.800   3.207   2.633 -1.2004  1.0589 -1.8433
 6953TIP3   OH242273   4.989   3.299  14.542  0.2688 -0.2001  0.2041
 6953TIP3    H142274   4.946   3.252  14.613 -1.1947 -2.6666 -2.1235
 6953TIP3    H242275   4.920   3.355  14.506  1.0453  1.1617  0.7641
 6954TIP3   OH242276   0.751   1.816   2.997  0.0112  0.2209 -0.4593
 6954TIP3    H142277   0.835   1.779   3.023  1.0172  2.5803 -0.1651
 6954TIP3    H242278   0.762   1.840   2.905  0.4254  2.4345  0.1250
 6955TIP3   OH242279   6.511   1.559   4.299  0.4513 -0.1867  0.2541
 6955TIP3    H142280   6.429   1.532   4.258  1.3055 -0.9157 -1.0625
 6955TIP3    H242281   6.486   1.628   4.361 -1.3126 -1.3271  0.8896
 6956TIP3   OH242282   1.688   6.252  12.506 -0.2114 -0.3249  0.2456
 6956TIP3    H142283   1.661   6.306  12.432 -1.2358 -1.3338 -0.1482
 6956TIP3    H242284   1.721   6.172  12.465 -0.2945 -0.6731  0.8571
 6957TIP3   OH242285   0.833   2.566  12.723 -0.6564  0.1629  0.1941
 6957TIP3    H142286   0.829   2.568  12.627 -0.4316  0.4700  0.1898
 6957TIP3    H242287   0.851   2.474  12.744 -1.1864  0.0050 -0.0356
 6958TIP3   OH242288   6.158   2.558  16.691  0.4647  0.1543  0.1617
 6958TIP3    H142289   6.216   2.489  16.658 -0.8313 -1.6923  1.5266
 6958TIP3    H242290   6.096   2.574  16.621  0.7264 -0.1255 -0.1345
 6959TIP3   OH242291   6.141   0.178  13.691  0.0190  0.3949 -0.1956
 6959TIP3    H142292   6.128   0.224  13.608 -0.1332  3.0402  1.1917
 6959TIP3    H242293   6.225   0.133  13.681 -0.1082  0.4709 -1.8321
 6960TIP3   OH242294   5.666   2.845  11.333  0.0270  0.1406 -0.1759
 6960TIP3    H142295   5.631   2.764  11.371  0.8815  0.7303  2.0157
 6960TIP3    H242296   5.714   2.816  11.256 -1.3245 -1.1998 -0.5559
 6961TIP3   OH242297   1.479   2.973   2.641 -0.0427  0.3968 -0.4397
 6961TIP3    H142298   1.505   2.893   2.595 -1.1915  0.0305 -0.4662
 6961TIP3    H242299   1.424   3.021   2.578 -2.1019 -0.3772  0.6772
 6962TIP3   OH242300   1.515   5.214  15.808 -0.2074 -0.0312 -0.1122
 6962TIP3    H142301   1.502   5.136  15.754 -2.9327  0.8128 -0.8062
 6962TIP3    H242302   1.524   5.285  15.746  1.1391  0.4037  0.5381
 6963TIP3   OH242303   0.637   3.474   4.677 -0.0465 -1.0899 -0.2720
 6963TIP3    H142304   0.699   3.546   4.687  0.0190 -1.2249  0.3519
 6963TIP3    H242305   0.561   3.514   4.634  0.2725 -0.8112 -0.5793
 6964TIP3   OH242306   3.185   3.510   3.974  0.1572  0.0351 -0.4123
 6964TIP3    H142307   3.109   3.566   3.958  0.1737  0.0300 -0.5072
 6964TIP3    H242308   3.154   3.421   3.957 -0.5822 -0.2636  2.1284
 6965TIP3   OH242309   4.069   3.722   1.171  0.3366  0.0421  0.0818
 6965TIP3    H142310   4.154   3.706   1.211  0.0787  1.6565  1.3779
 6965TIP3    H242311   4.009   3.665   1.219  0.7139 -1.5243 -1.2084
 6966TIP3   OH242312   6.242   3.150   1.691 -0.4220 -0.1711  0.0045
 6966TIP3    H142313   6.184   3.204   1.639 -0.3345  0.4596  0.5387
 6966TIP3    H242314   6.188   3.119   1.764 -0.1526  0.2606  0.3983
 6967TIP3   OH242315   2.058   0.286   0.823 -0.5701  0.0510 -0.1824
 6967TIP3    H142316   1.979   0.336   0.846 -0.5845 -0.7013  1.5308
 6967TIP3    H242317   2.113   0.291   0.901  0.8654  0.1175 -1.1759
 6968TIP3   OH242318   6.412   0.362  11.769 -0.3301  0.8090  0.1674
 6968TIP3    H142319   6.353   0.309  11.715  1.5919 -0.5563 -0.6890
 6968TIP3    H242320   6.393   0.333  11.859 -0.1503 -0.5020 -0.1927
 6969TIP3   OH242321   2.835   5.775   1.558  0.1274  0.3982 -1.1927
 6969TIP3    H142322   2.791   5.855   1.530  0.8777  0.6577 -1.6751
 6969TIP3    H242323   2.767   5.708   1.558 -0.1676  0.6751 -2.4412
 6970TIP3   OH242324   6.360   5.276  14.571  0.2387 -0.0833 -0.2402
 6970TIP3    H142325   6.422   5.209  14.602  0.1927  0.5330  1.2948
 6970TIP3    H242326   6.275   5.246  14.602 -0.0122 -0.1050 -0.9340
 6971TIP3   OH242327   6.021   1.097   4.931  0.5441 -0.1299  0.1667
 6971TIP3    H142328   6.019   1.151   5.010  1.9685  0.3293 -0.0874
 6971TIP3    H242329   6.049   1.011   4.961 -0.1452 -0.3004  0.3357
 6972TIP3   OH242330   6.177   5.037  13.102  0.4638  0.0116  0.1338
 6972TIP3    H142331   6.221   5.048  13.018 -0.7809 -0.9894 -0.6885
 6972TIP3    H242332   6.244   5.056  13.167  2.0390 -1.2152 -1.0618
 6973TIP3   OH242333   3.554   3.093  11.530 -0.5653 -0.5114  0.4588
 6973TIP3    H142334   3.590   3.181  11.528  0.3929 -0.8981  0.3265
 6973TIP3    H242335   3.513   3.086  11.616 -0.1883 -0.1133  0.6742
 6974TIP3   OH242336   0.556   5.867   0.271 -0.4317 -0.1729 -1.1555
 6974TIP3    H142337   0.630   5.817   0.306 -0.3111 -0.8382 -2.3147
 6974TIP3    H242338   0.479   5.826   0.311 -0.2399 -0.0763 -0.6691
 6975TIP3   OH242339   3.374   5.566  12.553  0.8796  0.2160  0.0707
 6975TIP3    H142340   3.324   5.638  12.589  1.6183  0.7809 -0.0065
 6975TIP3    H242341   3.323   5.537  12.477 -0.0465 -0.1765  0.8172
 6976TIP3   OH242342   6.071   0.217  13.957  0.2456 -0.5329 -0.4149
 6976TIP3    H142343   6.119   0.184  13.881  0.9086 -1.8741  0.5349
 6976TIP3    H242344   6.116   0.177  14.032 -0.7503  0.2916  0.6443
 6977TIP3   OH242345   1.933   4.059   1.736  0.0986  0.6304  0.6128
 6977TIP3    H142346   1.849   4.015   1.720  0.5275 -0.1691  0.5169
 6977TIP3    H242347   1.910   4.151   1.746 -0.7196  0.5196 -0.0988
 6978TIP3   OH242348   6.687   0.646   5.763  0.5799  0.1646  0.3783
 6978TIP3    H142349   6.706   0.740   5.771 -0.2355  0.2948  0.9271
 6978TIP3    H242350   6.637   0.625   5.842 -1.2762 -0.2105 -0.8353
 6979TIP3   OH242351   6.610   3.782   5.322 -0.2207 -0.4604 -0.6385
 6979TIP3    H142352   6.615   3.713   5.388  0.0848  0.3797  0.2247
 6979TIP3    H242353   6.698   3.786   5.285 -0.6888 -1.7875 -2.0225
 6980TIP3   OH242354   3.290   6.543   2.281 -0.4925 -0.1185 -0.3561
 6980TIP3    H142355   3.217   6.537   2.344 -0.8649  2.7866 -0.3802
 6980TIP3    H242356   3.247   6.555   2.197 -0.0411  1.8090 -0.3477
 6981TIP3   OH242357   5.587   1.008  16.574 -0.4081  0.5510 -0.8450
 6981TIP3    H142358   5.615   0.971  16.658 -1.1285  1.3518 -0.2311
 6981TIP3    H242359   5.550   0.934  16.527  1.0682 -0.1605 -0.9582
 6982TIP3   OH242360   6.214   2.943  14.482 -0.1656 -0.2707 -0.1847
 6982TIP3    H142361   6.222   3.031  14.519 -0.2281 -1.0320  1.8055
 6982TIP3    H242362   6.210   2.956  14.388 -2.4198  2.0348  0.1072
 6983TIP3   OH242363   1.141   6.424   4.339 -0.5358  0.3408  0.6118
 6983TIP3    H142364   1.191   6.473   4.404 -1.2670  1.9100  0.0447
 6983TIP3    H242365   1.049   6.436   4.365 -0.8969  1.6184 -1.0704
 6984TIP3   OH242366   4.372   3.803  13.804 -0.5662 -0.0965  0.1421
 6984TIP3    H142367   4.429   3.767  13.737 -0.9338  0.4827 -0.4875
 6984TIP3    H242368   4.410   3.888  13.826 -0.5148 -0.2291  0.5897
 6985TIP3   OH242369   3.293   1.823  15.869 -0.0684  0.0687  0.4577
 6985TIP3    H142370   3.365   1.875  15.906 -0.2399  0.6312  0.0065
 6985TIP3    H242371   3.309   1.734  15.902  0.5694  0.2798  0.7420
 6986TIP3   OH242372   2.750   6.492   1.812  0.6305 -0.5392  0.1151
 6986TIP3    H142373   2.742   6.413   1.865  0.9268 -0.3157  0.5005
 6986TIP3    H242374   2.660   6.513   1.787  0.4581 -0.5043  0.7452
 6987TIP3   OH242375   5.504   5.968   2.702 -0.1999 -0.3537 -0.0828
 6987TIP3    H142376   5.433   6.027   2.676 -0.5356  0.1852  1.8749
 6987TIP3    H242377   5.535   6.002   2.786  0.3634 -2.3079  0.5779
 6988TIP3   OH242378   3.424   3.029   2.487  0.1940 -0.0552  0.4288
 6988TIP3    H142379   3.449   2.942   2.457 -1.6309 -0.5779  0.3629
 6988TIP3    H242380   3.496   3.086   2.458  2.1446 -1.7194  1.7162
 6989TIP3   OH242381   4.077   0.286  14.776 -0.3690 -0.5636  0.4303
 6989TIP3    H142382   4.162   0.244  14.760 -0.7678 -0.9894 -0.7112
 6989TIP3    H242383   4.019   0.245  14.712 -0.3909  2.9710 -2.1126
 6990TIP3   OH242384   5.596   4.796   3.079  0.3651  0.3083  0.1115
 6990TIP3    H142385   5.664   4.730   3.070  0.7896  0.7423  0.1170
 6990TIP3    H242386   5.567   4.788   3.170  0.8666  0.5582  0.2976
 6991TIP3   OH242387   3.379   0.079  13.367  0.0279 -0.3360 -0.0762
 6991TIP3    H142388   3.335   0.155  13.329 -0.2737 -0.8639 -0.8129
 6991TIP3    H242389   3.311   0.037  13.421  0.8452  1.2338  2.3715
 6992TIP3   OH242390   5.449   1.899   3.036 -0.1172  0.0072  0.1175
 6992TIP3    H142391   5.410   1.819   3.070  1.6988 -1.5396 -1.1434
 6992TIP3    H242392   5.543   1.881   3.035  0.2524  1.6526 -1.4068
 6993TIP3   OH242393   5.994   5.251   0.110  0.3381 -0.1835 -0.2214
 6993TIP3    H142394   5.914   5.238   0.162  1.1501 -1.2241  0.8120
 6993TIP3    H242395   6.013   5.344   0.118 -0.7658  0.0785 -0.4820
 6994TIP3   OH242396   5.299   4.082   5.391  0.4309 -0.4746  0.3189
 6994TIP3    H142397   5.255   4.106   5.309  2.0461 -0.8418 -0.7064
 6994TIP3    H242398   5.229   4.045   5.446 -0.5872 -0.8207 -1.1457
 6995TIP3   OH242399   1.782   3.882   3.212 -0.0828  0.4360  0.0551
 6995TIP3    H142400   1.874   3.900   3.231 -0.4123  2.3238  0.0714
 6995TIP3    H242401   1.734   3.952   3.256 -1.4575  0.0331 -0.7264
 6996TIP3   OH242402   0.281   3.189  14.397 -0.1358 -0.4001  0.1100
 6996TIP3    H142403   0.350   3.204  14.334 -0.8215  0.8928 -0.3795
 6996TIP3    H242404   0.246   3.102  14.376  0.2887 -0.3888 -0.6472
 6997TIP3   OH242405   6.474   4.841  10.772 -0.4999  0.0898 -0.2009
 6997TIP3    H142406   6.496   4.751  10.747 -0.2886  0.0909 -0.0328
 6997TIP3    H242407   6.384   4.853  10.743 -1.3641 -0.9569  1.7720
 6998TIP3   OH242408   3.952   5.889   2.042 -0.0508 -0.1684 -0.2591
 6998TIP3    H142409   3.914   5.802   2.030  0.2685 -0.4897  0.9017
 6998TIP3    H242410   4.025   5.891   1.980 -0.6724 -0.3281 -1.0212
 6999TIP3   OH242411   5.020   5.320   3.629  0.1926  0.1518  0.0335
 6999TIP3    H142412   5.098   5.301   3.577 -1.5188 -3.7679 -1.4972
 6999TIP3    H242413   4.949   5.322   3.565 -1.5057 -0.9919  1.7966
 7000TIP3   OH242414   5.880   2.781   3.603 -0.5479 -0.3412  0.6308
 7000TIP3    H142415   5.801   2.729   3.590 -0.1514 -1.1549  1.3851
 7000TIP3    H242416   5.940   2.751   3.535 -0.7374 -0.0121  0.3149
 7001TIP3   OH242417   5.807   3.616   3.196  0.0466  0.2107  0.7371
 7001TIP3    H142418   5.888   3.585   3.237 -0.0428 -0.2296  0.5782
 7001TIP3    H242419   5.747   3.541   3.201 -0.2305  0.4172  0.5220
 7002TIP3   OH242420   3.763   2.618  13.889  0.6813  0.1532  0.1151
 7002TIP3    H142421   3.748   2.641  13.981  0.1636 -0.7833  0.2688
 7002TIP3    H242422   3.824   2.545  13.892  2.4142  1.4925 -0.3827
 7003TIP3   OH242423   6.721   6.130   3.848  0.2007  0.4204 -0.2745
 7003TIP3    H142424   6.788   6.086   3.899  0.0679 -0.4621 -0.8434
 7003TIP3    H242425   6.698   6.068   3.779 -0.3117  1.2034 -0.8306
 7004TIP3   OH242426   1.156   2.226  13.501 -0.5728  0.2385 -0.5662
 7004TIP3    H142427   1.211   2.273  13.439  0.6292  1.7805  1.5235
 7004TIP3    H242428   1.096   2.292  13.535 -0.5763 -0.3327  0.5827
 7005TIP3   OH242429   5.447   4.767  11.098  0.0211 -0.4886 -0.1605
 7005TIP3    H142430   5.507   4.724  11.158  0.5203 -0.9522 -0.9861
 7005TIP3    H242431   5.466   4.861  11.108  0.0651 -0.5579  0.4294
 7006TIP3   OH242432   4.028   4.299  15.774 -0.0538 -0.3944 -0.2638
 7006TIP3    H142433   3.944   4.342  15.786  0.1043 -0.1951  0.1755
 7006TIP3    H242434   4.018   4.245  15.696 -0.1477  0.7220 -1.0416
 7007TIP3   OH242435   4.507   1.934   2.945 -0.2571 -0.7122  0.2294
 7007TIP3    H142436   4.505   2.018   2.901  0.8085 -0.1094  1.2569
 7007TIP3    H242437   4.546   1.953   3.031 -2.2631 -1.8081  1.4621
 7008TIP3   OH242438   5.136   4.485  15.566 -0.0629  0.5571 -0.3851
 7008TIP3    H142439   5.174   4.398  15.582 -0.9377 -0.1339 -1.8510
 7008TIP3    H242440   5.205   4.533  15.521  0.3710  0.5729  0.2893
 7009TIP3   OH242441   0.296   3.594   0.722  0.0668  0.2707 -0.0091
 7009TIP3    H142442   0.259   3.669   0.766  0.3269  0.5788 -0.3057
 7009TIP3    H242443   0.313   3.530   0.791 -1.3018 -0.0058  0.0896
 7010TIP3   OH242444   0.854   0.900   5.991  0.0720  0.1410  0.2065
 7010TIP3    H142445   0.870   0.985   6.031 -2.0764  0.6656  0.0539
 7010TIP3    H242446   0.886   0.910   5.901  0.0459  0.7165  0.2557
 7011TIP3   OH242447   4.558   4.745   6.479  0.2309  0.0445 -0.1518
 7011TIP3    H142448   4.561   4.806   6.405  2.2536  1.8204  1.2668
 7011TIP3    H242449   4.484   4.688   6.460  0.4717  0.6116 -3.3748
 7012TIP3   OH242450   6.090   3.929  11.065 -0.2913  0.2645  0.0425
 7012TIP3    H142451   6.039   3.935  10.984 -1.0995  0.8509  0.5793
 7012TIP3    H242452   6.162   3.991  11.053  1.0506 -1.4383 -1.2113
 7013TIP3   OH242453   0.190   6.399   4.710  0.2572 -0.5693 -0.1419
 7013TIP3    H142454   0.217   6.489   4.689 -0.6228 -0.2482  0.0876
 7013TIP3    H242455   0.128   6.408   4.782 -1.9784 -1.0940 -1.8764
 7014TIP3   OH242456   6.473   0.269  15.696  0.6975  0.0030 -0.1852
 7014TIP3    H142457   6.465   0.283  15.790 -1.6077  1.0179 -0.4743
 7014TIP3    H242458   6.548   0.324  15.670 -0.7152  2.4529  0.5978
 7015TIP3   OH242459   5.016   4.218   1.624  0.1386  0.1613  0.6577
 7015TIP3    H142460   4.960   4.251   1.696  0.8462 -1.5543  2.0582
 7015TIP3    H242461   4.995   4.125   1.619 -0.3452  0.3536 -1.8484
 7016TIP3   OH242462   2.784   4.398  13.202 -0.3047 -0.9717  0.0341
 7016TIP3    H142463   2.725   4.432  13.134 -1.2695  0.3637  1.4444
 7016TIP3    H242464   2.868   4.387  13.158 -0.7002  0.5644 -1.2148
 7017TIP3   OH242465   5.997   1.684   3.942  0.0505  0.4406  0.2033
 7017TIP3    H142466   6.018   1.751   4.007  1.4431 -1.4514  1.8212
 7017TIP3    H242467   6.081   1.648   3.916 -0.6834 -1.6712  0.5328
 7018TIP3   OH242468   2.566   1.326   0.903  0.1141  0.3127 -0.2643
 7018TIP3    H142469   2.499   1.362   0.961 -0.0989 -0.5230  0.0210
 7018TIP3    H242470   2.634   1.292   0.963 -0.9391 -2.2056 -0.3746
 7019TIP3   OH242471   4.027   5.643   0.142 -0.5456 -0.1778 -0.0848
 7019TIP3    H142472   4.054   5.695   0.217 -2.4060  0.4946  0.1797
 7019TIP3    H242473   4.052   5.696   0.066  0.7711 -0.5700  0.0549
 7020TIP3   OH242474   3.061   4.914   1.471 -0.5462  0.2064 -0.6142
 7020TIP3    H142475   3.156   4.927   1.471 -0.7040  1.4519 -0.2977
 7020TIP3    H242476   3.044   4.863   1.550 -0.5760  3.8608  1.9924
 7021TIP3   OH242477   3.920   3.651  15.840 -0.7780  0.4931  0.1898
 7021TIP3    H142478   3.898   3.557  15.843  0.8007  0.1033  0.7720
 7021TIP3    H242479   4.011   3.654  15.869 -1.0300  2.2942  0.8735
 7022TIP3   OH242480   6.577   4.326  11.267  0.1992  0.7620  0.7359
 7022TIP3    H142481   6.590   4.329  11.362  0.5110  0.1468  0.7182
 7022TIP3    H242482   6.632   4.396  11.232  0.7174  0.4649  0.9487
 7023TIP3   OH242483   3.517   2.155  11.875  0.0769 -0.5138 -0.0891
 7023TIP3    H142484   3.436   2.185  11.835  0.8216 -0.1827 -1.4193
 7023TIP3    H242485   3.566   2.235  11.893 -0.0170 -0.6932  1.0226
 7024TIP3   OH242486   1.647   2.324   0.059 -0.4352  0.4790  0.1486
 7024TIP3    H142487   1.679   2.245   0.103 -0.3831 -0.5352 -1.6365
 7024TIP3    H242488   1.583   2.360   0.120 -0.0439 -0.6232  1.2594
 7025TIP3   OH242489   3.940   3.997   1.627 -0.8935  0.0047  0.9412
 7025TIP3    H142490   3.984   4.009   1.543 -0.3912 -2.2608  0.8227
 7025TIP3    H242491   4.011   3.974   1.687 -1.4812 -0.1573  1.5828
 7026TIP3   OH242492   6.495   1.345   2.391 -0.6966 -0.7002 -0.3111
 7026TIP3    H142493   6.478   1.438   2.410  0.1969 -0.6004  0.0587
 7026TIP3    H242494   6.449   1.298   2.461  1.5712 -0.3760  1.5051
 7027TIP3   OH242495   0.010   2.853  16.771 -1.0064  0.1090  0.0493
 7027TIP3    H142496  -0.075   2.838  16.814 -0.8537 -1.8429 -0.2708
 7027TIP3    H242497   0.056   2.912  16.830 -1.9462 -0.1557  1.0856
 7028TIP3   OH242498   0.102   0.575   3.079  0.1466  0.2976 -0.0499
 7028TIP3    H142499   0.125   0.666   3.064 -0.7360  0.2943 -1.6465
 7028TIP3    H242500   0.006   0.573   3.071  0.2978 -1.1159 -2.3961
 7029TIP3   OH242501   2.881   4.134  15.708 -0.1849 -0.3651  0.6325
 7029TIP3    H142502   2.887   4.038  15.703  0.9335 -0.3409  1.2083
 7029TIP3    H242503   2.963   4.165  15.669 -0.8717  0.3989 -0.2589
 7030TIP3   OH242504   4.193   1.109   1.900  0.0340 -0.3697  0.1017
 7030TIP3    H142505   4.229   1.183   1.949  0.6961  0.6892 -1.8871
 7030TIP3    H242506   4.214   1.032   1.954  1.1979  0.6734  1.2084
 7031TIP3   OH242507   5.275   0.503  12.416  0.1697 -0.0166  0.2327
 7031TIP3    H142508   5.274   0.515  12.321  0.8568  1.0996  0.3488
 7031TIP3    H242509   5.276   0.408  12.428 -0.9218 -0.1822 -0.8470
 7032TIP3   OH242510   1.607   3.928  15.082  0.3006  0.0974 -0.4314
 7032TIP3    H142511   1.658   3.971  15.150 -0.6520  2.3278 -1.0607
 7032TIP3    H242512   1.601   3.837  15.111  3.4872  0.0139  0.2915
 7033TIP3   OH242513   3.223   0.380   2.270 -0.7683 -0.3161  0.0935
 7033TIP3    H142514   3.241   0.473   2.287 -0.7840 -0.2143 -0.4229
 7033TIP3    H242515   3.280   0.333   2.331 -0.5687  0.0304  0.1793
 7034TIP3   OH242516   4.024   3.156   2.997  0.0736  0.1517 -0.1187
 7034TIP3    H142517   3.961   3.200   2.940  0.9808 -1.0805 -2.1653
 7034TIP3    H242518   3.970   3.121   3.069 -1.7556 -1.4921 -2.1617
 7035TIP3   OH242519   1.774   5.728   3.424  0.2718  0.0794 -0.3569
 7035TIP3    H142520   1.744   5.798   3.365  0.8008  0.4483 -0.1938
 7035TIP3    H242521   1.869   5.733   3.420  0.3097 -0.1818  0.1900
 7036TIP3   OH242522   1.136   3.678   1.107  0.0796 -0.0509 -0.3282
 7036TIP3    H142523   1.160   3.637   1.190  0.2055  3.6926  1.6970
 7036TIP3    H242524   1.040   3.669   1.102 -0.1892  1.3251  1.3186
 7037TIP3   OH242525   0.528   6.596   1.840 -0.3745  0.2173  0.2102
 7037TIP3    H142526   0.547   6.649   1.918 -0.7937  1.4728 -0.5142
 7037TIP3    H242527   0.604   6.609   1.784 -0.0542 -0.7224  0.4115
 7038TIP3   OH242528   5.933   0.874   4.579 -0.0355  0.1990 -0.3266
 7038TIP3    H142529   5.896   0.958   4.607  1.1899  0.7868 -0.3958
 7038TIP3    H242530   5.986   0.845   4.653 -0.2076 -0.3685 -0.4228
 7039TIP3   OH242531   6.502   3.187  11.284 -0.3348 -0.3606  0.3217
 7039TIP3    H142532   6.450   3.108  11.268  0.3947 -0.7878  0.0118
 7039TIP3    H242533   6.440   3.259  11.274 -1.1492 -0.9098  1.1815
 7040TIP3   OH242534   0.468   1.393  14.848  0.6996  0.2126  0.1230
 7040TIP3    H142535   0.521   1.322  14.886  2.6903  1.4557 -0.1836
 7040TIP3    H242536   0.391   1.397  14.904  1.5996 -0.7204  1.5131
 7041TIP3   OH242537   4.453   0.147   0.507 -0.3995  0.5108  0.1632
 7041TIP3    H142538   4.361   0.161   0.487 -0.4019 -0.0276 -0.2145
 7041TIP3    H242539   4.453   0.106   0.594 -0.4248  2.1122  0.9473
 7042TIP3   OH242540   0.273   6.195  15.423 -0.2820 -0.6244  0.2639
 7042TIP3    H142541   0.310   6.163  15.341 -0.0797  1.0198 -0.3228
 7042TIP3    H242542   0.196   6.244  15.397 -0.7256 -0.8310  1.1505
 7043TIP3   OH242543   4.584   0.701  11.865 -0.0114  0.2404  0.1714
 7043TIP3    H142544   4.559   0.716  11.774  1.4613  1.6297 -0.0545
 7043TIP3    H242545   4.535   0.766  11.916 -0.3185 -0.0839  0.2943
 7044TIP3   OH242546   5.728   5.745   4.982 -0.7150 -0.1858  0.2805
 7044TIP3    H142547   5.665   5.688   4.938 -0.5347 -0.1144 -0.0738
 7044TIP3    H242548   5.796   5.761   4.916 -0.7379  0.3965  0.3967
 7045TIP3   OH242549   1.972   3.193  13.519 -0.4874  0.1660 -0.1336
 7045TIP3    H142550   1.956   3.253  13.446  0.7555  0.4753 -0.1817
 7045TIP3    H242551   1.956   3.246  13.597  1.2521  0.8318 -0.1599
 7046TIP3   OH242552   0.551   0.573  16.583 -0.3205  0.6212 -0.1320
 7046TIP3    H142553   0.578   0.524  16.505 -0.2326 -0.1123  0.3447
 7046TIP3    H242554   0.487   0.516  16.625  0.9636  0.1822  1.2928
 7047TIP3   OH242555   2.681   0.978   4.578 -0.5557  0.3207  0.5571
 7047TIP3    H142556   2.697   1.068   4.605 -1.0892  0.4524  0.4462
 7047TIP3    H242557   2.594   0.980   4.537 -0.6406 -0.2680  0.6941
 7048TIP3   OH242558   4.210   1.146  12.039  0.0160 -0.1471 -0.6064
 7048TIP3    H142559   4.171   1.062  12.012  0.9863 -0.7576 -0.1599
 7048TIP3    H242560   4.142   1.210  12.021 -2.4369 -1.4691  2.8664
 7049TIP3   OH242561   5.032   5.428  15.881 -0.2434 -0.0003 -0.4589
 7049TIP3    H142562   4.959   5.409  15.940  1.5780 -1.7935  1.3863
 7049TIP3    H242563   5.034   5.353  15.821 -0.7118  0.7133 -1.3826
 7050TIP3   OH242564   2.596   0.129  16.083  0.0814  0.2071  0.1345
 7050TIP3    H142565   2.608   0.147  16.176 -1.0203  0.6814  0.2070
 7050TIP3    H242566   2.501   0.119  16.073  0.0781  1.3310 -1.1405
 7051TIP3   OH242567   6.547   5.361   4.632 -0.1258 -0.6233 -0.7694
 7051TIP3    H142568   6.551   5.380   4.725 -0.9878  0.7347 -0.9814
 7051TIP3    H242569   6.639   5.350   4.606  0.3087  1.1920 -0.1665
 7052TIP3   OH242570   4.706   5.987   1.728  0.1717 -0.2048 -0.2942
 7052TIP3    H142571   4.640   5.949   1.669  1.7913 -0.3147 -2.1123
 7052TIP3    H242572   4.772   6.024   1.670  1.3073  0.6768  1.4758
 7053TIP3   OH242573   0.609   3.866   3.376 -0.4166 -0.1681 -0.6916
 7053TIP3    H142574   0.679   3.908   3.327  0.4027  1.0322  1.3630
 7053TIP3    H242575   0.635   3.775   3.384  1.4259  0.4249  0.7786
 7054TIP3   OH242576   5.967   0.545   2.218 -0.4234  0.0830  0.0667
 7054TIP3    H142577   5.876   0.516   2.224  0.6793 -3.8560  0.5123
 7054TIP3    H242578   6.016   0.483   2.272  2.6005  1.7639 -0.5123
 7055TIP3   OH242579   2.109   6.275   0.524 -0.2087  0.1342 -0.1978
 7055TIP3    H142580   2.143   6.364   0.520 -2.2140  0.9237 -0.5787
 7055TIP3    H242581   2.167   6.224   0.467  0.2201  1.4479 -0.9657
 7056TIP3   OH242582   6.610   3.931  16.245  0.0860  0.2582  0.2753
 7056TIP3    H142583   6.644   4.020  16.252 -1.5562  0.8220  2.1230
 7056TIP3    H242584   6.515   3.943  16.233 -0.1738 -1.2374  0.6390
 7057TIP3   OH242585   4.555   6.544  11.457  0.7309 -0.2101 -0.3138
 7057TIP3    H142586   4.538   6.573  11.547 -0.1294 -0.3246 -0.4294
 7057TIP3    H242587   4.479   6.489  11.435  1.2816 -0.7717 -0.8570
 7058TIP3   OH242588   0.829   5.582   2.708  0.1966 -0.0549 -0.2440
 7058TIP3    H142589   0.852   5.508   2.652 -2.3612  0.9261 -2.8597
 7058TIP3    H242590   0.791   5.543   2.786  1.4106 -1.4484 -0.3013
 7059TIP3   OH242591   5.657   1.242  12.458  0.0587  0.0624  0.0001
 7059TIP3    H142592   5.736   1.215  12.505  0.0403 -1.2643 -0.7001
 7059TIP3    H242593   5.585   1.217  12.516  0.0043 -2.1627 -0.9406
 7060TIP3   OH242594   1.830   1.000  13.484 -0.2889  0.2181  0.0456
 7060TIP3    H142595   1.773   1.018  13.558 -1.6937  0.2231 -0.9804
 7060TIP3    H242596   1.804   0.913  13.454 -0.3187  0.5379 -0.9073
 7061TIP3   OH242597   0.907   5.638   4.808  0.0696 -0.3499 -0.0880
 7061TIP3    H142598   0.934   5.689   4.731  0.0718 -1.3728 -0.7858
 7061TIP3    H242599   0.822   5.674   4.833 -0.8423 -1.2223 -1.7531
 7062TIP3   OH242600   3.951   5.489  12.916  0.0594 -0.5703  0.2134
 7062TIP3    H142601   3.938   5.514  13.007  0.8804 -0.7226  0.3767
 7062TIP3    H242602   4.041   5.513  12.897  0.1512 -1.2942 -0.3111
 7063TIP3   OH242603   1.407   4.296  11.252  0.4996  0.4578 -0.1852
 7063TIP3    H142604   1.312   4.303  11.265  0.7737  0.8275  2.0816
 7063TIP3    H242605   1.425   4.350  11.175 -1.2062 -0.3498 -1.2237
 7064TIP3   OH242606   2.479   1.400   6.273 -0.1735  0.4994 -0.2944
 7064TIP3    H142607   2.536   1.356   6.336 -0.1819  2.7775  1.4075
 7064TIP3    H242608   2.390   1.375   6.300 -0.2645  2.6017  1.6423
 7065TIP3   OH242609   6.402   5.361   2.216 -0.3598  0.3962 -0.3599
 7065TIP3    H142610   6.383   5.397   2.130  1.9494 -1.8434 -1.9490
 7065TIP3    H242611   6.494   5.383   2.232  0.2370 -2.0491 -0.0442
 7066TIP3   OH242612   4.557   6.284  17.127  0.0391 -0.1136 -0.7272
 7066TIP3    H142613   4.612   6.338  17.184 -0.6724  0.1820 -0.3040
 7066TIP3    H242614   4.587   6.195  17.142 -0.7208 -0.1337  0.7910
 7067TIP3   OH242615   0.857   0.816   0.047  0.0401 -0.4470 -0.7437
 7067TIP3    H142616   0.781   0.862   0.082 -0.4059 -2.0823  0.5635
 7067TIP3    H242617   0.860   0.841  -0.046 -1.3054  0.6578 -0.5131
 7068TIP3   OH242618   5.327   3.993   2.781  0.0624 -0.6778  0.1120
 7068TIP3    H142619   5.373   3.981   2.698  0.0805  1.1910 -0.2024
 7068TIP3    H242620   5.275   3.914   2.791  1.1801 -1.6023 -0.9290
 7069TIP3   OH242621   4.022   4.985   5.821 -0.0843 -0.1706  0.2231
 7069TIP3    H142622   4.042   4.978   5.915  0.4678 -0.5241  0.0840
 7069TIP3    H242623   4.099   4.950   5.777 -0.5062 -0.3894 -0.3630
 7070TIP3   OH242624   3.528   0.361  16.064  0.1705 -0.4060 -0.3686
 7070TIP3    H142625   3.516   0.455  16.082 -0.4103 -0.1007 -2.1575
 7070TIP3    H242626   3.491   0.317  16.141  1.4044  0.8251  0.9862
 7071TIP3   OH242627   2.222   1.031   6.317  0.4213  0.6398 -1.2143
 7071TIP3    H142628   2.302   1.029   6.264  0.5022  0.1424 -1.0714
 7071TIP3    H242629   2.202   0.940   6.335 -0.2744  0.7496 -1.3833
 7072TIP3   OH242630   2.465   0.101  12.158  0.2324  0.1382 -0.0740
 7072TIP3    H142631   2.542   0.158  12.165  1.9685 -1.8535 -1.4870
 7072TIP3    H242632   2.425   0.126  12.074 -0.7026  1.1305  0.6310
 7073TIP3   OH242633   3.383   0.340  11.501 -0.0649  0.0081 -0.3889
 7073TIP3    H142634   3.470   0.322  11.464  0.1248  2.1589 -1.1200
 7073TIP3    H242635   3.351   0.254  11.530  2.8069 -0.6940  1.0747
 7074TIP3   OH242636   2.678   6.710  15.215  0.3489 -0.3579  0.0645
 7074TIP3    H142637   2.721   6.685  15.134  2.6045  2.5621  0.1998
 7074TIP3    H242638   2.696   6.637  15.275  2.9386 -0.4670 -0.7017
 7075TIP3   OH242639   6.639   3.525  17.304 -0.2073 -0.2664  0.2162
 7075TIP3    H142640   6.579   3.524  17.378  1.6766 -2.9912  1.8966
 7075TIP3    H242641   6.706   3.589  17.328  0.0190 -0.6276  0.5693
 7076TIP3   OH242642   6.205   6.064  13.857  0.1187  0.3877 -0.0147
 7076TIP3    H142643   6.202   6.001  13.929 -0.0124  0.0576 -0.3029
 7076TIP3    H242644   6.188   6.011  13.779  0.1239  0.7642 -0.2723
 7077TIP3   OH242645   6.190   0.013  14.645 -0.0354 -0.2948 -0.7679
 7077TIP3    H142646   6.104  -0.003  14.607 -0.5525  1.1112 -0.2671
 7077TIP3    H242647   6.241  -0.065  14.625 -1.5006 -1.2546 -0.8692
 7078TIP3   OH242648   0.796   4.976   6.356 -0.1008  0.0371 -0.1015
 7078TIP3    H142649   0.775   4.885   6.376 -0.5067 -0.0569 -0.8876
 7078TIP3    H242650   0.865   5.000   6.417 -0.7785 -0.4408  0.8678
 7079TIP3   OH242651   5.594   5.223   2.007  0.0956 -0.2774  0.3934
 7079TIP3    H142652   5.589   5.298   2.066  0.8020  0.7248 -0.7869
 7079TIP3    H242653   5.528   5.162   2.041  0.3536  0.3331  2.0996
 7080TIP3   OH242654   3.887   1.988  16.729 -0.0994 -0.2882  0.2975
 7080TIP3    H142655   3.895   1.910  16.674  0.5641  1.6849 -2.6516
 7080TIP3    H242656   3.959   1.980  16.791 -0.1223 -2.0641  0.1451
 7081TIP3   OH242657   2.399   2.212  15.527  0.2139  0.2886  0.1310
 7081TIP3    H142658   2.415   2.129  15.573 -0.4667 -0.6074 -1.1909
 7081TIP3    H242659   2.442   2.201  15.442 -1.1191  0.6998 -0.6291
 7082TIP3   OH242660   2.928   2.271  16.223 -0.2798 -0.5736 -0.1903
 7082TIP3    H142661   2.979   2.350  16.207  0.0731 -0.1687  2.4310
 7082TIP3    H242662   2.841   2.302  16.246 -0.5788 -1.0281 -0.7038
 7083TIP3   OH242663   2.645   1.972   2.753  0.0782 -0.1829  0.3912
 7083TIP3    H142664   2.571   1.994   2.811  0.6449 -1.3105  1.5814
 7083TIP3    H242665   2.707   1.927   2.810  0.5857 -1.4847 -1.1481
 7084TIP3   OH242666   1.167   4.521  11.307 -0.1454 -0.0019 -0.1162
 7084TIP3    H142667   1.117   4.460  11.252 -0.3560  0.1335 -0.0781
 7084TIP3    H242668   1.169   4.480  11.393  0.6301 -0.4631 -0.3431
 7085TIP3   OH242669   0.672   4.618  10.845  0.7094  0.2268  0.3119
 7085TIP3    H142670   0.755   4.640  10.888  0.1881  1.3299  0.7762
 7085TIP3    H242671   0.608   4.616  10.916  0.4969 -1.6870  0.1295
 7086TIP3   OH242672   0.717   4.782  15.541 -0.2894  0.2176 -0.2662
 7086TIP3    H142673   0.811   4.790  15.558 -0.6033  1.0229  1.3144
 7086TIP3    H242674   0.696   4.691  15.564  0.3353 -0.4678 -2.1610
 7087TIP3   OH242675   2.228   3.863  16.659  0.0469  0.0280 -0.0583
 7087TIP3    H142676   2.297   3.808  16.624  1.3465  1.1544  0.6537
 7087TIP3    H242677   2.193   3.910  16.583  1.6986  1.2016 -0.1426
 7088TIP3   OH242678   5.115   0.752   0.068 -0.2255  0.2604 -0.1445
 7088TIP3    H142679   5.164   0.834   0.060 -0.2131  0.6778  3.0367
 7088TIP3    H242680   5.179   0.684   0.046  0.2485  0.9779 -1.1266
 7089TIP3   OH242681   6.513   5.558  13.465 -1.1652  0.1539  0.0117
 7089TIP3    H142682   6.539   5.539  13.555 -1.0715 -1.4266 -0.3113
 7089TIP3    H242683   6.588   5.530  13.412 -1.9311 -0.7107 -0.6665
 7090TIP3   OH242684   6.737   2.009   1.264  0.5118 -0.3772 -0.2205
 7090TIP3    H142685   6.695   2.086   1.303  0.3242 -1.0148  0.9103
 7090TIP3    H242686   6.772   1.961   1.340 -0.3330 -1.9538 -0.7902
 7091TIP3   OH242687   0.582   3.980   0.881 -0.5577 -0.3116 -0.2932
 7091TIP3    H142688   0.569   3.994   0.975  0.2761 -1.5582  0.0234
 7091TIP3    H242689   0.660   3.924   0.875 -0.2564  0.2237 -1.7565
 7092TIP3   OH242690   2.664   2.670   4.497  0.5278 -0.3314 -0.4881
 7092TIP3    H142691   2.662   2.584   4.539 -0.1531 -0.0497  0.0715
 7092TIP3    H242692   2.755   2.682   4.470  0.8644 -0.7443  0.4552
 7093TIP3   OH242693   1.921   0.472   3.012  0.2687  0.1181  0.4031
 7093TIP3    H142694   1.985   0.401   3.016  0.0528 -0.0185  2.0567
 7093TIP3    H242695   1.973   0.551   3.027  0.2919  0.1861 -0.0106
 7094TIP3   OH242696   2.148   0.387   5.655  0.2048  0.0009  0.1415
 7094TIP3    H142697   2.103   0.305   5.676  0.7020 -0.5774 -0.9226
 7094TIP3    H242698   2.119   0.449   5.722 -0.9679 -0.7674  0.3831
 7095TIP3   OH242699   2.940   0.614  13.602 -0.8707 -0.1698 -0.6047
 7095TIP3    H142700   3.002   0.544  13.623 -1.7326 -1.8164 -3.1130
 7095TIP3    H242701   2.954   0.680  13.670  1.8370 -1.5890  0.3476
 7096TIP3   OH242702   0.674   3.347   6.712  0.5045 -0.1966  0.2900
 7096TIP3    H142703   0.751   3.367   6.765  2.1235  0.6763 -2.2007
 7096TIP3    H242704   0.693   3.261   6.674 -0.0336 -0.2599  0.1591
 7097TIP3   OH242705   3.142   5.303  15.384 -0.0332 -0.1623 -0.1123
 7097TIP3    H142706   3.127   5.397  15.395 -0.0401  0.2374 -2.7632
 7097TIP3    H242707   3.181   5.275  15.466  0.5745  2.2991  0.5231
 7098TIP3   OH242708   2.437   2.910   1.165 -0.0848 -0.0370 -0.4079
 7098TIP3    H142709   2.458   2.933   1.256 -0.0157 -1.6280  0.0050
 7098TIP3    H242710   2.370   2.843   1.172  0.8109 -1.0899 -1.4802
 7099TIP3   OH242711   0.110   0.609  14.594  0.1840  0.6681 -0.4740
 7099TIP3    H142712   0.074   0.521  14.585  1.2632 -0.0198  1.3427
 7099TIP3    H242713   0.120   0.640  14.504 -1.8492 -0.3457 -1.1242
 7100TIP3   OH242714   4.609   5.652  17.257 -0.2397  0.3753 -0.5045
 7100TIP3    H142715   4.564   5.732  17.285 -1.5208 -1.5695  3.7302
 7100TIP3    H242716   4.541   5.599  17.215 -0.8635 -0.6329  1.6578
 7101TIP3   OH242717   2.030   4.021   5.757  0.2833 -0.7197  0.2763
 7101TIP3    H142718   2.001   3.937   5.722 -0.3395 -0.4970  0.2559
 7101TIP3    H242719   2.019   4.012   5.852  0.4087 -0.7284  0.2907
 7102TIP3   OH242720   5.987   3.502   2.914 -0.1358  0.2799  0.3674
 7102TIP3    H142721   5.934   3.561   2.968  0.9085 -0.3860  2.1973
 7102TIP3    H242722   6.077   3.532   2.926  0.1078  0.3548 -1.3743
 7103TIP3   OH242723   0.529   6.325   4.459 -0.0282 -0.6087  0.7420
 7103TIP3    H142724   0.474   6.395   4.496 -0.2178 -1.1107  1.4287
 7103TIP3    H242725   0.562   6.362   4.377  1.4218  1.0098  1.9912
 7104TIP3   OH242726   0.099   3.356   3.699  0.1947 -0.2859 -0.9052
 7104TIP3    H142727   0.051   3.274   3.694 -1.7444  0.8436 -1.9508
 7104TIP3    H242728   0.105   3.387   3.609 -0.5892  1.4918 -0.4026
 7105TIP3   OH242729   2.819   4.783   4.705  0.2586  0.2224  0.5120
 7105TIP3    H142730   2.849   4.848   4.641 -0.0394  0.3325  0.4801
 7105TIP3    H242731   2.747   4.739   4.660 -0.3762  0.7365  1.0096
 7106TIP3   OH242732   4.394   2.322   6.098 -0.3067 -0.5242  0.0814
 7106TIP3    H142733   4.485   2.348   6.111 -0.1445 -1.3760  0.8161
 7106TIP3    H242734   4.360   2.310   6.187 -1.5106  0.9484 -0.1385
 7107TIP3   OH242735   5.827   0.653  16.874 -0.3675 -0.2315 -0.1307
 7107TIP3    H142736   5.834   0.593  16.949  2.5466 -2.1168 -1.7480
 7107TIP3    H242737   5.757   0.616  16.820  1.0037 -1.9666 -0.8148
 7108TIP3   OH242738   3.555   5.726   3.066 -0.1982  0.0496 -0.1188
 7108TIP3    H142739   3.593   5.697   3.148 -1.3537 -1.1766  0.0315
 7108TIP3    H242740   3.534   5.818   3.079  0.6960  0.1654  0.5328
 7109TIP3   OH242741   1.995   3.669  13.192  0.0362  1.0206 -0.0831
 7109TIP3    H142742   1.977   3.577  13.175  1.0545  0.8795 -0.4699
 7109TIP3    H242743   2.089   3.673  13.208 -0.1173  1.8814  0.7412
 7110TIP3   OH242744   4.995   4.799  15.292 -0.0129  0.4661 -0.3411
 7110TIP3    H142745   4.910   4.774  15.328  1.0117 -1.7187  0.7341
 7110TIP3    H242746   5.052   4.808  15.369  1.7135 -2.2561 -1.1467
 7111TIP3   OH242747   1.379   2.775  15.725  0.5388 -0.7228 -0.3642
 7111TIP3    H142748   1.285   2.775  15.705  0.0361  1.6591  1.6081
 7111TIP3    H242749   1.420   2.807  15.645 -0.3727 -1.1526 -1.0236
 7112TIP3   OH242750   2.056   4.455   3.935 -0.1452  0.1293  0.4149
 7112TIP3    H142751   2.126   4.419   3.990 -0.2216 -1.0213 -0.2225
 7112TIP3    H242752   2.092   4.538   3.903  0.6638 -0.1281  0.6358
 7113TIP3   OH242753   0.850   3.651   0.702 -0.8052 -0.2420  0.0227
 7113TIP3    H142754   0.763   3.613   0.695 -0.2652 -1.4201 -0.6374
 7113TIP3    H242755   0.902   3.585   0.747 -0.1084  0.1952 -0.1234
 7114TIP3   OH242756   1.771   6.278   0.720 -0.0765 -0.6248  0.1735
 7114TIP3    H142757   1.695   6.225   0.696  1.3888 -2.0938 -1.4836
 7114TIP3    H242758   1.775   6.346   0.654  1.4245 -2.0581 -1.3148
 7115TIP3   OH242759   5.731   5.357   3.833 -0.0181  0.0888  0.1173
 7115TIP3    H142760   5.802   5.379   3.894 -0.8246 -0.0272  1.1179
 7115TIP3    H242761   5.766   5.379   3.747  1.6755 -1.0057  0.4678
 7116TIP3   OH242762   3.678   0.592   6.255 -1.2440 -0.0426 -0.5859
 7116TIP3    H142763   3.678   0.512   6.308  3.8977  0.0480  0.1024
 7116TIP3    H242764   3.673   0.663   6.318 -0.5976  0.0875 -0.6695
 7117TIP3   OH242765   1.693   1.470   4.812  0.9351  0.5465 -0.5560
 7117TIP3    H142766   1.668   1.516   4.893  1.0470 -0.3354 -0.0052
 7117TIP3    H242767   1.645   1.387   4.815  0.8182  0.5715 -1.4831
 7118TIP3   OH242768   3.137   5.163  16.264 -0.4524  0.6409  0.8053
 7118TIP3    H142769   3.203   5.126  16.323  1.1248 -0.4105 -1.4514
 7118TIP3    H242770   3.070   5.095  16.258  0.0183  0.1966  0.4401
 7119TIP3   OH242771   0.615   3.850   2.154  0.4419  0.0477  0.0188
 7119TIP3    H142772   0.671   3.868   2.230 -0.1159 -0.4710  0.5576
 7119TIP3    H242773   0.549   3.790   2.186  1.5793 -2.1453 -1.4572
 7120TIP3   OH242774   2.967   1.224  16.951 -0.4152  0.5424 -0.0215
 7120TIP3    H142775   3.057   1.205  16.923 -0.6172  0.8595 -0.8969
 7120TIP3    H242776   2.973   1.307  16.998  0.1738 -0.6927  2.2740
 7121TIP3   OH242777   0.264   1.845  15.216 -0.4827  0.3753 -0.0079
 7121TIP3    H142778   0.272   1.920  15.157 -0.3379  0.8679  0.6342
 7121TIP3    H242779   0.327   1.781  15.182 -0.1629  0.7831 -0.1879
 7122TIP3   OH242780   5.357   3.144  17.159  0.5699  0.4739  0.0652
 7122TIP3    H142781   5.416   3.099  17.221 -2.2001 -0.2173  2.3945
 7122TIP3    H242782   5.300   3.196  17.214 -0.6426  1.6034 -2.1490
 7123TIP3   OH242783   1.524   6.440  12.941  0.0979  0.2556 -0.5165
 7123TIP3    H142784   1.434   6.442  12.907 -0.6099 -1.5766  1.0970
 7123TIP3    H242785   1.552   6.532  12.939 -1.3773  0.7369 -2.0712
 7124TIP3   OH242786   2.288   4.427   4.081  0.0011 -0.2928 -0.2686
 7124TIP3    H142787   2.359   4.491   4.071 -0.6589  0.4409 -0.3968
 7124TIP3    H242788   2.244   4.453   4.162 -0.5300 -0.3208 -0.5438
 7125TIP3   OH242789   1.138   3.976  16.668  0.1903 -0.0892  0.4888
 7125TIP3    H142790   1.122   3.923  16.747 -0.9696 -0.8848 -0.2541
 7125TIP3    H242791   1.085   3.934  16.600  1.1184  0.6346 -0.7041
 7126TIP3   OH242792   1.444   0.616   2.167  0.3677 -0.1645 -0.6499
 7126TIP3    H142793   1.386   0.544   2.193  1.0694 -0.8506 -0.9327
 7126TIP3    H242794   1.523   0.572   2.136  1.9036  0.7735  1.7038
 7127TIP3   OH242795   3.491   3.179   4.678  0.0014  0.2010  0.3197
 7127TIP3    H142796   3.510   3.156   4.769  1.7331 -0.2714 -0.1238
 7127TIP3    H242797   3.469   3.272   4.681 -0.9091 -0.0266  1.3343
 7128TIP3   OH242798   0.086   1.156  16.847  0.0384  1.0847 -0.0968
 7128TIP3    H142799   0.044   1.163  16.933 -0.8927  2.6114 -0.6265
 7128TIP3    H242800   0.053   1.232  16.799  0.7001  0.3671 -1.7390
 7129TIP3   OH242801   5.307   5.228  15.794  0.0435 -0.2210  0.1318
 7129TIP3    H142802   5.334   5.244  15.884 -0.5025 -0.3346  0.3221
 7129TIP3    H242803   5.337   5.139  15.775 -0.0002 -0.2647  0.2648
 7130TIP3   OH242804   2.393   5.589  14.510 -0.1580  0.9925  0.3896
 7130TIP3    H142805   2.416   5.522  14.575  0.6264  0.8611 -0.0116
 7130TIP3    H242806   2.297   5.594  14.514 -0.0824  2.0857  2.6663
 7131TIP3   OH242807   4.882   0.634   6.431  0.3247  0.2510 -0.0392
 7131TIP3    H142808   4.965   0.647   6.385 -0.5393 -1.2882 -2.1820
 7131TIP3    H242809   4.889   0.690   6.508  4.5958 -2.0771  1.6095
 7132TIP3   OH242810   1.135   3.764   3.556  0.4175  0.0467 -0.6442
 7132TIP3    H142811   1.127   3.722   3.641 -0.0002 -0.0323 -0.7196
 7132TIP3    H242812   1.207   3.825   3.566  0.7191 -0.3474 -0.3921
 7133TIP3   OH242813   6.162   4.953  14.752 -0.1816 -1.3416 -0.9142
 7133TIP3    H142814   6.122   4.869  14.729 -1.9484 -0.9437  0.4605
 7133TIP3    H242815   6.134   5.013  14.684 -0.1078 -1.5430 -1.1242
 7134TIP3   OH242816   3.172   1.834   3.573 -0.2811 -0.5957  0.0086
 7134TIP3    H142817   3.154   1.817   3.480 -1.0701 -1.0649  0.2312
 7134TIP3    H242818   3.087   1.858   3.609 -0.4824 -2.6982  1.0795
 7135TIP3   OH242819   0.532   2.770   0.139 -0.0677 -0.3403  1.2126
 7135TIP3    H142820   0.583   2.716   0.199  0.1079 -2.6332 -0.8274
 7135TIP3    H242821   0.446   2.728   0.137 -0.2394  0.0336  0.3223
 7136TIP3   OH242822   3.229   4.989   2.423  0.0779 -0.1259 -0.2601
 7136TIP3    H142823   3.160   5.028   2.477 -0.3928  0.2943 -1.1401
 7136TIP3    H242824   3.223   5.036   2.340  0.9305 -0.6142 -0.6036
 7137TIP3   OH242825   5.787   5.098   5.219  0.9355  0.1913  0.0066
 7137TIP3    H142826   5.697   5.095   5.186 -0.0882  0.9913  2.4619
 7137TIP3    H242827   5.830   5.164   5.166  0.0071 -0.0216 -1.0558
 7138TIP3   OH242828   2.805   2.359  12.850 -0.3233  0.1191  0.3255
 7138TIP3    H142829   2.741   2.296  12.818  0.5467  1.0132 -3.7265
 7138TIP3    H242830   2.756   2.440  12.863 -0.4028  0.2385 -0.6814
 7139TIP3   OH242831   0.931   2.198  11.498  0.2010  0.7671  0.2225
 7139TIP3    H142832   0.939   2.294  11.491 -0.3901  0.8622  0.7934
 7139TIP3    H242833   0.840   2.180  11.472  0.8454  0.1635 -1.7470
 7140TIP3   OH242834   1.583   0.588  12.323  0.1492 -0.7970 -0.3508
 7140TIP3    H142835   1.497   0.546  12.324  0.0168 -0.7302 -2.7568
 7140TIP3    H242836   1.644   0.516  12.335 -0.2103 -0.8437  1.4001
 7141TIP3   OH242837   3.085   0.425   6.580 -0.0042 -0.5084  0.3979
 7141TIP3    H142838   3.040   0.505   6.610  0.6863  0.1275 -0.2242
 7141TIP3    H242839   3.144   0.403   6.652  0.7255  0.2906  0.0721
 7142TIP3   OH242840   0.287   4.034  13.348 -0.0201  0.1721 -0.3065
 7142TIP3    H142841   0.350   3.991  13.406 -1.0519  0.2992  0.9636
 7142TIP3    H242842   0.286   3.981  13.269 -0.8141 -1.8572  0.9738
 7143TIP3   OH242843   2.586   3.374  13.392 -0.2740 -0.4581  0.5937
 7143TIP3    H142844   2.556   3.297  13.441  0.8693 -0.8014  0.7833
 7143TIP3    H242845   2.678   3.383  13.415  0.6619 -1.3204 -2.4028
 7144TIP3   OH242846   0.368   5.248  13.883 -0.1924  0.7292  0.5336
 7144TIP3    H142847   0.354   5.154  13.870  0.8911  0.7677 -1.2453
 7144TIP3    H242848   0.422   5.253  13.963 -1.9644  0.0290  1.8505
 7145TIP3   OH242849   0.992   4.444  16.720  0.1707 -0.5383  0.8436
 7145TIP3    H142850   1.035   4.432  16.635  0.2729 -0.5673  0.8989
 7145TIP3    H242851   1.023   4.530  16.750 -1.3496  0.3669 -0.0263
 7146TIP3   OH242852   0.356   1.646   2.229  0.6410 -0.1084  0.3377
 7146TIP3    H142853   0.261   1.639   2.222  0.6625 -2.7489  1.5731
 7146TIP3    H242854   0.388   1.628   2.141  0.0166 -1.5743  0.3779
 7147TIP3   OH242855   3.797   3.412  15.887  0.2179 -0.0341 -0.3843
 7147TIP3    H142856   3.807   3.334  15.833  2.8566 -0.5349  0.6587
 7147TIP3    H242857   3.754   3.380  15.967 -0.3288 -0.0482 -0.6818
 7148TIP3   OH242858   2.623   0.847  12.316  0.5835 -0.5801  0.2152
 7148TIP3    H142859   2.547   0.858  12.260  0.5523  0.2958  0.4156
 7148TIP3    H242860   2.663   0.934  12.320  1.0611 -0.8173  0.8594
 7149TIP3   OH242861   3.676   3.824  16.568  0.2729 -0.0661  0.3146
 7149TIP3    H142862   3.738   3.837  16.496  1.5950 -0.9545  1.2324
 7149TIP3    H242863   3.608   3.767  16.531  0.2607  0.5129 -0.5739
 7150TIP3   OH242864   3.936   4.882   2.880 -0.1787 -0.1901 -0.7848
 7150TIP3    H142865   3.948   4.787   2.879 -1.6674 -0.3948 -0.6347
 7150TIP3    H242866   4.025   4.917   2.884  0.3575 -1.5948  0.5194
 7151TIP3   OH242867   1.223   3.094   2.707 -0.1494  0.6394 -0.3105
 7151TIP3    H142868   1.166   3.040   2.762  1.8851  0.7190  2.0632
 7151TIP3    H242869   1.292   3.036   2.678  0.1493  1.1792 -0.7053
 7152TIP3   OH242870   0.305   4.326   4.787 -0.5580 -0.3051  0.1596
 7152TIP3    H142871   0.297   4.385   4.862  1.1872  0.2365 -0.0360
 7152TIP3    H242872   0.399   4.309   4.779 -0.8252 -1.3920 -1.1188
 7153TIP3   OH242873   6.717   1.657  12.794 -0.1433  0.0615 -0.2662
 7153TIP3    H142874   6.719   1.561  12.800 -2.2444 -0.0614 -0.8112
 7153TIP3    H242875   6.690   1.675  12.704 -1.4884  1.0792  0.2970
 7154TIP3   OH242876   0.984   1.984  10.665  0.8309 -0.1188 -0.8444
 7154TIP3    H142877   1.015   2.066  10.627  0.2627  0.3953 -0.2283
 7154TIP3    H242878   0.894   2.003  10.693  0.4744 -1.1330 -1.2427
 7155TIP3   OH242879   3.718   0.726   0.804  0.3202  0.1683  0.2471
 7155TIP3    H142880   3.632   0.686   0.808  0.3172 -0.1262 -1.6668
 7155TIP3    H242881   3.779   0.653   0.795  0.7717  0.3839  1.3779
 7156TIP3   OH242882   2.245   2.007  14.492  0.2733  0.3417  0.2028
 7156TIP3    H142883   2.337   2.034  14.494  0.8212 -1.3384 -0.1215
 7156TIP3    H242884   2.231   1.980  14.401 -0.2024 -0.4664  0.5113
 7157TIP3   OH242885   5.442   6.022   4.798  0.1321 -0.2805  0.0821
 7157TIP3    H142886   5.439   5.941   4.747 -1.0894 -1.2028  1.5128
 7157TIP3    H242887   5.519   6.069   4.766  2.4647 -3.2311  1.0297
 7158TIP3   OH242888   1.768   6.716   2.172  0.1501  0.2271  0.0628
 7158TIP3    H142889   1.805   6.645   2.120  1.0957  0.4056  0.4697
 7158TIP3    H242890   1.748   6.676   2.257  0.2519  0.3386  0.1399
 7159TIP3   OH242891   0.626   0.117  16.151  0.1656 -0.2221  0.1174
 7159TIP3    H142892   0.559   0.105  16.218 -0.2066  1.8193  0.1985
 7159TIP3    H242893   0.709   0.101  16.195 -0.1543 -0.2302  0.7141
 7160TIP3   OH242894   4.707   6.389  14.398 -0.0716  0.4285 -0.3673
 7160TIP3    H142895   4.774   6.422  14.337 -1.0524 -0.0612 -1.7537
 7160TIP3    H242896   4.678   6.307  14.359 -0.7709  0.1296  0.7585
 7161TIP3   OH242897   6.153   0.761  14.366 -0.4520 -0.1091 -0.1574
 7161TIP3    H142898   6.084   0.775  14.302  0.0441 -0.9362 -0.8860
 7161TIP3    H242899   6.160   0.845  14.413 -0.4465  0.6843 -1.5341
 7162TIP3   OH242900   6.424   3.061  12.902  0.7307  0.1423 -0.4655
 7162TIP3    H142901   6.334   3.092  12.907 -0.1815 -2.2369 -0.8318
 7162TIP3    H242902   6.438   3.015  12.985  0.2244 -2.7596 -1.8800
 7163TIP3   OH242903   2.229   3.918   1.072  0.1692 -0.4364 -0.2229
 7163TIP3    H142904   2.295   3.880   1.015 -0.3684  1.2164 -2.0334
 7163TIP3    H242905   2.279   3.974   1.132  0.4979  0.0174 -0.9149
 7164TIP3   OH242906   5.922   0.608  15.416 -0.1574 -0.6883 -0.2269
 7164TIP3    H142907   5.894   0.688  15.461 -1.0852 -1.6834  1.0350
 7164TIP3    H242908   6.000   0.579  15.463  1.5494  0.6245 -2.0781
 7165TIP3   OH242909   4.163   2.999  17.118 -0.3930  0.0674  0.4484
 7165TIP3    H142910   4.121   2.955  17.192  2.0865 -2.8329  0.3453
 7165TIP3    H242911   4.205   2.928  17.069  1.8948  2.3578 -1.1397
 7166TIP3   OH242912   0.228   1.674  13.142 -0.7771  1.0335 -0.2585
 7166TIP3    H142913   0.298   1.611  13.127 -0.9870  0.6662  0.2798
 7166TIP3    H242914   0.270   1.748  13.185 -0.9414  0.2310  1.3612
 7167TIP3   OH242915   3.753   5.160  13.872 -0.0594 -1.0300  0.0118
 7167TIP3    H142916   3.668   5.115  13.869 -1.6029  1.5658  1.0867
 7167TIP3    H242917   3.749   5.223  13.800  1.8070 -2.1264 -1.1162
 7168TIP3   OH242918   3.380   6.529   0.922 -0.7031  0.2099 -0.3637
 7168TIP3    H142919   3.396   6.450   0.871 -1.5363  0.0458 -0.3830
 7168TIP3    H242920   3.309   6.574   0.875 -1.2380  0.2381  0.4513
 7169TIP3   OH242921   4.228   0.237  16.470  0.6837  0.0831  0.8976
 7169TIP3    H142922   4.246   0.161  16.414 -0.7294  1.8490 -2.2284
 7169TIP3    H242923   4.136   0.229  16.492  0.8483  0.2334  1.6505
 7170TIP3   OH242924   1.822   2.056   5.186  0.2107 -0.0479  0.4976
 7170TIP3    H142925   1.749   2.092   5.136 -0.2425 -1.3150  0.2092
 7170TIP3    H242926   1.784   2.033   5.271  0.7175  1.0166  1.0365
 7171TIP3   OH242927   5.170   1.144  14.083  0.2397 -0.0727  0.2909
 7171TIP3    H142928   5.159   1.204  14.156  1.2746  0.7660 -0.2129
 7171TIP3    H242929   5.111   1.178  14.015 -1.4782 -1.4170  1.0101
 7172TIP3   OH242930   2.022   3.468  13.418  0.4919  0.3401 -0.2864
 7172TIP3    H142931   2.098   3.461  13.475 -0.2795 -1.1468  0.6185
 7172TIP3    H242932   2.056   3.450  13.330  1.0262 -1.5173  0.2457
 7173TIP3   OH242933   3.780   2.889  13.625 -0.1913  0.4386  0.2451
 7173TIP3    H142934   3.726   2.941  13.566  0.5439  1.0529  0.0975
 7173TIP3    H242935   3.790   2.943  13.703 -2.0505 -0.8079  1.4169
 7174TIP3   OH242936   3.121   3.448  13.326 -0.1558  0.0343 -0.1771
 7174TIP3    H142937   3.047   3.398  13.360 -0.3125  0.3258 -0.0841
 7174TIP3    H242938   3.089   3.538  13.322 -0.6844 -0.1721 -2.5391
 7175TIP3   OH242939   0.092   0.144   7.239 -0.1741  0.4770  0.2323
 7175TIP3    H142940   0.093   0.238   7.259  1.0665  0.5586 -0.1207
 7175TIP3    H242941   0.184   0.123   7.220 -0.2757 -1.0399  1.3240
 7176TIP3   OH242942   2.829   0.229   6.185 -0.3080 -0.4746  0.2716
 7176TIP3    H142943   2.886   0.205   6.258  2.7096  0.4307 -1.5799
 7176TIP3    H242944   2.815   0.147   6.137 -1.7359 -0.9434  1.4360
 7177TIP3   OH242945   2.574   3.388   4.277 -0.2774 -0.0644 -0.2104
 7177TIP3    H142946   2.540   3.407   4.365  0.8475 -0.1362  0.2636
 7177TIP3    H242947   2.508   3.332   4.237 -2.0310  1.9927 -0.3705
 7178TIP3   OH242948   0.290   6.330  16.906 -0.2442 -0.0201 -0.3456
 7178TIP3    H142949   0.374   6.335  16.951 -0.6747 -2.8624  1.0296
 7178TIP3    H242950   0.259   6.420  16.902  1.7543  0.8243  1.3141
 7179TIP3   OH242951   0.987   3.398  14.373  0.5582  0.2178  0.0283
 7179TIP3    H142952   0.949   3.464  14.432 -1.6894 -0.0379 -1.0185
 7179TIP3    H242953   0.945   3.316  14.398  0.5698 -0.1332 -1.0579
 7180TIP3   OH242954   2.380   2.747  12.195  0.7107 -0.3777 -0.1412
 7180TIP3    H142955   2.361   2.672  12.138 -1.2576 -0.8703  1.0521
 7180TIP3    H242956   2.367   2.713  12.284  0.7612  1.1239  0.4632
 7181TIP3   OH242957   4.019   5.825  13.835  0.3566  0.2025  0.2124
 7181TIP3    H142958   4.010   5.863  13.747 -2.5272 -1.4101 -0.3390
 7181TIP3    H242959   4.073   5.887  13.883  1.3579  1.5528 -2.4556
 7182TIP3   OH242960   5.099   0.401   3.234 -0.2628 -0.7224 -0.4852
 7182TIP3    H142961   5.131   0.452   3.308 -0.0771 -1.1980 -0.2259
 7182TIP3    H242962   5.007   0.424   3.225 -0.4635 -1.1742  0.3433
 7183TIP3   OH242963   3.975   1.587   3.552  0.1340  0.4494 -0.2672
 7183TIP3    H142964   3.894   1.636   3.565  0.9755  2.9077 -3.1394
 7183TIP3    H242965   4.044   1.647   3.581  1.0512 -0.8608  0.3508
 7184TIP3   OH242966   4.536   6.023   2.836  0.0610 -0.2275  0.7168
 7184TIP3    H142967   4.492   5.960   2.893 -1.3215  0.3085  0.2979
 7184TIP3    H242968   4.576   6.086   2.896  1.7016 -1.5977  1.1520
 7185TIP3   OH242969   1.636   2.885   0.938 -0.5351  0.0225  0.3561
 7185TIP3    H142970   1.632   2.971   0.980  1.7827 -0.4382  1.6651
 7185TIP3    H242971   1.711   2.891   0.879 -1.5449 -0.5217 -1.0256
 7186TIP3   OH242972   5.913   2.793  15.129  0.2985 -0.4632 -0.3263
 7186TIP3    H142973   5.961   2.742  15.194 -0.9388 -1.4885 -0.1928
 7186TIP3    H242974   5.981   2.836  15.078  1.3274  1.1575  2.2117
 7187TIP3   OH242975   3.189   3.834  13.187 -0.1397  0.5287 -0.1971
 7187TIP3    H142976   3.133   3.783  13.246  0.5419 -1.0425 -0.8492
 7187TIP3    H242977   3.158   3.811  13.099  1.6483 -0.6188 -0.5937
 7188TIP3   OH242978   3.460   0.743   5.956  0.4535 -0.0820  0.2903
 7188TIP3    H142979   3.531   0.764   6.017  0.2081  1.3660  0.1103
 7188TIP3    H242980   3.380   0.767   6.003  0.2415  0.6835 -0.4290
 7189TIP3   OH242981   6.549   6.001   4.602  0.0632 -0.2051  0.7309
 7189TIP3    H142982   6.634   5.973   4.568 -0.4848  0.5694 -1.4504
 7189TIP3    H242983   6.496   6.016   4.524 -1.9348 -0.1806  2.0262
 7190TIP3   OH242984   5.434   3.614   1.270  0.2212  0.2942  0.0390
 7190TIP3    H142985   5.364   3.549   1.276  1.0467 -0.6097  0.1272
 7190TIP3    H242986   5.485   3.589   1.193  1.3056  0.0507  0.8088
 7191TIP3   OH242987   0.648   1.452  14.077  0.1919 -0.0472  0.1615
 7191TIP3    H142988   0.597   1.472  13.998  1.1089  2.6997  0.1678
 7191TIP3    H242989   0.588   1.471  14.149  0.3373  0.5029  0.1415
 7192TIP3   OH242990   2.669   2.298  13.112  0.0407 -0.7578  0.1745
 7192TIP3    H142991   2.726   2.305  13.035 -0.8448  2.2268 -0.3452
 7192TIP3    H242992   2.585   2.267  13.077 -0.2403  0.2086 -0.0527
 7193TIP3   OH242993   6.028   3.965   1.917 -0.1283  0.5031  0.4832
 7193TIP3    H142994   5.936   3.953   1.894  0.5151 -1.6397 -1.3261
 7193TIP3    H242995   6.027   3.986   2.010 -2.3918 -0.1621  0.6658
 7194TIP3   OH242996   5.245   2.287  16.261 -0.4369 -0.2938 -0.0218
 7194TIP3    H142997   5.327   2.333  16.274 -0.4793  0.2034 -1.3599
 7194TIP3    H242998   5.240   2.272  16.166 -1.3460 -1.3217  0.1648
 7195TIP3   OH242999   6.637   5.278  16.401  0.1842 -1.0435  0.1897
 7195TIP3    H143000   6.706   5.340  16.378 -1.6675  1.1594  0.2124
 7195TIP3    H243001   6.623   5.227  16.322  0.0203  0.3354 -0.7117
 7196TIP3   OH243002   2.777   2.809  15.727 -0.1027  0.5977 -0.4599
 7196TIP3    H143003   2.854   2.864  15.714 -0.2433  1.0666  0.5812
 7196TIP3    H243004   2.709   2.870  15.758 -0.7436  0.1123 -0.8868
 7197TIP3   OH243005   5.416   2.314   1.866  0.5528 -0.1167  0.6296
 7197TIP3    H143006   5.338   2.331   1.813  0.4715 -1.7215  0.1942
 7197TIP3    H243007   5.488   2.317   1.803  0.3886 -2.6950  0.2274
 7198TIP3   OH243008   3.034   4.516   4.198  0.1881  0.7207 -0.6831
 7198TIP3    H143009   3.050   4.494   4.107  0.4110  2.0213 -0.9755
 7198TIP3    H243010   2.980   4.595   4.195 -1.6283 -0.3944  0.3180
 7199TIP3   OH243011   0.415   0.831   3.958  0.3473 -0.4183  0.9977
 7199TIP3    H143012   0.510   0.843   3.950  0.0922  0.4455 -1.6668
 7199TIP3    H243013   0.390   0.887   4.031  1.7648  0.0560  1.1478
 7200TIP3   OH243014   2.467   4.954  15.605  0.0904 -0.2046 -0.1852
 7200TIP3    H143015   2.402   4.895  15.644  0.5225 -0.2360  0.4972
 7200TIP3    H243016   2.548   4.903  15.604 -0.0226 -0.4056 -1.6417
 7201TIP3   OH243017   1.771   5.303   5.516 -0.0451  0.1030 -0.0978
 7201TIP3    H143018   1.684   5.308   5.557 -0.7651 -0.9898 -1.4035
 7201TIP3    H243019   1.778   5.213   5.485  1.9148 -0.0631  0.6804
 7202TIP3   OH243020   0.580   0.511   6.117  0.0135  0.5162  0.9282
 7202TIP3    H143021   0.641   0.439   6.134 -0.8588 -0.2910  0.7134
 7202TIP3    H243022   0.535   0.524   6.200 -0.4006  0.2638  0.7440
 7203TIP3   OH243023   3.388   4.755   0.630  0.2842 -0.2618 -0.0081
 7203TIP3    H143024   3.430   4.841   0.632  0.8048 -0.5387  1.3464
 7203TIP3    H243025   3.440   4.701   0.689  0.4273 -1.7427 -1.4211
 7204TIP3   OH243026   3.906   0.275   5.980 -0.6727 -0.1614 -0.0696
 7204TIP3    H143027   3.833   0.337   5.984  0.0773  0.9015 -1.6411
 7204TIP3    H243028   3.919   0.247   6.071 -1.3496  1.6409  0.6255
 7205TIP3   OH243029   6.372   4.249  14.692 -0.9673  0.0843  0.1191
 7205TIP3    H143030   6.460   4.268  14.660 -0.5911  0.9349  1.5717
 7205TIP3    H243031   6.366   4.154  14.689  0.3345 -0.0476  0.8135
 7206TIP3   OH243032   4.175   5.895   6.091  0.0014  0.2257 -0.2019
 7206TIP3    H143033   4.251   5.862   6.042  0.4536  1.8063 -0.6263
 7206TIP3    H243034   4.136   5.817   6.131  1.5337 -0.6907 -0.4188
 7207TIP3   OH243035   5.228   1.456  13.897 -0.3043  0.6478 -0.7460
 7207TIP3    H143036   5.280   1.419  13.826  1.2724  1.1859  0.0897
 7207TIP3    H243037   5.168   1.517  13.854 -0.0131  0.2774 -1.6996
 7208TIP3   OH243038   4.332   2.887   5.799 -0.5173 -0.2818 -0.2206
 7208TIP3    H143039   4.414   2.888   5.749 -1.4061  0.3305 -1.6965
 7208TIP3    H243040   4.345   2.954   5.867  0.1561 -0.1072 -0.5119
 7209TIP3   OH243041   6.660   6.642  13.910  0.0320 -0.4712 -0.3489
 7209TIP3    H143042   6.583   6.677  13.866 -0.0285  0.4438  0.4531
 7209TIP3    H243043   6.699   6.718  13.953  1.3522 -0.9288 -0.6952
 7210TIP3   OH243044   2.268   2.678  14.655 -0.2802 -0.1431 -0.3366
 7210TIP3    H143045   2.264   2.743  14.584  0.6531 -0.9298 -1.1446
 7210TIP3    H243046   2.185   2.687  14.701 -1.3800 -0.3202 -2.1790
 7211TIP3   OH243047   0.174   5.578   2.722 -0.4832  0.3824 -0.5355
 7211TIP3    H143048   0.180   5.661   2.769  0.7476 -0.7130  1.3362
 7211TIP3    H243049   0.089   5.542   2.748 -1.5566  1.4960 -2.2516
 7212TIP3   OH243050   4.700   3.538  15.373  0.6859  0.2814  0.2085
 7212TIP3    H143051   4.733   3.536  15.283  0.7992  1.2157  0.2115
 7212TIP3    H243052   4.693   3.632  15.394 -0.7985  0.1075  0.6450
 7213TIP3   OH243053   5.418   2.190   1.469 -0.3614  0.0050  0.1133
 7213TIP3    H143054   5.324   2.203   1.455 -0.0631  1.9159 -0.2822
 7213TIP3    H243055   5.460   2.223   1.390  0.7777  1.7018  1.3523
 7214TIP3   OH243056   3.022   0.621  14.053 -0.2233 -0.1078 -0.5229
 7214TIP3    H143057   3.078   0.574  14.115 -1.3605 -1.4887 -0.4705
 7214TIP3    H243058   3.083   0.663  13.992  0.8698 -0.7711  0.0777
 7215TIP3   OH243059   5.972   0.617   0.216  0.0654 -1.2884  0.2022
 7215TIP3    H143060   6.048   0.649   0.168 -0.6611  1.5272  0.7115
 7215TIP3    H243061   6.007   0.587   0.300  0.6879 -0.0241  0.4346
 7216TIP3   OH243062   0.745   1.265   6.570  0.2505  0.4215  0.1466
 7216TIP3    H143063   0.653   1.250   6.589  0.5574 -0.2622  1.1934
 7216TIP3    H243064   0.770   1.339   6.627  0.4189  0.4258  0.0695
 7217TIP3   OH243065   6.376   2.165   2.849 -0.1133 -0.9483  0.2621
 7217TIP3    H143066   6.299   2.217   2.872  0.7694  0.5460  0.0078
 7217TIP3    H243067   6.344   2.075   2.842 -1.9640 -0.2740 -0.4957
 7218TIP3   OH243068   1.100   5.851  16.000 -0.6466 -0.3969 -0.5385
 7218TIP3    H143069   1.077   5.791  16.071 -1.7130  1.9328  1.2115
 7218TIP3    H243070   1.186   5.821  15.970 -0.8879 -2.4102  0.6172
 7219TIP3   OH243071   1.936   0.328  17.286  0.2338 -0.1988 -0.2757
 7219TIP3    H143072   1.929   0.336  17.381 -1.6940  2.1956 -0.5170
 7219TIP3    H243073   2.017   0.279  17.272  0.8896 -0.1036  2.5674
 7220TIP3   OH243074   6.078   3.447  16.528 -0.6686 -0.3601 -0.4111
 7220TIP3    H143075   6.158   3.436  16.476 -1.0768  0.6507 -1.2938
 7220TIP3    H243076   6.048   3.535  16.506 -1.7631 -0.5465  0.2945
 7221TIP3   OH243077   4.575   1.053  16.436  0.3548 -0.2037  0.0305
 7221TIP3    H143078   4.546   1.105  16.511  0.7400 -1.3736  1.0141
 7221TIP3    H243079   4.515   1.078  16.365  1.5660  2.8435 -0.0854
 7222TIP3   OH243080   4.363   2.205  16.820  0.2054  0.1106 -0.1493
 7222TIP3    H143081   4.353   2.150  16.897  0.3860  0.4047  0.0863
 7222TIP3    H243082   4.328   2.290  16.847 -2.2568 -0.4768 -1.2128
 7223TIP3   OH243083   6.316   0.136   0.223  0.1786 -0.8739  0.1604
 7223TIP3    H143084   6.389   0.091   0.266 -1.0118 -4.0238 -0.8380
 7223TIP3    H243085   6.261   0.167   0.296  0.1132 -2.7854  0.9923
 7224TIP3   OH243086   1.344   5.067   4.311  0.1292  0.2847 -0.9274
 7224TIP3    H143087   1.373   5.011   4.239 -0.2415 -0.7658 -0.2792
 7224TIP3    H243088   1.420   5.072   4.370 -0.6324 -1.7718  0.3448
 7225TIP3   OH243089   3.046   1.541  15.589  0.1109  0.2017  0.6465
 7225TIP3    H143090   3.087   1.462  15.626 -1.0370  0.2945  2.2482
 7225TIP3    H243091   2.980   1.565  15.654 -1.4422  0.9124 -1.1364
 7226TIP3   OH243092   3.994   2.962  10.939  0.0818  0.0242 -0.2946
 7226TIP3    H143093   3.955   2.908  11.007  0.2235  1.1789  0.7312
 7226TIP3    H243094   4.087   2.937  10.938 -0.0339 -0.4032 -0.4768
 7227TIP3   OH243095   4.466   3.469   1.820  0.4239 -0.8487 -0.3290
 7227TIP3    H143096   4.404   3.533   1.854 -1.4339 -1.4485 -2.3139
 7227TIP3    H243097   4.543   3.520   1.794  0.3705  0.0662  1.1915
 7228TIP3   OH243098   3.788   5.474  12.246 -0.3147  0.1407  0.1918
 7228TIP3    H143099   3.867   5.528  12.252  0.3895 -0.9094  0.8432
 7228TIP3    H243100   3.717   5.534  12.267  0.5294  0.6397  1.8708
 7229TIP3   OH243101   5.974   5.619   4.562 -0.3848 -0.4687  0.2020
 7229TIP3    H143102   5.900   5.624   4.501 -1.8373  1.0000  1.9525
 7229TIP3    H243103   5.936   5.641   4.647  1.9807 -0.2895  1.2895
 7230TIP3   OH243104   0.347   1.192   4.000  0.3110  0.0858  0.0107
 7230TIP3    H143105   0.338   1.269   4.056 -0.1679  0.7188 -0.9026
 7230TIP3    H243106   0.388   1.126   4.056  0.8035  1.0272  0.7922
 7231TIP3   OH243107   3.169   1.784  14.934  0.5115 -0.4667 -0.0028
 7231TIP3    H143108   3.195   1.875  14.919 -0.7157  0.1155  1.1919
 7231TIP3    H243109   3.128   1.756  14.852 -1.2405  0.8651  0.3583
 7232TIP3   OH243110   2.503   5.843   4.075 -0.6190 -0.2910  0.1574
 7232TIP3    H143111   2.490   5.748   4.073 -1.5004 -0.2743 -4.3155
 7232TIP3    H243112   2.416   5.880   4.088 -0.1967  0.0637  2.6018
 7233TIP3   OH243113   1.781   5.315   3.925 -0.0632 -0.2754 -0.6170
 7233TIP3    H143114   1.695   5.277   3.944 -0.2860  0.2726 -0.5088
 7233TIP3    H243115   1.762   5.406   3.901  0.3970 -0.4141 -1.5523
 7234TIP3   OH243116   4.530   2.769  16.759 -0.6380 -0.2730 -0.4305
 7234TIP3    H143117   4.544   2.770  16.664 -1.0387  1.8478 -0.5176
 7234TIP3    H243118   4.614   2.795  16.796 -0.8252  0.0861 -0.2604
 7235TIP3   OH243119   2.229   2.146  16.784  0.3308 -0.9789  0.3851
 7235TIP3    H143120   2.277   2.141  16.701 -2.1788 -0.7614 -1.1864
 7235TIP3    H243121   2.174   2.068  16.785 -1.2026  0.0647  0.7877
 7236TIP3   OH243122   4.531   3.125   4.249 -0.3831 -0.1309 -0.0203
 7236TIP3    H143123   4.516   3.219   4.241 -0.7028 -0.2528 -0.8802
 7236TIP3    H243124   4.591   3.104   4.178 -1.0758 -0.7421 -0.4400
 7237TIP3   OH243125   1.111   0.121   5.270  0.3047  0.8315  0.6107
 7237TIP3    H143126   1.020   0.148   5.285  0.6975  1.5476  1.8915
 7237TIP3    H243127   1.121   0.042   5.323 -0.0117 -0.2070 -0.8299
 7238TIP3   OH243128   0.480   2.180  10.844 -0.8176  0.0847 -0.0908
 7238TIP3    H143129   0.421   2.136  10.905  0.0813 -1.9879 -0.6341
 7238TIP3    H243130   0.468   2.135  10.761  1.1622 -0.0896 -0.3305
 7239TIP3   OH243131   0.449   2.353   1.650 -0.1448 -0.0897 -0.1341
 7239TIP3    H143132   0.456   2.296   1.573 -0.5930 -1.6562  0.9341
 7239TIP3    H243133   0.369   2.325   1.694  0.7575 -0.1379  1.5895
 7240TIP3   OH243134   5.488   2.410   0.198  0.8940  0.4786  0.2345
 7240TIP3    H143135   5.562   2.350   0.183  0.6590 -0.1111  1.3106
 7240TIP3    H243136   5.421   2.355   0.239 -0.1116  1.0288 -0.6398
 7241TIP3   OH243137   3.769   2.224   5.518  0.3656  0.0884  0.0727
 7241TIP3    H143138   3.775   2.137   5.556 -1.5031 -0.2691 -0.3321
 7241TIP3    H243139   3.706   2.270   5.573  0.3833  0.7670 -0.4591
 7242TIP3   OH243140   6.119   4.027  12.262  0.2679 -0.2610 -0.1166
 7242TIP3    H143141   6.115   3.932  12.251  1.0586 -0.3603  0.3975
 7242TIP3    H243142   6.047   4.060  12.208 -0.0528 -1.1510 -0.2540
 7243TIP3   OH243143   1.488   3.234  11.428 -0.7339 -0.0120 -0.4048
 7243TIP3    H143144   1.437   3.312  11.406 -0.0998  1.1233  1.9036
 7243TIP3    H243145   1.457   3.168  11.366 -1.3745  1.9875 -2.3880
 7244TIP3   OH243146   2.178   2.525   2.664 -0.5128  0.1400  0.1543
 7244TIP3    H143147   2.208   2.449   2.715 -0.8478 -1.3541 -1.7504
 7244TIP3    H243148   2.176   2.494   2.574 -1.0783  2.3272 -0.6515
 7245TIP3   OH243149   5.841   3.529   5.384 -0.1129 -0.0635  0.1696
 7245TIP3    H143150   5.928   3.495   5.401 -0.3759 -1.2374 -0.7365
 7245TIP3    H243151   5.836   3.539   5.289 -0.2711  1.9585  0.3455
 7246TIP3   OH243152   4.255   4.338   5.628  0.3263  0.1450 -0.3737
 7246TIP3    H143153   4.278   4.398   5.699 -2.8210 -0.4063  1.2829
 7246TIP3    H243154   4.261   4.392   5.549 -0.1804  2.0146  0.7908
 7247TIP3   OH243155   1.506   2.533  15.418 -0.1759 -0.6614 -0.4698
 7247TIP3    H143156   1.518   2.453  15.468  1.0834  0.4489  1.0893
 7247TIP3    H243157   1.452   2.506  15.343 -2.0327 -2.4124  1.3646
 7248TIP3   OH243158   0.153   1.458   4.972  0.3153 -0.2239  0.1569
 7248TIP3    H143159   0.187   1.380   5.016  0.6221 -0.8302 -1.0858
 7248TIP3    H243160   0.231   1.500   4.935  0.0353  0.0624 -0.1140
 7249TIP3   OH243161   4.790   2.612   2.866  0.2212 -0.0475  0.1972
 7249TIP3    H143162   4.851   2.662   2.921  1.4393 -0.4210 -0.7484
 7249TIP3    H243163   4.703   2.642   2.893  0.8734  2.1128  0.1038
 7250TIP3   OH243164   4.669   3.591   0.945  0.1558  0.6989 -0.2237
 7250TIP3    H143165   4.633   3.660   1.001 -0.5930 -1.7481  2.5220
 7250TIP3    H243166   4.760   3.584   0.971 -0.2829 -0.6946  1.1096
 7251TIP3   OH243167   0.859   0.559   5.677 -0.0698 -0.3011  0.7665
 7251TIP3    H143168   0.816   0.569   5.762 -0.0132  0.5000  0.7104
 7251TIP3    H243169   0.852   0.646   5.636  0.8721 -0.3787  0.4133
 7252TIP3   OH243170   3.124   4.517   0.658  0.1673 -0.6002  0.1636
 7252TIP3    H143171   3.153   4.547   0.572  2.7234  0.2066  1.1921
 7252TIP3    H243172   3.192   4.457   0.687 -1.2561 -1.8039  1.1610
 7253TIP3   OH243173   0.385   4.940  12.312  0.2716 -0.0770  0.5122
 7253TIP3    H143174   0.388   4.864  12.370  0.4797 -0.0114  0.5858
 7253TIP3    H243175   0.384   4.902  12.224  1.1949 -0.1424  0.5293
 7254TIP3   OH243176   1.911   3.432  14.922 -0.1460 -0.0949  0.2393
 7254TIP3    H143177   1.918   3.438  14.827 -0.3585  1.9021  0.2974
 7254TIP3    H243178   1.982   3.487  14.955 -2.1634  2.1950  1.1298
 7255TIP3   OH243179   6.543   5.677   4.249  0.6463 -0.0159  0.0924
 7255TIP3    H143180   6.516   5.766   4.270  0.6197 -0.0309  0.1193
 7255TIP3    H243181   6.504   5.622   4.317 -1.4767 -0.3784 -1.3083
 7256TIP3   OH243182   1.190   3.455  12.142 -0.8666 -0.4516 -0.7196
 7256TIP3    H143183   1.255   3.518  12.173 -3.0823  1.1507  1.0234
 7256TIP3    H243184   1.236   3.371  12.143  1.0151  0.4966  0.9965
 7257TIP3   OH243185   6.208   3.290  16.766 -0.4304 -0.3538  0.6776
 7257TIP3    H143186   6.249   3.354  16.707  0.8542 -1.3409  0.4554
 7257TIP3    H243187   6.201   3.336  16.850  1.1410 -0.1269  0.7182
 7258TIP3   OH243188   0.919   0.259   1.323 -0.4014  0.2055 -0.3107
 7258TIP3    H143189   0.901   0.206   1.401  1.0201 -0.7214 -0.5875
 7258TIP3    H243190   0.832   0.281   1.289 -1.0449 -1.5631  0.0803
 7259TIP3   OH243191   0.493   5.175  13.311 -0.2529  0.8502  0.4987
 7259TIP3    H143192   0.404   5.170  13.346  0.2763 -2.3026  1.7158
 7259TIP3    H243193   0.536   5.242  13.364 -1.5574  1.6262  0.6392
 7260TIP3   OH243194   5.233   3.651  12.800  0.4785  0.4447 -0.3791
 7260TIP3    H143195   5.224   3.677  12.892 -0.3018  0.7761 -0.5460
 7260TIP3    H243196   5.317   3.605  12.797 -0.1686 -0.9424  0.8348
 7261TIP3   OH243197   1.239   1.211   3.519  0.5987 -0.3275 -0.7534
 7261TIP3    H143198   1.222   1.185   3.609  0.5275 -1.9872 -1.1960
 7261TIP3    H243199   1.152   1.229   3.483  0.5107 -0.7547 -0.7700
 7262TIP3   OH243200   0.886   0.894  12.340 -0.1726 -0.7956 -0.1738
 7262TIP3    H143201   0.909   0.930  12.254  1.2258 -0.7460  0.2003
 7262TIP3    H243202   0.793   0.913  12.349  0.0529  0.8544 -0.8832
 7263TIP3   OH243203   2.484   5.938  11.091  0.4341  0.2985 -0.4043
 7263TIP3    H143204   2.461   5.845  11.084 -0.3663  0.4598 -0.1017
 7263TIP3    H243205   2.525   5.959  11.007  0.1172 -0.1968 -0.6916
 7264TIP3   OH243206   0.390   0.396  15.015 -0.4652 -0.5019 -0.5492
 7264TIP3    H143207   0.321   0.434  14.960 -0.3641 -0.4120 -0.6157
 7264TIP3    H243208   0.346   0.375  15.098 -0.9419 -1.8864 -1.1107
 7265TIP3   OH243209   2.386   0.702   0.755 -0.1166 -0.4288 -0.0258
 7265TIP3    H143210   2.356   0.739   0.838  0.4832 -1.5959  0.7428
 7265TIP3    H243211   2.444   0.630   0.781  0.2084 -0.7118 -1.4627
 7266TIP3   OH243212   0.203   5.124  16.394  0.0712  0.1487  0.3227
 7266TIP3    H143213   0.291   5.134  16.357 -0.4435 -1.1878 -1.3901
 7266TIP3    H243214   0.170   5.214  16.400  0.7085  0.5248 -1.2146
 7267TIP3   OH243215   0.759   6.349   5.221 -0.0267  0.7035 -0.0633
 7267TIP3    H143216   0.703   6.273   5.210  0.9646 -0.1916  0.8205
 7267TIP3    H243217   0.815   6.350   5.143  0.0858  0.4027  0.0124
 7268TIP3   OH243218   5.761   1.926   6.608 -0.2664 -0.0390  0.6066
 7268TIP3    H143219   5.804   1.990   6.665 -0.9180 -0.0367  1.1032
 7268TIP3    H243220   5.683   1.971   6.575  0.5642  0.2708 -1.0187
 7269TIP3   OH243221   3.972   0.546   6.325 -0.2002  0.2596 -0.4533
 7269TIP3    H143222   3.943   0.631   6.358 -0.1351 -0.6951  2.3699
 7269TIP3    H243223   3.893   0.491   6.328 -0.1517  0.0742 -1.8646
 7270TIP3   OH243224   1.609   6.421   4.882  0.1222  0.9110 -0.2480
 7270TIP3    H143225   1.524   6.416   4.838  0.8511 -0.3979 -1.5901
 7270TIP3    H243226   1.669   6.456   4.816  0.3023  3.9107  1.3183
 7271TIP3   OH243227   0.758   2.312  14.039 -0.1136 -0.1969 -0.2832
 7271TIP3    H143228   0.782   2.283  14.127 -0.5368 -0.5662 -0.2863
 7271TIP3    H243229   0.725   2.401  14.052 -2.7030 -1.1485  0.3633
 7272TIP3   OH243230   4.133   6.010  16.498 -0.2132  0.2323  0.1207
 7272TIP3    H143231   4.151   6.100  16.527  0.3622  0.3701 -0.6188
 7272TIP3    H243232   4.164   5.955  16.569  1.4800  0.5421 -0.3437
 7273TIP3   OH243233   5.136   4.145  13.649 -0.0319  0.4048 -0.1491
 7273TIP3    H143234   5.072   4.100  13.595 -0.5329  0.8707  0.0514
 7273TIP3    H243235   5.118   4.115  13.739 -1.1487  1.8855  0.1490
 7274TIP3   OH243236   3.464   2.649  16.042 -0.5043 -0.0810  0.5138
 7274TIP3    H143237   3.443   2.695  15.961  0.4505  1.1567  0.9225
 7274TIP3    H243238   3.491   2.561  16.014 -1.1024  0.0210 -0.4159
 7275TIP3   OH243239   4.247   2.581   0.464 -0.1656 -0.3761 -0.2576
 7275TIP3    H143240   4.294   2.654   0.423  0.7384  0.4570  2.0849
 7275TIP3    H243241   4.189   2.622   0.528  0.7727 -1.6816  1.5237
 7276TIP3   OH243242   3.762   2.627   2.713 -0.1031 -0.2540  0.0539
 7276TIP3    H143243   3.775   2.554   2.773  0.0801  1.4892  2.2802
 7276TIP3    H243244   3.831   2.617   2.647 -1.4950 -3.3073 -1.1419
 7277TIP3   OH243245   0.336   2.314   4.158  1.1025 -0.1086 -0.0810
 7277TIP3    H143246   0.245   2.322   4.129  1.6441 -0.6120 -2.1024
 7277TIP3    H243247   0.353   2.220   4.157  1.1672 -0.1619  2.0360
 7278TIP3   OH243248   0.188   3.493  12.999  0.3056 -0.5604  0.0417
 7278TIP3    H143249   0.109   3.452  13.034  0.9075  0.2453  2.5304
 7278TIP3    H243250   0.176   3.587  13.015  0.9945 -0.2375 -1.2095
 7279TIP3   OH243251   1.812   5.535  15.733 -0.6733 -0.1438  0.1238
 7279TIP3    H143252   1.838   5.623  15.762 -0.0389 -0.6929  1.2882
 7279TIP3    H243253   1.830   5.479  15.808  0.3603 -1.5277 -1.1074
 7280TIP3   OH243254   5.393   1.009   2.135  0.1540 -0.1807  0.2095
 7280TIP3    H143255   5.364   1.035   2.222 -0.3068  1.6134 -0.4442
 7280TIP3    H243256   5.488   1.001   2.143  0.2076  0.7814  0.6898
 7281TIP3   OH243257   1.035   6.053  14.272 -0.0365 -0.0037 -0.1708
 7281TIP3    H143258   0.983   6.020  14.346 -1.5466  3.4266  0.4965
 7281TIP3    H243259   1.122   6.068  14.310 -0.8343  1.8762  1.0880
 7282TIP3   OH243260   1.530   4.732   2.421  0.1287 -0.3031  0.7131
 7282TIP3    H143261   1.484   4.678   2.485  0.0363  1.1597  1.9682
 7282TIP3    H243262   1.465   4.798   2.394  0.4700 -0.3020 -0.1285
 7283TIP3   OH243263   1.763   6.222  12.152  0.2705 -0.0849  0.0950
 7283TIP3    H143264   1.841   6.275  12.171  1.8627 -1.3359 -2.4598
 7283TIP3    H243265   1.715   6.273  12.087  0.2934 -0.4641 -0.2213
 7284TIP3   OH243266   0.465   4.957   5.269  0.3157 -0.4030  0.3311
 7284TIP3    H143267   0.505   4.917   5.192 -1.9807  0.8566 -1.6266
 7284TIP3    H243268   0.538   5.001   5.314  1.6176 -0.6037 -1.4752
 7285TIP3   OH243269   4.226   2.870   1.961  0.0867 -0.5672 -0.0957
 7285TIP3    H143270   4.145   2.865   1.912  0.3072 -0.9130 -0.4306
 7285TIP3    H243271   4.207   2.827   2.044 -0.5460  0.8029  0.4908
 7286TIP3   OH243272   4.807   4.984  16.348  0.4730 -0.1368  0.1953
 7286TIP3    H143273   4.846   5.066  16.318 -0.2826  0.7822  1.5940
 7286TIP3    H243274   4.869   4.916  16.321  0.3012  0.6580 -2.5240
 7287TIP3   OH243275   3.171   0.473  10.796  0.4363  0.0462 -0.1119
 7287TIP3    H143276   3.123   0.410  10.743  2.7067 -1.0920 -0.9597
 7287TIP3    H243277   3.217   0.527  10.733  2.1001 -0.4339  0.6308
 7288TIP3   OH243278   5.523   3.645  11.393 -0.1278  0.4717 -0.6236
 7288TIP3    H143279   5.523   3.722  11.335  0.9326  1.4964  0.6657
 7288TIP3    H243280   5.442   3.652  11.443  0.7783  1.8260  0.7649
 7289TIP3   OH243281   1.079   5.120   4.130 -0.1041  0.0161  0.1953
 7289TIP3    H143282   1.129   5.057   4.078  0.3243  0.8560 -0.4344
 7289TIP3    H243283   1.145   5.167   4.182 -0.4303 -0.1312  0.7555
 7290TIP3   OH243284   4.362   1.720   1.623 -0.1492  0.0502 -0.0915
 7290TIP3    H143285   4.413   1.639   1.627 -2.0137 -1.1528  1.5324
 7290TIP3    H243286   4.379   1.763   1.707 -0.4544  0.4877 -0.2525
 7291TIP3   OH243287   0.229   5.050   0.403  0.0945 -0.0848 -0.5696
 7291TIP3    H143288   0.159   5.061   0.467 -0.3602 -0.2221 -1.0423
 7291TIP3    H243289   0.284   4.981   0.441 -1.6146 -2.0843 -1.5386
 7292TIP3   OH243290   2.882   6.246   1.465  0.3691  0.5721 -0.1989
 7292TIP3    H143291   2.892   6.334   1.502  2.9255 -0.2403  1.3355
 7292TIP3    H243292   2.905   6.255   1.373 -0.3349  1.6438 -0.2842
 7293TIP3   OH243293   5.091   4.472   2.943  0.3767 -0.0681 -0.5324
 7293TIP3    H143294   5.088   4.376   2.950  0.2982  0.0667  3.3355
 7293TIP3    H243295   5.002   4.496   2.916 -0.2721 -1.0442  0.6182
 7294TIP3   OH243296   1.179   0.996   2.250  0.7305  0.0616 -0.3988
 7294TIP3    H143297   1.117   0.953   2.191  0.6562  0.2968 -0.4932
 7294TIP3    H243298   1.185   0.938   2.326  2.6629 -1.5385 -1.6379
 7295TIP3   OH243299   6.743   4.425  13.631  0.2997 -0.1423 -0.0150
 7295TIP3    H143300   6.740   4.363  13.703  1.1016  0.9398  0.9955
 7295TIP3    H243301   6.715   4.375  13.554 -0.7014 -1.2801  1.0655
 7296TIP3   OH243302   3.520   4.244   5.119 -0.1960 -0.5851  0.2782
 7296TIP3    H143303   3.611   4.268   5.105 -0.1475 -1.3907 -1.0447
 7296TIP3    H243304   3.523   4.175   5.185 -0.0450  0.6598  1.6141
 7297TIP3   OH243305   3.127   1.457   0.131  0.4183 -0.2451 -0.2374
 7297TIP3    H143306   3.184   1.407   0.191 -0.9721 -0.5265  0.9089
 7297TIP3    H243307   3.089   1.391   0.073  0.7833 -0.1360 -0.6040
 7298TIP3   OH243308   3.497   3.647  14.067 -0.1165  0.6260 -0.5282
 7298TIP3    H143309   3.451   3.681  13.990  0.4511  1.4914 -0.4972
 7298TIP3    H243310   3.487   3.716  14.133  0.3713  0.3781 -0.1882
 7299TIP3   OH243311   5.802   0.713  11.753  0.5088 -0.7619 -0.0405
 7299TIP3    H143312   5.786   0.638  11.697 -0.7443  0.0075 -0.7638
 7299TIP3    H243313   5.834   0.781  11.694 -0.8150  0.0560  0.1308
 7300TIP3   OH243314   4.950   5.611   1.132  0.4633 -0.3990  0.4435
 7300TIP3    H143315   4.987   5.685   1.180 -0.0274  0.2800 -0.2164
 7300TIP3    H243316   4.986   5.534   1.176  1.7212  0.2352  0.5497
 7301TIP3   OH243317   1.594   6.466  12.292 -0.9678 -0.4608  0.1339
 7301TIP3    H143318   1.674   6.512  12.315 -1.5421  0.4154  0.4502
 7301TIP3    H243319   1.579   6.488  12.200 -0.2688 -1.5245 -0.2474
 7302TIP3   OH243320   5.765   4.263   0.797 -0.5296  0.7869 -0.2890
 7302TIP3    H143321   5.858   4.251   0.819 -0.5475  0.4427 -0.3980
 7302TIP3    H243322   5.723   4.184   0.830 -0.8604  1.1533  0.1808
 7303TIP3   OH243323   1.636   1.122  11.234  0.4503  0.7463 -0.0491
 7303TIP3    H143324   1.638   1.217  11.223 -0.5306  0.6730 -0.9748
 7303TIP3    H243325   1.604   1.088  11.150  0.8683 -0.4114  0.2352
 7304TIP3   OH243326   1.740   2.093   1.813 -0.3475  0.4880  0.1087
 7304TIP3    H143327   1.759   2.109   1.721  0.4289  0.3315  0.2395
 7304TIP3    H243328   1.802   2.147   1.861 -0.8349  0.6756  0.5483
 7305TIP3   OH243329   2.529   4.324   3.166  0.3236  0.6747 -0.0146
 7305TIP3    H143330   2.529   4.417   3.189 -1.3939  0.8203 -0.4706
 7305TIP3    H243331   2.573   4.320   3.080  0.5794  1.0298  0.0981
 7306TIP3   OH243332   6.219   4.236   3.228  0.2591  0.7486  0.4771
 7306TIP3    H143333   6.231   4.186   3.147 -1.1704  1.1973 -0.0299
 7306TIP3    H243334   6.174   4.175   3.287  2.4350 -0.0345  1.4581
 7307TIP3   OH243335   1.322   0.404   5.686  0.2493 -0.3998 -0.0668
 7307TIP3    H143336   1.283   0.490   5.695 -0.4798 -0.8058  0.8905
 7307TIP3    H243337   1.253   0.343   5.714  0.1867 -1.4158 -2.2443
 7308TIP3   OH243338   0.277   3.765   6.109  0.1177  0.3952  0.1471
 7308TIP3    H143339   0.343   3.732   6.170  2.1196  0.9248 -1.6448
 7308TIP3    H243340   0.196   3.722   6.137  1.2999 -0.7733  2.0249
 7309TIP3   OH243341   1.798   1.699   0.464  0.3307  0.0734 -0.0443
 7309TIP3    H143342   1.874   1.723   0.516  1.0331  1.5706 -1.6605
 7309TIP3    H243343   1.793   1.604   0.471  1.3832  0.0966  1.3710
 7310TIP3   OH243344   1.014   0.165   2.608 -0.8102  0.1555 -0.9610
 7310TIP3    H143345   1.035   0.171   2.701 -2.3377  2.9044 -0.6700
 7310TIP3    H243346   0.948   0.095   2.602  0.9230 -1.6010 -0.3972
 7311TIP3   OH243347   0.211   3.783   4.254 -0.3885 -0.5431 -0.1474
 7311TIP3    H143348   0.172   3.781   4.342 -0.7631  1.4540 -0.2128
 7311TIP3    H243349   0.136   3.795   4.196 -0.1396 -1.8611 -0.7705
 7312TIP3   OH243350   5.074   1.385  11.370 -0.2942  0.1175 -0.3431
 7312TIP3    H143351   5.132   1.310  11.385  0.9905  1.2493  0.6325
 7312TIP3    H243352   5.020   1.359  11.296  0.8690 -1.3558 -0.7236
 7313TIP3   OH243353   4.200   4.098  15.264  0.7576 -0.3573  0.0700
 7313TIP3    H143354   4.211   4.059  15.177 -1.8112 -0.6889 -0.1706
 7313TIP3    H243355   4.287   4.092  15.304  1.3295 -2.9510 -1.3439
 7314TIP3   OH243356   2.782   1.475  14.385  1.0170 -0.1606 -0.0470
 7314TIP3    H143357   2.729   1.482  14.305  0.9138 -2.4682 -0.2363
 7314TIP3    H243358   2.872   1.474  14.353  1.0259 -0.0025 -0.0300
 7315TIP3   OH243359   2.081   1.589   4.420  0.8291  0.6179 -0.3716
 7315TIP3    H143360   2.123   1.664   4.377 -0.9644  0.3049 -2.8803
 7315TIP3    H243361   2.022   1.629   4.484 -0.6225  1.5016 -2.1584
 7316TIP3   OH243362   1.745   6.590   3.436  0.2107 -0.2376 -0.3239
 7316TIP3    H143363   1.806   6.643   3.488 -0.2127  1.2437 -1.2920
 7316TIP3    H243364   1.748   6.629   3.349 -3.0417  0.7146 -0.1225
 7317TIP3   OH243365   5.901   5.450   2.703  0.4895 -0.4176  0.2456
 7317TIP3    H143366   5.908   5.355   2.707  1.5208 -0.3819 -0.1891
 7317TIP3    H243367   5.848   5.474   2.778 -2.9587 -1.5766 -1.6027
 7318TIP3   OH243368   5.229   0.748  17.069 -0.0408 -0.2087  0.0372
 7318TIP3    H143369   5.313   0.718  17.034 -0.2404 -0.3757 -0.2992
 7318TIP3    H243370   5.250   0.829  17.116 -0.0547  1.0100 -1.9803
 7319TIP3   OH243371   2.087   2.567   1.989  0.1130  0.4656  0.1633
 7319TIP3    H143372   2.103   2.643   2.045  0.3835  1.3221 -1.0423
 7319TIP3    H243373   1.991   2.563   1.981  0.0928  0.6075  0.3366
 7320TIP3   OH243374   4.268   6.316   1.228 -0.7744 -0.6107  0.3072
 7320TIP3    H143375   4.289   6.388   1.169  0.7602  0.0117  1.5439
 7320TIP3    H243376   4.269   6.355   1.315 -1.6127 -1.7903  0.8856
 7321TIP3   OH243377   5.354   3.621  12.048  0.2047 -0.9907 -0.2121
 7321TIP3    H143378   5.274   3.672  12.054 -0.5800 -2.1207 -0.7859
 7321TIP3    H243379   5.424   3.685  12.063 -0.7811  0.0419  0.1330
 7322TIP3   OH243380   2.566   3.938   2.972  0.0170 -0.5976 -0.3278
 7322TIP3    H143381   2.559   3.989   3.053  0.2908  0.3188 -0.8607
 7322TIP3    H243382   2.496   3.972   2.916  1.0954  0.2349 -1.2218
 7323TIP3   OH243383   5.625   2.184  16.268 -0.1855 -0.2398 -0.2858
 7323TIP3    H143384   5.692   2.121  16.297 -1.0900 -1.1655 -0.1684
 7323TIP3    H243385   5.544   2.154  16.308 -0.6458  1.0321 -0.2033
 7324TIP3   OH243386   6.597   1.364   6.243  0.1161  0.6229  0.2147
 7324TIP3    H143387   6.567   1.280   6.209  0.5269  0.4037  0.3739
 7324TIP3    H243388   6.680   1.343   6.287  0.5494  1.2186 -0.2952
 7325TIP3   OH243389   4.314   2.889  14.892 -0.4601  0.3280  0.7081
 7325TIP3    H143390   4.371   2.966  14.884 -0.8245  0.6372  1.0930
 7325TIP3    H243391   4.284   2.873  14.802 -0.5079  0.7322  0.6486
 7326TIP3   OH243392   6.085   5.378   4.831 -0.1315  0.1247  0.2357
 7326TIP3    H143393   6.129   5.346   4.752 -1.0250  0.4978 -0.4391
 7326TIP3    H243394   6.147   5.441   4.869  0.3244 -0.0865 -0.1445
 7327TIP3   OH243395   1.258   2.333  11.395  0.4272 -0.0120  0.3886
 7327TIP3    H143396   1.177   2.377  11.420  0.1896 -1.1989  1.8577
 7327TIP3    H243397   1.252   2.324  11.300 -0.4966  1.1588  0.3118
 7328TIP3   OH243398   6.326   5.894  14.044 -0.1458 -0.3789 -0.4417
 7328TIP3    H143399   6.394   5.928  13.986  1.1653 -1.2094  0.5497
 7328TIP3    H243400   6.374   5.842  14.109 -1.7075 -0.7297  0.4755
 7329TIP3   OH243401   2.212   1.811  12.481  0.0102 -0.8655 -0.6629
 7329TIP3    H143402   2.197   1.809  12.386  3.7740 -0.8038 -1.3828
 7329TIP3    H243403   2.152   1.880  12.512 -1.2075 -0.7617 -2.9781
 7330TIP3   OH243404   2.160   5.228   5.873  0.0719 -0.1892 -0.2200
 7330TIP3    H143405   2.144   5.141   5.911 -2.3093  0.3619  0.1959
 7330TIP3    H243406   2.073   5.261   5.851  1.0388  1.5039 -1.7781
 7331TIP3   OH243407   6.533   4.940   3.978  0.5173 -0.0166  0.2362
 7331TIP3    H143408   6.520   4.849   3.953  0.6174 -0.1361  0.6050
 7331TIP3    H243409   6.493   4.947   4.065 -1.8096  0.9353 -0.8170
 7332TIP3   OH243410   0.066   4.271  17.369 -0.2630 -0.7815  0.4910
 7332TIP3    H143411  -0.016   4.302  17.332 -1.0236 -2.6410  0.5236
 7332TIP3    H243412   0.132   4.332  17.337 -1.4506 -0.1075 -0.7284
 7333TIP3   OH243413   0.838   0.374  15.507  0.0834  0.0695 -0.4221
 7333TIP3    H143414   0.793   0.328  15.578  0.0182  1.4332  0.4540
 7333TIP3    H243415   0.918   0.407  15.548  0.0541  0.8552 -0.9854
 7334TIP3   OH243416   5.515   1.744   4.771 -0.6953 -0.0074  0.0087
 7334TIP3    H143417   5.526   1.786   4.686 -3.6545  0.7970 -0.0619
 7334TIP3    H243418   5.550   1.807   4.834 -1.9878  1.0987 -0.3512
 7335TIP3   OH243419   5.540   4.263  13.519 -0.0931 -0.8195  0.1836
 7335TIP3    H143420   5.525   4.281  13.426  0.2165  0.4681  0.3644
 7335TIP3    H243421   5.470   4.202  13.542 -2.6933  1.8527  0.0062
 7336TIP3   OH243422   0.251   1.692  14.973 -0.5122  0.2933  0.8035
 7336TIP3    H143423   0.228   1.599  14.973  0.1743  0.1046 -0.2090
 7336TIP3    H243424   0.168   1.738  14.987 -1.3337 -0.3904 -1.4233
 7337TIP3   OH243425   1.389   5.145  15.061  0.2815  0.6676 -0.0591
 7337TIP3    H143426   1.397   5.050  15.064 -3.6020  0.0646 -2.2096
 7337TIP3    H243427   1.350   5.169  15.145 -1.6381 -0.1636 -0.6554
 7338TIP3   OH243428   3.925   4.867  13.835  0.0775 -0.4644  0.1942
 7338TIP3    H143429   3.832   4.884  13.822 -0.2763 -1.5699  1.1081
 7338TIP3    H243430   3.928   4.797  13.900  1.5721  0.3752  1.1100
 7339TIP3   OH243431   2.504   5.694   4.668 -0.5499  0.1832  0.3510
 7339TIP3    H143432   2.465   5.771   4.709 -1.8144  0.6142 -1.5586
 7339TIP3    H243433   2.499   5.626   4.735 -3.5964  0.5316  0.6122
 7340TIP3   OH243434   6.121   2.250  16.426 -0.4727 -0.8971 -0.3085
 7340TIP3    H143435   6.138   2.244  16.520  1.8569  0.5456 -0.5571
 7340TIP3    H243436   6.116   2.344  16.409 -2.0481 -1.1591 -1.4728
 7341TIP3   OH243437   6.443   0.437  11.085 -0.0584 -0.3862  0.1743
 7341TIP3    H143438   6.381   0.365  11.070  1.5990 -1.6970 -0.7340
 7341TIP3    H243439   6.390   0.516  11.074 -2.0808 -1.4065  1.7835
 7342TIP3   OH243440   3.057   3.769  12.957 -0.5575 -0.5716 -0.2253
 7342TIP3    H143441   3.028   3.849  12.913  1.0428  0.2875  0.1617
 7342TIP3    H243442   2.977   3.724  12.982 -1.4957  0.4593 -1.2698
 7343TIP3   OH243443   4.208   1.438   0.300 -0.9298  0.5178  0.8118
 7343TIP3    H143444   4.293   1.402   0.326 -0.0833  0.7737 -1.3847
 7343TIP3    H243445   4.204   1.524   0.344 -0.7555 -0.1125  2.1162
 7344TIP3   OH243446   2.591   5.478   6.146 -0.0892  0.6194  0.0930
 7344TIP3    H143447   2.583   5.548   6.211  0.4120  0.6410  0.1321
 7344TIP3    H243448   2.677   5.440   6.163 -0.0900  0.4199 -0.3570
 7345TIP3   OH243449   5.505   5.367  12.433  0.2521  0.2841  0.0798
 7345TIP3    H143450   5.600   5.358  12.420 -0.1703 -2.0325 -2.2840
 7345TIP3    H243451   5.491   5.461  12.436  2.5128  0.7476 -0.9575
 7346TIP3   OH243452   3.185   6.665  11.381  0.5007  0.3431  0.3557
 7346TIP3    H143453   3.231   6.690  11.301  0.0809  1.2925  0.4100
 7346TIP3    H243454   3.254   6.629  11.437  0.5230 -2.3142 -1.1638
 7347TIP3   OH243455   0.523   2.668   2.578 -0.3702 -0.2942 -0.3073
 7347TIP3    H143456   0.616   2.674   2.559 -0.4414 -0.9968 -0.9092
 7347TIP3    H243457   0.484   2.628   2.500 -1.3312  0.9279 -0.4788
 7348TIP3   OH243458   6.012   6.695   0.376  0.3856 -0.1580 -0.2244
 7348TIP3    H143459   6.022   6.724   0.285 -1.2546  1.0408 -0.0613
 7348TIP3    H243460   5.995   6.776   0.425 -0.3401 -0.9687  0.9010
 7349TIP3   OH243461   4.688   4.468   2.597  0.4850 -0.8008  0.0663
 7349TIP3    H143462   4.631   4.408   2.548  0.1302  0.1303 -0.6911
 7349TIP3    H243463   4.771   4.465   2.551  0.9947 -1.9313  0.9968
 7350TIP3   OH243464   1.746   1.013   4.972 -0.0353 -0.5420 -0.2446
 7350TIP3    H143465   1.706   1.037   5.056 -2.0764 -0.1875 -1.2342
 7350TIP3    H243466   1.675   0.971   4.924  0.1816  1.7975 -2.8499
 7351TIP3   OH243467   6.330   3.175  16.450  0.1738  0.2646  0.5794
 7351TIP3    H143468   6.262   3.151  16.387  0.3318  0.3543  0.3739
 7351TIP3    H243469   6.282   3.220  16.520 -0.0186  0.0498  0.5877
 7352TIP3   OH243470   6.187   2.904  14.207 -0.5681  0.3242  0.8819
 7352TIP3    H143471   6.128   2.946  14.145  0.5615 -1.4902 -1.6368
 7352TIP3    H243472   6.274   2.918  14.170  0.1298 -1.1364  1.8669
 7353TIP3   OH243473   2.140   5.476   3.147  0.5810 -0.1086 -0.0431
 7353TIP3    H143474   2.116   5.385   3.127 -0.5217 -0.1247  1.1623
 7353TIP3    H243475   2.213   5.468   3.209 -0.9384 -0.2995  1.8386
 7354TIP3   OH243476   6.543   6.139   0.081  0.1947 -0.2759 -0.0606
 7354TIP3    H143477   6.588   6.109   0.001  0.0689  1.7930 -0.9813
 7354TIP3    H243478   6.614   6.171   0.137  0.1043  0.9192 -0.5847
 7355TIP3   OH243479   2.144   1.679   5.673 -0.0229 -0.0727 -0.0823
 7355TIP3    H143480   2.211   1.743   5.699 -1.1181  0.4408  1.6573
 7355TIP3    H243481   2.074   1.732   5.634  0.2710 -0.5327 -1.2628
 7356TIP3   OH243482   3.950   2.944  15.617 -0.1929 -0.1309  0.1078
 7356TIP3    H143483   3.856   2.929  15.621 -0.3694  0.9819  0.7779
 7356TIP3    H243484   3.970   2.951  15.524 -0.8660  0.1468 -0.0194
 7357TIP3   OH243485   2.222   0.605  13.908 -0.2095 -0.3908  0.5339
 7357TIP3    H143486   2.206   0.672  13.975  0.2015 -0.4929  0.7361
 7357TIP3    H243487   2.238   0.525  13.959  1.9556 -0.1087  0.3934
 7358TIP3   OH243488   0.458   5.930  16.313 -0.9658 -0.2856  0.3115
 7358TIP3    H143489   0.488   6.016  16.344 -0.4731  0.2033 -1.4280
 7358TIP3    H243490   0.460   5.875  16.392  3.0255  0.1180  0.7061
 7359TIP3   OH243491   4.655   3.682   1.726  0.4006 -0.3023  0.4518
 7359TIP3    H143492   4.685   3.770   1.749 -0.3400  0.2268 -0.5194
 7359TIP3    H243493   4.588   3.697   1.660  1.8210 -1.6904 -1.4009
 7360TIP3   OH243494   1.751   4.708  17.033  0.3323 -0.3299  0.7717
 7360TIP3    H143495   1.784   4.621  17.010  1.6865 -0.1231  1.7738
 7360TIP3    H243496   1.790   4.726  17.119  0.5952  1.5283  0.3088
 7361TIP3   OH243497   4.684   3.111  16.098  0.3328  0.0766  0.0378
 7361TIP3    H143498   4.604   3.162  16.108 -0.1036 -0.4766 -0.5833
 7361TIP3    H243499   4.700   3.073  16.184  1.2774  2.1262  0.8301
 7362TIP3   OH243500   5.385   0.649  16.524 -0.0445 -0.7135 -0.3273
 7362TIP3    H143501   5.401   0.738  16.492  0.6687 -0.8868 -0.4832
 7362TIP3    H243502   5.290   0.644  16.535 -0.0881  0.0827 -0.2659
 7363TIP3   OH243503   5.575   2.661   5.564 -1.2089 -0.1866  0.5156
 7363TIP3    H143504   5.607   2.594   5.505 -1.5704 -0.5952  0.7755
 7363TIP3    H243505   5.652   2.688   5.615 -1.3147 -1.3806  1.3545
 7364TIP3   OH243506   2.366   3.627   5.496 -0.4193 -0.2764  0.0348
 7364TIP3    H143507   2.373   3.581   5.580  2.5916 -0.0673 -0.0003
 7364TIP3    H243508   2.327   3.563   5.437 -0.4757 -1.2184  1.0514
 7365TIP3   OH243509   0.746   3.941  13.751  0.3524 -0.4208  0.2486
 7365TIP3    H143510   0.729   3.925  13.658  1.6243 -1.1817  0.1262
 7365TIP3    H243511   0.836   3.910  13.764  1.1523  2.0675  1.1518
 7366TIP3   OH243512   1.297   4.410   4.884 -0.3038 -0.0685  0.2490
 7366TIP3    H143513   1.285   4.422   4.978 -1.7999 -0.1840  0.1093
 7366TIP3    H243514   1.346   4.488   4.856 -1.2416  0.7835  0.8904
 7367TIP3   OH243515   3.103   5.891  16.621  0.1151  0.9791 -1.0592
 7367TIP3    H143516   3.172   5.844  16.668 -0.1954  0.5968 -0.9850
 7367TIP3    H243517   3.041   5.917  16.689  0.0443  1.0803 -1.1615
 7368TIP3   OH243518   3.170   0.052   2.322  0.3736  0.1384 -0.0532
 7368TIP3    H143519   3.112   0.090   2.257  0.3906  1.2873  0.5793
 7368TIP3    H243520   3.132  -0.034   2.340  0.4446 -0.2527 -1.6515
 7369TIP3   OH243521   4.553   4.796  14.197 -0.2295 -0.5551  0.3900
 7369TIP3    H143522   4.506   4.787  14.113  0.5309 -1.4181  0.0354
 7369TIP3    H243523   4.594   4.710  14.210 -2.7646 -1.5292  3.1735
 7370TIP3   OH243524   2.521   2.802   5.371 -0.1788  0.6274 -0.5135
 7370TIP3    H143525   2.475   2.862   5.430  2.7769  2.0668  0.4920
 7370TIP3    H243526   2.489   2.715   5.396 -1.9048  1.4920  0.4790
 7371TIP3   OH243527   6.101   3.807   2.563  0.6974  0.3260 -0.0156
 7371TIP3    H143528   6.029   3.745   2.573 -1.5641  2.5118 -1.7178
 7371TIP3    H243529   6.131   3.823   2.652 -0.7392 -0.8440  0.7252
 7372TIP3   OH243530   4.737   3.869  15.024 -0.2545  0.8025 -0.3972
 7372TIP3    H143531   4.718   3.779  15.053 -1.4811  0.8918 -0.8747
 7372TIP3    H243532   4.659   3.919  15.049  0.9946  2.0605  1.1461
 7373TIP3   OH243533   1.966   2.148  16.069 -0.0517  0.0519  0.9856
 7373TIP3    H143534   2.020   2.069  16.067  1.6508  1.1880  0.3836
 7373TIP3    H243535   2.021   2.214  16.112 -0.1726  1.7761 -1.3345
 7374TIP3   OH243536   3.307   4.293   5.661 -0.1459 -0.1154 -0.0860
 7374TIP3    H143537   3.218   4.262   5.645 -0.3300  0.9979 -1.4091
 7374TIP3    H243538   3.359   4.213   5.672 -1.1119 -0.8072 -0.4195
 7375TIP3   OH243539   1.430   2.718   3.425  0.1687  0.5035  0.4181
 7375TIP3    H143540   1.461   2.686   3.340 -0.8402  1.6189 -0.4144
 7375TIP3    H243541   1.337   2.738   3.410 -0.1714  0.1742  1.9516
 7376TIP3   OH243542   3.951   0.523  13.708  0.4927 -0.2181  0.1186
 7376TIP3    H143543   3.959   0.515  13.803 -0.3315 -1.6373  0.1000
 7376TIP3    H243544   3.879   0.585  13.696 -0.9305 -1.7225  0.4884
 7377TIP3   OH243545   0.832   6.446  15.221 -0.1771  0.2582 -0.2957
 7377TIP3    H143546   0.775   6.378  15.256  0.3111  0.1023  0.2131
 7377TIP3    H243547   0.903   6.398  15.178 -1.7845  0.3719 -3.3973
 7378TIP3   OH243548   4.477   3.571   5.596 -0.1464  0.7294  0.0246
 7378TIP3    H143549   4.478   3.502   5.663  1.1236 -0.9382 -1.5877
 7378TIP3    H243550   4.384   3.581   5.575 -0.4656  0.4540  1.2156
 7379TIP3   OH243551   1.141   3.202  10.432  0.2594  0.9364 -0.6747
 7379TIP3    H143552   1.216   3.253  10.462  0.0959  0.3482  0.8383
 7379TIP3    H243553   1.076   3.212  10.502 -1.0068  1.2359 -1.8289
 7380TIP3   OH243554   2.543   1.288   0.121 -0.0448  0.2633 -0.1674
 7380TIP3    H143555   2.603   1.250   0.186  0.1821  1.4048  0.3156
 7380TIP3    H243556   2.496   1.356   0.169  0.3106  1.3051 -1.2636
 7381TIP3   OH243557   1.157   0.002  12.780 -0.3775 -0.0541 -0.1267
 7381TIP3    H143558   1.188   0.015  12.691  0.7487 -1.0919  0.0717
 7381TIP3    H243559   1.217   0.054  12.834  0.7599 -1.6482  0.2222
 7382TIP3   OH243560   1.008   2.544  17.113  0.0336  0.2254 -0.2117
 7382TIP3    H143561   0.946   2.603  17.070 -1.1579 -0.7834  0.0444
 7382TIP3    H243562   1.076   2.528  17.048 -0.9245 -0.0481 -1.1732
 7383TIP3   OH243563   4.612   5.843  15.765  0.2743  0.3006  0.0446
 7383TIP3    H143564   4.707   5.850  15.763  0.3156 -0.0317  0.5143
 7383TIP3    H243565   4.584   5.859  15.675  0.9316 -1.6618 -0.5753
 7384TIP3   OH243566   0.796   0.412   2.239  0.2669  0.1395 -0.8750
 7384TIP3    H143567   0.859   0.413   2.311 -0.4869 -0.5543 -0.1805
 7384TIP3    H243568   0.733   0.481   2.261 -2.0714 -2.4119  1.1506
 7385TIP3   OH243569   5.002   2.707  11.010 -0.1473  0.6137  0.2072
 7385TIP3    H143570   5.092   2.677  11.000 -0.4058  0.5055 -3.4440
 7385TIP3    H243571   4.950   2.627  11.003 -0.5624  0.8258  0.8674
 7386TIP3   OH243572   4.192   5.584  12.521 -0.5205 -0.2986 -0.0005
 7386TIP3    H143573   4.239   5.500  12.521 -0.3707 -0.2623 -2.0563
 7386TIP3    H243574   4.100   5.560  12.525 -0.4613 -0.5383 -0.0505
 7387TIP3   OH243575   5.353   5.564   4.190  0.1182  0.2275  0.2883
 7387TIP3    H143576   5.412   5.515   4.134 -0.6645 -0.4415  0.0411
 7387TIP3    H243577   5.279   5.587   4.134 -0.7815 -0.6525  1.0926
 7388TIP3   OH243578   2.585   6.374   3.722  0.1368 -0.1841  0.2166
 7388TIP3    H143579   2.521   6.339   3.659  0.4335 -1.2047  0.4674
 7388TIP3    H243580   2.569   6.468   3.721  0.2403 -0.1395 -1.5120
 7389TIP3   OH243581   1.365   1.713  15.551 -0.3103 -0.1381 -0.5317
 7389TIP3    H143582   1.431   1.665  15.501  0.0060 -1.6445  1.2139
 7389TIP3    H243583   1.284   1.662  15.539 -0.2082 -0.5626  0.5313
 7390TIP3   OH243584   6.198   6.531  12.878 -0.9455  0.0588  0.0486
 7390TIP3    H143585   6.155   6.616  12.880 -0.5851  0.3124 -1.4057
 7390TIP3    H243586   6.292   6.551  12.878 -0.7587 -0.4749  2.8575
 7391TIP3   OH243587   2.396   4.967  12.945  0.3144 -0.0829  0.0385
 7391TIP3    H143588   2.435   5.053  12.928 -1.9124  1.4932  2.1384
 7391TIP3    H243589   2.456   4.926  13.006  0.6737  0.6423  0.1916
 7392TIP3   OH243590   1.093   0.391   3.811 -0.1069 -0.0679 -0.3335
 7392TIP3    H143591   1.156   0.460   3.789 -0.8096  0.6725 -0.0960
 7392TIP3    H243592   1.116   0.365   3.900 -1.5824  1.9265  0.7265
 7393TIP3   OH243593   0.723   6.546   5.614  0.0378 -0.1731  0.1030
 7393TIP3    H143594   0.817   6.528   5.616  0.1155  0.1907 -0.1454
 7393TIP3    H243595   0.682   6.460   5.622  0.3479 -0.1788  2.8354
 7394TIP3   OH243596   5.942   5.349   4.000 -0.6103  0.3982 -0.5705
 7394TIP3    H143597   5.924   5.312   4.087  0.3369 -0.3462 -0.6774
 7394TIP3    H243598   6.031   5.322   3.980 -1.2250 -0.4986 -2.3101
 7395TIP3   OH243599   6.495   2.288   2.360  0.0446  0.2477 -0.2399
 7395TIP3    H143600   6.402   2.313   2.361  0.3962  1.6378  0.8906
 7395TIP3    H243601   6.506   2.235   2.439  0.1372 -0.2080 -0.5590
 7396TIP3   OH243602   4.534   1.405  14.515 -0.0132  0.3485  0.2397
 7396TIP3    H143603   4.521   1.368  14.602 -1.0357 -1.0631 -0.4760
 7396TIP3    H243604   4.627   1.388  14.495 -0.4246 -1.9116 -0.0457
 7397TIP3   OH243605   4.774   3.338  11.437  0.3620  0.5167 -0.0376
 7397TIP3    H143606   4.837   3.374  11.375  1.1859 -1.8705 -0.7164
 7397TIP3    H243607   4.816   3.346  11.523  0.3794  1.4333 -0.1293
 7398TIP3   OH243608   2.371   4.045  17.330 -0.4466 -0.0503 -0.0990
 7398TIP3    H143609   2.376   3.987  17.406  1.5537 -0.7350 -0.6785
 7398TIP3    H243610   2.286   4.026  17.291 -0.1079 -2.2098  0.0774
 7399TIP3   OH243611   1.858   0.605   1.969 -0.2976 -0.2268  0.3640
 7399TIP3    H143612   1.783   0.656   1.940  1.4306  2.0501 -0.3689
 7399TIP3    H243613   1.880   0.641   2.055  0.9544  0.3309 -0.1673
 7400TIP3   OH243614   0.108   0.910  11.447 -0.4443 -0.0811  0.5583
 7400TIP3    H143615   0.113   0.882  11.356  0.8088 -0.0426  0.5976
 7400TIP3    H243616   0.041   0.977  11.448  1.7745  2.3629 -1.0177
 7401TIP3   OH243617   0.417   4.179  14.446  0.2119 -0.0853  0.4972
 7401TIP3    H143618   0.409   4.267  14.410 -0.2524  0.1884  1.2566
 7401TIP3    H243619   0.439   4.192  14.538 -1.1132 -0.7300  0.9357
 7402TIP3   OH243620   2.787   4.268   1.256 -0.7141  0.2906 -0.2510
 7402TIP3    H143621   2.868   4.306   1.223 -1.9531  2.2300 -1.1966
 7402TIP3    H243622   2.805   4.174   1.262  1.3317  0.5882 -1.1600
 7403TIP3   OH243623   5.612   1.767   0.503  0.2317  0.0811  0.3054
 7403TIP3    H143624   5.593   1.844   0.557  0.9692  1.2813 -1.0678
 7403TIP3    H243625   5.537   1.759   0.445  0.3997  0.0873  0.0887
 7404TIP3   OH243626   6.138   1.628   5.080  0.5499 -0.0398 -0.4594
 7404TIP3    H143627   6.095   1.676   5.151  0.9260 -0.9101  0.3961
 7404TIP3    H243628   6.194   1.564   5.125 -0.6902 -1.9813 -1.4992
 7405TIP3   OH243629   6.251   4.385  11.612  0.0471  0.7043  0.7291
 7405TIP3    H143630   6.165   4.362  11.577 -0.0881  1.5921  0.4586
 7405TIP3    H243631   6.312   4.330  11.563 -0.3964 -0.4096  1.3749
 7406TIP3   OH243632   0.227   0.934  17.282 -0.1203 -0.7557  0.1108
 7406TIP3    H143633   0.274   0.957  17.201 -3.7420  1.7551 -1.5675
 7406TIP3    H243634   0.208   0.841  17.273 -1.1012 -0.3935 -2.4700
 7407TIP3   OH243635   6.136   2.708   6.359 -0.2034  0.2641 -0.5280
 7407TIP3    H143636   6.068   2.775   6.367 -1.9081 -1.4469 -0.0537
 7407TIP3    H243637   6.101   2.645   6.296  0.4281 -1.2280  0.5494
 7408TIP3   OH243638   0.782   0.670  11.257 -0.2882 -0.1521 -0.2112
 7408TIP3    H143639   0.848   0.657  11.189 -1.4655  1.3995 -1.7512
 7408TIP3    H243640   0.792   0.761  11.283 -1.0210 -0.2409  0.4172
 7409TIP3   OH243641   2.296   4.631   3.479 -0.1167 -0.5159 -0.0738
 7409TIP3    H143642   2.327   4.718   3.455  1.3536 -1.4394 -1.7033
 7409TIP3    H243643   2.369   4.592   3.528 -0.5963 -0.9993  0.2706
 7410TIP3   OH243644   0.547   4.607  11.251 -0.6622  0.4393 -0.3442
 7410TIP3    H143645   0.519   4.605  11.160 -1.7131  1.2730 -0.0638
 7410TIP3    H243646   0.476   4.564  11.299 -0.6141  0.9319  0.1847
 7411TIP3   OH243647   0.365   1.191  16.752 -0.2945 -0.5256 -0.5808
 7411TIP3    H143648   0.305   1.136  16.802  1.7073 -1.2272  1.2155
 7411TIP3    H243649   0.404   1.132  16.688 -0.9711 -0.2268 -1.2900
 7412TIP3   OH243650   0.178   2.270  11.302  0.0675 -0.1072 -0.0720
 7412TIP3    H143651   0.178   2.328  11.226 -0.5523  1.8423  1.3507
 7412TIP3    H243652   0.243   2.307  11.361  0.4884 -1.5482  0.4199
 7413TIP3   OH243653   2.500   5.755  15.632 -0.0129  0.7294 -0.1735
 7413TIP3    H143654   2.475   5.784  15.544  0.0445 -0.1087 -0.4689
 7413TIP3    H243655   2.569   5.816  15.657  0.5534  0.4710 -1.0506
 7414TIP3   OH243656   4.678   3.708  16.516  0.2222  0.4488 -0.4124
 7414TIP3    H143657   4.720   3.705  16.602 -1.3857 -1.1544  0.3820
 7414TIP3    H243658   4.748   3.687  16.454  0.8514 -1.2339  0.7886
 7415TIP3   OH243659   4.788   0.484   4.712 -0.1322 -0.3528  0.0525
 7415TIP3    H143660   4.742   0.453   4.634  1.0134  0.1363 -0.8518
 7415TIP3    H243661   4.720   0.490   4.779 -1.4333  0.5453 -1.2741
 7416TIP3   OH243662   5.151   0.915  12.150  0.1227  0.6116  0.2987
 7416TIP3    H143663   5.087   0.852  12.116 -0.2625 -0.1385  2.2981
 7416TIP3    H243664   5.235   0.871  12.141 -0.0328  0.2136  0.7667
 7417TIP3   OH243665   0.123   0.146   3.552  0.3951 -0.1205 -0.1922
 7417TIP3    H143666   0.028   0.144   3.566  0.7490 -1.1392  2.9199
 7417TIP3    H243667   0.149   0.054   3.552  1.5214  0.1856  0.2424
 7418TIP3   OH243668   4.119   5.281  15.050  0.0420 -0.2799  0.1912
 7418TIP3    H143669   4.184   5.302  15.118  0.1181  1.8817 -0.4709
 7418TIP3    H243670   4.127   5.187  15.038  1.3335 -0.4364  1.8660
 7419TIP3   OH243671   6.248   4.971  12.095  0.3994  0.1791 -0.5732
 7419TIP3    H143672   6.197   5.052  12.087  0.0388  0.0865  0.5663
 7419TIP3    H243673   6.288   4.977  12.182  0.3588 -0.8726 -0.4718
 7420TIP3   OH243674   2.242   4.498   5.420  0.0705  0.0871  0.3500
 7420TIP3    H143675   2.301   4.563   5.458  2.6578 -2.3725  0.8471
 7420TIP3    H243676   2.297   4.421   5.405 -1.7713 -0.6865 -4.2363
 7421TIP3   OH243677   4.364   4.456   4.231 -0.2037 -0.6798 -0.1524
 7421TIP3    H143678   4.274   4.433   4.253 -0.1841 -0.9624 -0.3528
 7421TIP3    H243679   4.368   4.447   4.136  0.1978 -1.2795 -0.0877
 7422TIP3   OH243680   6.696   1.141  11.449  0.1054 -0.5308  0.2353
 7422TIP3    H143681   6.709   1.185  11.365 -0.8931 -0.6293  0.0152
 7422TIP3    H243682   6.678   1.211  11.511 -2.0681 -0.5830 -0.2266
 7423TIP3   OH243683   3.003   3.662   4.596 -0.7838 -0.4303  0.0457
 7423TIP3    H143684   2.927   3.604   4.601 -0.2801 -0.9803  2.6301
 7423TIP3    H243685   2.965   3.748   4.578 -2.1050 -0.6543  1.4779
 7424TIP3   OH243686   3.811   2.093  14.079  0.0595 -0.1061  0.8119
 7424TIP3    H143687   3.735   2.151  14.078 -0.8359 -1.2202 -0.5096
 7424TIP3    H243688   3.783   2.018  14.132  0.1021 -0.6396  0.1057
 7425TIP3   OH243689   4.271   1.515  14.772  0.7208 -0.0268 -0.1964
 7425TIP3    H143690   4.223   1.453  14.717 -1.2157 -0.7566  2.0967
 7425TIP3    H243691   4.236   1.601  14.748 -2.0606 -0.5438  1.4654
 7426TIP3   OH243692   5.062   0.936   4.908 -0.4668 -0.3513  0.2738
 7426TIP3    H143693   5.014   0.875   4.964  0.5486 -0.3217  1.2094
 7426TIP3    H243694   5.010   0.941   4.828 -1.0291 -1.7747  0.5153
 7427TIP3   OH243695   0.677   0.306   1.534  0.0802  0.3603 -0.5768
 7427TIP3    H143696   0.710   0.269   1.616 -2.5614 -0.6637  0.1196
 7427TIP3    H243697   0.636   0.389   1.560 -0.2863  0.2985 -0.9509
 7428TIP3   OH243698   5.992   3.757   4.016  0.5532 -0.1776  0.0748
 7428TIP3    H143699   6.032   3.817   4.080 -0.9383  1.3831 -0.3677
 7428TIP3    H243700   5.937   3.699   4.069 -1.5313  1.7999  0.2384
 7429TIP3   OH243701   6.258   4.184  15.735 -0.2996  1.1042 -0.6467
 7429TIP3    H143702   6.198   4.202  15.808  1.6299  3.0866  0.5924
 7429TIP3    H243703   6.209   4.209  15.657 -2.0448 -0.0313  0.0237
 7430TIP3   OH243704   3.633   2.496   0.366  0.4005 -0.7902  0.2613
 7430TIP3    H143705   3.629   2.402   0.347 -0.0955 -0.8477  0.5952
 7430TIP3    H243706   3.562   2.510   0.430  1.3667 -0.4484  1.2992
 7431TIP3   OH243707   3.722   0.150  15.945  0.4922  0.9449 -0.1809
 7431TIP3    H143708   3.669   0.219  15.987 -2.4654 -0.1591 -1.7904
 7431TIP3    H243709   3.692   0.150  15.854  1.8424 -1.1530 -0.6853
 7432TIP3   OH243710   2.659   5.483  11.894  0.2492 -0.2725 -0.0497
 7432TIP3    H143711   2.664   5.515  11.804  1.7244 -1.3698 -0.4047
 7432TIP3    H243712   2.575   5.439  11.900 -0.7979  1.6177 -0.2253
 7433TIP3   OH243713   3.915   0.831   1.786  0.1907 -0.0542 -0.4080
 7433TIP3    H143714   3.860   0.908   1.779 -0.2945 -0.3680 -0.0780
 7433TIP3    H243715   3.854   0.758   1.798  0.6955 -0.3039  0.8332
 7434TIP3   OH243716   6.474   6.031  11.809 -0.1270 -0.5373 -0.6131
 7434TIP3    H143717   6.462   5.980  11.890  1.0558  0.8977  0.5269
 7434TIP3    H243718   6.567   6.021  11.788 -0.3285 -0.5219 -1.5504
 7435TIP3   OH243719   1.258   6.236   4.172  0.6380  0.0083 -0.6768
 7435TIP3    H143720   1.186   6.178   4.147  0.7074  0.4366 -1.9168
 7435TIP3    H243721   1.220   6.295   4.237  0.9916 -2.4567  1.9560
 7436TIP3   OH243722   0.440   0.924  15.375  0.0290  0.3833  0.1649
 7436TIP3    H143723   0.348   0.923  15.401  0.0020  0.2581  0.0661
 7436TIP3    H243724   0.455   0.836  15.340 -0.2951  0.9771 -1.5383
 7437TIP3   OH243725   5.409   4.074   3.252 -0.3478  0.0122  0.3418
 7437TIP3    H143726   5.368   4.099   3.335 -0.4341 -0.2756  0.3880
 7437TIP3    H243727   5.381   4.141   3.190  0.0439  0.4572  0.6353
 7438TIP3   OH243728   3.675   3.747  15.963  0.4390  0.4826 -0.1971
 7438TIP3    H143729   3.762   3.708  15.972  0.0331 -0.8232 -1.4889
 7438TIP3    H243730   3.616   3.682  15.999 -0.0169  1.3943  0.7379
 7439TIP3   OH243731   6.596   0.528  16.247  0.1109  0.3623 -0.6701
 7439TIP3    H143732   6.610   0.567  16.160  0.9260  1.5808 -0.0266
 7439TIP3    H243733   6.528   0.463  16.233  0.1391  0.6127 -2.2083
 7440TIP3   OH243734   5.199   5.366  14.879 -0.4435 -0.0517  0.3530
 7440TIP3    H143735   5.262   5.314  14.930  1.3797  0.5813 -1.1313
 7440TIP3    H243736   5.160   5.426  14.943 -0.3653 -1.1991  1.5220
 7441TIP3   OH243737   2.607   5.330   5.624 -0.2284 -0.3026 -0.4384
 7441TIP3    H143738   2.665   5.361   5.693 -0.3496  0.0868 -0.5115
 7441TIP3    H243739   2.662   5.326   5.546 -0.4997  0.9131 -0.7130
 7442TIP3   OH243740   6.119   6.018  17.350 -1.0660  0.1283  0.0408
 7442TIP3    H143741   6.173   6.056  17.419 -1.5434  0.3019  0.3228
 7442TIP3    H243742   6.046   6.079  17.341 -2.1611 -1.0107  0.9123
 7443TIP3   OH243743   0.452   1.128   1.650  0.1456  0.0358 -0.3199
 7443TIP3    H143744   0.523   1.180   1.613  1.7129 -1.4787  0.4202
 7443TIP3    H243745   0.376   1.187   1.649  1.7656  2.2838  0.3718
 7444TIP3   OH243746   4.948   2.665  12.890  0.0053  0.8432  0.2292
 7444TIP3    H143747   4.951   2.759  12.874  1.1789  0.8284  0.3102
 7444TIP3    H243748   4.886   2.655  12.962  0.7157  1.6741  0.9734
 7445TIP3   OH243749   4.046   1.875  15.615  0.0599  0.2546  0.1851
 7445TIP3    H143750   4.131   1.916  15.596  1.0743 -0.4124  2.7226
 7445TIP3    H243751   4.068   1.783  15.634 -1.1885  0.0984  0.9935
 7446TIP3   OH243752   5.463   5.631  15.127 -0.2824  0.5820 -0.0332
 7446TIP3    H143753   5.466   5.540  15.155  0.6059  0.7860  0.5683
 7446TIP3    H243754   5.552   5.649  15.097 -0.2068  1.5236  0.7293
 7447TIP3   OH243755   6.529   0.914   3.437 -0.1689 -0.4164 -0.1565
 7447TIP3    H143756   6.623   0.927   3.427  0.0932 -1.4507  0.6995
 7447TIP3    H243757   6.504   0.978   3.504  0.0548 -0.5685  0.0771
 7448TIP3   OH243758   3.435   4.824  15.332  0.0445 -0.1813 -0.3176
 7448TIP3    H143759   3.509   4.884  15.319  1.6461 -1.6943  1.1928
 7448TIP3    H243760   3.396   4.852  15.414 -0.1361 -0.2945 -0.3663
 7449TIP3   OH243761   2.110   2.850  17.037 -0.7708  0.1782 -0.6661
 7449TIP3    H143762   2.154   2.797  16.971  2.8194  2.3704 -0.3067
 7449TIP3    H243763   2.133   2.808  17.120  0.2009  0.9618 -0.5171
 7450TIP3   OH243764   1.428   3.636  16.368 -0.0590 -0.4283 -0.1171
 7450TIP3    H143765   1.377   3.716  16.362 -0.8946 -0.7996  1.3169
 7450TIP3    H243766   1.362   3.566  16.367  0.4613 -0.9626  0.8091
 7451TIP3   OH243767   6.749   4.377  17.056 -0.2026 -0.1632 -0.5622
 7451TIP3    H143768   6.698   4.296  17.054 -0.5115 -0.1482  2.6395
 7451TIP3    H243769   6.683   4.447  17.051 -0.7118 -0.1461  3.4364
 7452TIP3   OH243770   4.739   0.434  12.346  0.2304 -0.3219  0.6803
 7452TIP3    H143771   4.832   0.414  12.357  0.3379 -1.2529 -1.4211
 7452TIP3    H243772   4.739   0.520  12.304  0.1903 -0.6148  0.0682
 7453TIP3   OH243773   4.515   1.010  17.228  0.2901  0.0185  0.2215
 7453TIP3    H143774   4.423   1.037  17.236  0.3612 -0.2703  3.4932
 7453TIP3    H243775   4.511   0.921  17.192 -0.7279 -0.0431  0.4579
 7454TIP3   OH243776   6.164   1.474   2.974 -0.0045 -0.0119  0.5687
 7454TIP3    H143777   6.072   1.499   2.975 -0.0141  0.2299 -1.5779
 7454TIP3    H243778   6.168   1.397   2.917  1.1806  0.3221  0.1627
 7455TIP3   OH243779   0.510   3.290  15.154 -0.4265 -0.4379 -0.4418
 7455TIP3    H143780   0.446   3.309  15.084 -0.3196  1.6096 -0.0459
 7455TIP3    H243781   0.592   3.326  15.121 -0.4630  0.9275  0.8792
 7456TIP3   OH243782   6.380   0.637  16.972  0.4098 -0.0949  0.0391
 7456TIP3    H143783   6.391   0.589  17.054  0.0608 -1.4291 -0.6571
 7456TIP3    H243784   6.293   0.610  16.941 -0.4102  2.0879  0.2945
 7457TIP3   OH243785   3.005   4.398   1.150  0.6376 -0.0517  1.1172
 7457TIP3    H143786   3.059   4.320   1.167  0.7958  0.1771  1.6758
 7457TIP3    H243787   2.992   4.397   1.055  1.0377 -0.4981  1.0598
 7458TIP3   OH243788   2.679   5.617  11.652 -1.4081 -0.2496 -0.0325
 7458TIP3    H143789   2.584   5.620  11.663 -1.6336 -0.0216 -1.7948
 7458TIP3    H243790   2.695   5.658  11.567  0.1042 -1.9324 -0.6244
 7459TIP3   OH243791   5.130   0.026  14.504 -0.2818  0.4441 -0.2415
 7459TIP3    H143792   5.071  -0.030  14.453  1.0895  0.2936 -1.7427
 7459TIP3    H243793   5.214  -0.020  14.503  0.5300  1.8841 -0.3463
 7460TIP3   OH243794   2.516   2.382  13.340 -0.6006 -0.1902 -0.1384
 7460TIP3    H143795   2.446   2.446  13.339  0.6466  1.2536  0.7196
 7460TIP3    H243796   2.560   2.393  13.256  1.3529  2.2069  1.0570
 7461TIP3   OH243797   2.516   4.644  12.794 -0.2047  0.1159  0.0225
 7461TIP3    H143798   2.472   4.608  12.871 -1.2291 -0.2537 -0.7179
 7461TIP3    H243799   2.568   4.717  12.828 -0.7993  0.0848  1.0331
 7462TIP3   OH243800   5.923   3.206  13.076  0.1517 -0.4477  0.0064
 7462TIP3    H143801   5.830   3.228  13.071  0.3437  0.3732  0.0226
 7462TIP3    H243802   5.943   3.211  13.170  0.2295 -0.5709 -0.0029
 7463TIP3   OH243803   2.306   6.568  15.950 -0.0019  0.6470 -0.0697
 7463TIP3    H143804   2.375   6.632  15.930  1.4588 -0.9966 -0.6480
 7463TIP3    H243805   2.260   6.555  15.867  2.3478 -1.9246 -1.1654
 7464TIP3   OH243806   0.353   0.359   1.204 -0.5367  0.2997 -0.7062
 7464TIP3    H143807   0.333   0.409   1.283  0.2975 -0.0520 -0.2601
 7464TIP3    H243808   0.298   0.398   1.136 -2.1447 -0.1516  0.2937
 7465TIP3   OH243809   3.683   2.542   5.815 -0.2499 -0.2119  0.6202
 7465TIP3    H143810   3.756   2.603   5.806 -0.5507  0.3153  1.6645
 7465TIP3    H243811   3.605   2.595   5.801 -0.5497 -0.1755  2.2148
 7466TIP3   OH243812   1.792   3.085   1.228 -0.4031 -0.2227 -0.1828
 7466TIP3    H143813   1.713   3.035   1.207 -0.2528 -0.5751  0.0798
 7466TIP3    H243814   1.774   3.123   1.314 -0.8927  0.9583 -0.7924
 7467TIP3   OH243815   3.997   4.925   6.441  0.5145 -0.2133  0.1960
 7467TIP3    H143816   3.942   4.873   6.500  1.0387  0.9064  1.7757
 7467TIP3    H243817   3.943   4.940   6.364 -0.2701 -1.6177  0.4509
 7468TIP3   OH243818   0.174   3.278   3.038  0.2391  0.4448 -0.3216
 7468TIP3    H143819   0.154   3.196   2.993 -0.7045  0.5537 -0.1238
 7468TIP3    H243820   0.270   3.282   3.040  0.3562 -1.4826  1.1775
 7469TIP3   OH243821   2.866   5.001   3.544 -0.5059 -0.4125  0.7214
 7469TIP3    H143822   2.891   4.981   3.634  1.7941  0.0970  0.2519
 7469TIP3    H243823   2.923   5.073   3.519 -0.4082 -1.1967 -1.4818
 7470TIP3   OH243824   6.020   5.153  15.427  0.1527  0.3153 -0.5445
 7470TIP3    H143825   5.951   5.166  15.491 -0.0056  1.7133 -0.9450
 7470TIP3    H243826   6.092   5.208  15.458  1.0266 -0.9506 -0.2502
 7471TIP3   OH243827   5.522   4.595  16.123  0.2736 -0.0833  0.0035
 7471TIP3    H143828   5.486   4.572  16.037  1.1966  0.7465 -0.6266
 7471TIP3    H243829   5.446   4.598  16.181 -1.2180  4.2165 -1.7749
 7472TIP3   OH243830   6.276   1.507   2.243  0.4343  0.0950 -0.4003
 7472TIP3    H143831   6.242   1.582   2.194  1.9554  0.7494 -0.5072
 7472TIP3    H243832   6.311   1.544   2.323 -0.6793 -0.7914  0.5286
 7473TIP3   OH243833   3.487   5.468   3.360  0.2297  0.0056 -0.2858
 7473TIP3    H143834   3.521   5.379   3.372 -2.4759 -1.4541 -2.5402
 7473TIP3    H243835   3.566   5.523   3.362  2.1108 -2.5012  0.2335
 7474TIP3   OH243836   3.906   0.734   5.468  0.2431 -0.0546  0.6405
 7474TIP3    H143837   3.943   0.811   5.426  0.5192 -1.2537 -1.4110
 7474TIP3    H243838   3.967   0.714   5.540  0.3381  1.4029  1.0015
 7475TIP3   OH243839   0.850   5.687   5.153  0.3142  0.4949 -1.0007
 7475TIP3    H143840   0.780   5.622   5.164 -1.1388  2.2485  0.7829
 7475TIP3    H243841   0.815   5.748   5.088  0.4849  1.0258 -0.5897
 7476TIP3   OH243842   4.974   6.134   2.470  0.1972 -0.1886  0.0388
 7476TIP3    H143843   4.894   6.081   2.472  0.2628 -0.2677  1.2584
 7476TIP3    H243844   4.945   6.221   2.441 -0.6197  0.2201  1.9654
 7477TIP3   OH243845   0.282   0.766  12.557 -0.6252  0.2510 -0.3434
 7477TIP3    H143846   0.239   0.818  12.624 -0.6796 -0.2122 -0.0189
 7477TIP3    H243847   0.371   0.755  12.589 -0.5401  0.3605 -0.5375
 7478TIP3   OH243848   0.229   2.258  13.835 -1.4053 -0.4395 -0.0568
 7478TIP3    H143849   0.305   2.307  13.865 -1.1138 -0.9140 -0.0003
 7478TIP3    H243850   0.155   2.314  13.855 -1.1676 -0.4913  1.0084
 7479TIP3   OH243851   4.472   5.752   2.063  0.3044  0.0708 -0.2893
 7479TIP3    H143852   4.525   5.830   2.046  1.1811 -0.2049  1.0070
 7479TIP3    H243853   4.393   5.765   2.011  1.4562  0.6929 -1.9674
 7480TIP3   OH243854   3.075   0.900  14.793  0.1064 -0.5385 -0.3890
 7480TIP3    H143855   3.104   0.809  14.797 -0.4954 -0.7089  0.5364
 7480TIP3    H243856   3.061   0.917  14.700  0.2035 -1.4000 -0.5660
 7481TIP3   OH243857   4.802   0.033   2.630  0.3027 -0.0757 -0.0159
 7481TIP3    H143858   4.720  -0.016   2.631  1.0379 -1.4171 -0.9361
 7481TIP3    H243859   4.782   0.117   2.670 -1.5419 -0.3397 -0.3327
 7482TIP3   OH243860   1.081   0.891  15.440  0.3652 -0.3730  0.2195
 7482TIP3    H143861   1.012   0.827  15.458  0.7077 -0.7029  0.3701
 7482TIP3    H243862   1.038   0.958  15.386  0.6799 -2.1498 -2.4085
 7483TIP3   OH243863   4.093   5.982  13.606  0.3556 -0.4183 -0.5470
 7483TIP3    H143864   4.185   6.002  13.591  0.1515  1.4623  0.3610
 7483TIP3    H243865   4.047   6.063  13.583 -0.7466 -0.3223  1.7200
 7484TIP3   OH243866   0.467   4.739  12.099 -0.3735 -0.0314  0.5643
 7484TIP3    H143867   0.375   4.730  12.075 -0.5007  0.8786  0.6633
 7484TIP3    H243868   0.501   4.808  12.042 -0.6837  2.1832  2.8368
 7485TIP3   OH243869   6.368   2.828  13.551  0.0578  0.2891  0.1425
 7485TIP3    H143870   6.457   2.842  13.585 -0.5323  1.7750  1.2203
 7485TIP3    H243871   6.346   2.738  13.576  0.8274  0.3041  0.9325
 7486TIP3   OH243872   5.303   2.054   4.593 -0.6556  0.3386  0.6075
 7486TIP3    H143873   5.365   2.097   4.652 -0.0095  0.1912  0.0519
 7486TIP3    H243874   5.278   2.121   4.530 -1.3667  0.5042  1.0618
 7487TIP3   OH243875   0.897   4.046   2.783  0.3699  0.1718 -0.2662
 7487TIP3    H143876   0.939   3.960   2.794 -3.6764 -2.0891 -0.6380
 7487TIP3    H243877   0.904   4.064   2.689  1.0289  0.1426 -0.2253
 7488TIP3   OH243878   1.176   1.593  12.773 -0.1477  0.0003  0.1611
 7488TIP3    H143879   1.181   1.630  12.685  1.0979  0.4814  0.4110
 7488TIP3    H243880   1.251   1.630  12.819 -0.6059 -0.4779  1.3438
 7489TIP3   OH243881   1.755   0.537  17.218 -0.3271  0.1229  0.3757
 7489TIP3    H143882   1.824   0.474  17.239  0.5843  0.9852  0.0347
 7489TIP3    H243883   1.768   0.557  17.125 -0.4987  0.9210  0.5124
 7490TIP3   OH243884   4.170   3.155  10.729 -0.2150 -0.3371  0.0801
 7490TIP3    H143885   4.251   3.127  10.688 -0.0287 -1.1924  1.0085
 7490TIP3    H243886   4.174   3.251  10.726  1.1860 -0.3448  0.7817
 7491TIP3   OH243887   0.531   2.252   0.360  0.8092 -0.5957  0.7808
 7491TIP3    H143888   0.466   2.322   0.352  0.7507 -0.6464  0.8159
 7491TIP3    H243889   0.480   2.173   0.374  0.9022 -0.4660  2.0203
 7492TIP3   OH243890   1.196   2.383   0.229  0.3733  0.2479 -0.2938
 7492TIP3    H143891   1.160   2.460   0.185 -0.0382  0.8495  1.0267
 7492TIP3    H243892   1.120   2.329   0.249  0.6233 -0.3317 -0.8787
 7493TIP3   OH243893   3.027   5.988   2.314 -0.2015 -0.3298 -0.1398
 7493TIP3    H143894   2.953   5.997   2.375 -0.3232 -1.5868 -0.0723
 7493TIP3    H243895   2.992   6.018   2.230 -0.1649  0.9942  0.2934
 7494TIP3   OH243896   2.571   3.683   4.483 -0.0262 -0.7702 -0.7890
 7494TIP3    H143897   2.486   3.684   4.526  0.0718 -0.4708 -0.5978
 7494TIP3    H243898   2.553   3.708   4.393  0.0165  0.5421 -0.4474
 7495TIP3   OH243899   4.536   2.765  14.628 -0.7182 -0.6120  0.3178
 7495TIP3    H143900   4.445   2.792  14.619  0.0851  1.4290 -2.9182
 7495TIP3    H243901   4.586   2.846  14.630  1.1410 -1.6861  1.8886
 7496TIP3   OH243902   5.392   6.296   2.712  0.1776  0.5360 -0.1169
 7496TIP3    H143903   5.394   6.309   2.617  1.1148  0.5649 -0.1039
 7496TIP3    H243904   5.482   6.312   2.740 -0.3180  1.6307  0.9324
 7497TIP3   OH243905   5.452   6.286   5.355  0.4092  0.0411  0.8902
 7497TIP3    H143906   5.433   6.349   5.285 -1.6771 -0.1576  1.1981
 7497TIP3    H243907   5.527   6.236   5.324  0.2804  0.7639 -0.6627
 7498TIP3   OH243908   5.070   6.012   1.281  0.1016 -0.5026  0.3820
 7498TIP3    H143909   5.087   5.920   1.302  1.1430  0.0458  2.2028
 7498TIP3    H243910   5.096   6.022   1.190  1.7953 -1.6161  0.6987
 7499TIP3   OH243911   2.474   2.923  11.620  0.0677  0.5001 -0.3915
 7499TIP3    H143912   2.548   2.975  11.589  1.2626  0.4619  2.0847
 7499TIP3    H243913   2.446   2.872  11.544  0.4772  2.8523 -2.2386
 7500TIP3   OH243914   6.046   1.176   3.870 -0.1509 -0.2124  0.2162
 7500TIP3    H143915   6.061   1.174   3.964 -1.5757 -1.3571  0.4484
 7500TIP3    H243916   6.012   1.089   3.849  0.2386 -0.0127 -1.3762
 7501TIP3   OH243917   4.520   0.352   5.657  0.2787 -0.9683  0.0173
 7501TIP3    H143918   4.577   0.413   5.703 -0.6454 -1.3296  1.7490
 7501TIP3    H243919   4.535   0.268   5.701 -0.7498 -1.3100 -0.2572
 7502TIP3   OH243920   5.382   4.870  13.483 -0.2463 -0.3628  0.0996
 7502TIP3    H143921   5.371   4.785  13.527 -2.9462 -1.0136 -1.5673
 7502TIP3    H243922   5.452   4.855  13.420 -2.4805 -2.3889 -2.1363
 7503TIP3   OH243923   1.730   4.926   0.299 -0.4610 -0.6928  0.1807
 7503TIP3    H143924   1.637   4.938   0.317 -0.8460 -3.2054  0.1600
 7503TIP3    H243925   1.738   4.836   0.269  1.6213  0.2365 -2.5006
 7504TIP3   OH243926   3.512   1.591   0.811 -0.5207 -0.0620 -0.4643
 7504TIP3    H143927   3.532   1.504   0.777  1.7294 -0.0453  0.5991
 7504TIP3    H243928   3.526   1.649   0.736  0.7326 -0.3763 -0.5014
 7505TIP3   OH243929   5.415   5.916  14.408 -0.8667  0.2609 -0.1976
 7505TIP3    H143930   5.327   5.886  14.387 -0.4493 -0.4499 -1.0067
 7505TIP3    H243931   5.410   5.942  14.500 -1.7408 -0.4662 -0.0242
 7506TIP3   OH243932   3.374   2.647  15.036 -0.1513  0.2734 -0.0531
 7506TIP3    H143933   3.281   2.627  15.034  0.2793 -2.1022  0.6743
 7506TIP3    H243934   3.380   2.729  15.085 -1.8983  1.0835 -1.1031
 7507TIP3   OH243935   6.309   2.838   1.572  0.2152  0.2571  0.4257
 7507TIP3    H143936   6.381   2.779   1.595  0.7159  0.8056  0.2642
 7507TIP3    H243937   6.261   2.850   1.654 -1.4932 -2.4768 -0.0254
 7508TIP3   OH243938   6.623   0.879  13.765  0.9023  0.4961 -0.4603
 7508TIP3    H143939   6.564   0.929  13.821  1.8940  0.8897  0.2581
 7508TIP3    H243940   6.622   0.926  13.681 -0.4753 -0.0145 -0.7469
 7509TIP3   OH243941   5.091   4.627   1.073 -0.0452  0.8252  0.4366
 7509TIP3    H143942   5.075   4.540   1.107  3.2341 -0.0150  0.1250
 7509TIP3    H243943   5.076   4.619   0.978 -2.5217  1.4403  0.6937
 7510TIP3   OH243944   1.580   6.270   2.814 -0.2396 -0.1667 -0.3743
 7510TIP3    H143945   1.585   6.225   2.730 -0.9580  1.6864 -1.4724
 7510TIP3    H243946   1.509   6.333   2.803 -0.0444  0.4340  1.4809
 7511TIP3   OH243947   5.291   5.770  14.007 -0.1518  0.5272  0.4022
 7511TIP3    H143948   5.293   5.843  13.944  0.0269  1.1594  1.1183
 7511TIP3    H243949   5.250   5.807  14.085  1.1880  0.2707  1.2614
 7512TIP3   OH243950   5.313   3.828   0.810 -0.2013 -0.2776 -0.3287
 7512TIP3    H143951   5.356   3.784   0.737  1.2748 -0.1045  0.3991
 7512TIP3    H243952   5.290   3.914   0.777 -0.0767 -0.4112 -0.7614
 7513TIP3   OH243953   2.545   4.406  14.776 -0.1596 -0.5652  0.2944
 7513TIP3    H143954   2.510   4.321  14.749  0.7622 -0.6731 -0.5912
 7513TIP3    H243955   2.630   4.386  14.815  0.9487  0.0725 -1.6361
 7514TIP3   OH243956   0.107   6.047  13.411  0.4222 -0.0578 -0.0573
 7514TIP3    H143957   0.037   6.111  13.426  2.4952  2.1557  1.0167
 7514TIP3    H243958   0.110   6.036  13.316  0.1802  1.7392 -0.3131
 7515TIP3   OH243959   1.874   2.109   1.554  0.2466  0.3878 -0.3334
 7515TIP3    H143960   1.855   2.105   1.460  1.0614  1.0753 -0.5427
 7515TIP3    H243961   1.945   2.174   1.561 -1.3158  2.0403  1.0032
 7516TIP3   OH243962   1.145   1.108   2.996  0.1302 -0.7900  0.3366
 7516TIP3    H143963   1.211   1.108   3.066  1.3661 -0.6191 -0.8007
 7516TIP3    H243964   1.065   1.137   3.040  0.7659 -1.0759  1.7690
 7517TIP3   OH243965   6.116   3.718  12.490 -0.2638  0.1677 -0.1182
 7517TIP3    H143966   6.189   3.775  12.466  1.3570 -2.1394 -1.0295
 7517TIP3    H243967   6.157   3.644  12.535 -2.0772 -1.0632 -0.3770
 7518TIP3   OH243968   5.820   5.956  17.047 -0.5623  0.9798  0.2560
 7518TIP3    H143969   5.834   5.872  17.002 -2.8984  1.4779 -1.5946
 7518TIP3    H243970   5.745   5.941  17.104  1.1301  0.9484  2.6342
 7519TIP3   OH243971   4.160   0.005   3.011  0.2136  0.0593 -0.5578
 7519TIP3    H143972   4.138   0.039   3.098  0.0556  1.1559 -1.0179
 7519TIP3    H243973   4.227  -0.061   3.027  1.2388  1.2729  0.2679
 7520TIP3   OH243974   2.875   4.006  16.638  0.3578 -0.2241  0.0657
 7520TIP3    H143975   2.960   4.013  16.595 -0.5150  0.8764 -1.5984
 7520TIP3    H243976   2.859   3.912  16.645  1.2823 -0.4359 -0.4698
 7521TIP3   OH243977   6.018   1.451   5.800  0.2697 -0.2089  0.0158
 7521TIP3    H143978   5.995   1.451   5.893 -1.0394 -1.6598 -0.2620
 7521TIP3    H243979   6.010   1.543   5.773 -1.8105 -0.0991  0.7953
 7522TIP3   OH243980   0.796   2.279  16.779 -0.0564  0.3591 -0.1885
 7522TIP3    H143981   0.835   2.226  16.709 -1.0401 -2.2216  1.0804
 7522TIP3    H243982   0.851   2.262  16.855 -0.5512  0.9850  0.3246
 7523TIP3   OH243983   5.546   1.106   2.895 -0.1267  0.1931  0.4597
 7523TIP3    H143984   5.500   1.057   2.826  0.6544 -0.5684  0.4645
 7523TIP3    H243985   5.610   1.044   2.930  1.2796  1.3748  0.0804
 7524TIP3   OH243986   5.577   5.039   0.727 -0.2866 -0.5318  0.2419
 7524TIP3    H143987   5.501   5.048   0.669 -0.3539  2.5251  0.6578
 7524TIP3    H243988   5.650   5.020   0.668 -0.8015 -0.1356 -0.5383
 7525TIP3   OH243989   3.680   2.665  13.318  0.0698 -0.5540  0.4808
 7525TIP3    H143990   3.676   2.760  13.311  0.9031 -0.6029 -1.1085
 7525TIP3    H243991   3.677   2.647  13.412  0.4649  1.0664  0.8229
 7526TIP3   OH243992   5.810   1.653   1.428 -0.5469 -0.5002 -0.3306
 7526TIP3    H143993   5.733   1.647   1.485 -0.2877 -0.3528  0.0323
 7526TIP3    H243994   5.861   1.575   1.449 -1.0384 -1.0859 -1.2261
 7527TIP3   OH243995   6.717   4.413  16.084  0.5881  0.0098  0.2808
 7527TIP3    H143996   6.630   4.451  16.077  0.1636 -1.0990 -0.9660
 7527TIP3    H243997   6.710   4.350  16.156 -0.6554 -2.4043 -1.7635
 7528TIP3   OH243998   3.392   4.287   4.890  0.3138  0.3234  0.3783
 7528TIP3    H143999   3.463   4.308   4.829  0.3249 -1.8188 -0.4493
 7528TIP3    H244000   3.433   4.289   4.976  0.5422  2.3989  0.2603
 7529TIP3   OH244001   2.163   5.206  12.059  0.8242  0.1235  0.3163
 7529TIP3    H144002   2.151   5.112  12.073  0.4911  0.0901 -0.1526
 7529TIP3    H244003   2.096   5.228  11.993 -0.0390  0.9500  1.4329
 7530TIP3   OH244004   5.391   1.522   1.702  0.3649 -0.4581  0.0808
 7530TIP3    H144005   5.393   1.614   1.677  0.6029 -0.6142 -0.4904
 7530TIP3    H244006   5.298   1.498   1.697  0.3619 -0.3804 -0.2630
 7531TIP3   OH244007   5.217   2.859  11.159 -0.0311  0.0209  0.4474
 7531TIP3    H144008   5.280   2.789  11.144  1.7828  1.8846 -1.3373
 7531TIP3    H244009   5.245   2.901  11.240 -2.1227 -2.1980  2.4624
 7532TIP3   OH244010   5.766   0.941   2.586  0.0822 -0.1691 -0.3552
 7532TIP3    H144011   5.827   0.940   2.513 -0.9406 -0.0235 -1.2263
 7532TIP3    H244012   5.680   0.958   2.547 -0.7647 -1.8009  0.6517
 7533TIP3   OH244013   3.926   2.316   2.720 -0.0229 -0.2040  0.3391
 7533TIP3    H144014   3.860   2.252   2.747  2.6120 -1.9607  3.2483
 7533TIP3    H244015   3.936   2.374   2.795  0.7931  0.8798 -0.5712
 7534TIP3   OH244016   3.788   4.409  15.837 -0.0688 -0.3253  0.1616
 7534TIP3    H144017   3.708   4.372  15.800 -0.4683  0.5229  0.1403
 7534TIP3    H244018   3.782   4.502  15.816  1.4723 -0.4217 -0.8332
 7535TIP3   OH244019   6.144   1.959   5.593  0.1536  0.1551  0.3183
 7535TIP3    H144020   6.126   1.950   5.499  0.8438 -1.0973  0.2946
 7535TIP3    H244021   6.112   2.047   5.615  0.7315  0.7915 -1.2550
 7536TIP3   OH244022   2.544   4.437  17.104 -0.3213 -0.7927 -0.1434
 7536TIP3    H144023   2.450   4.425  17.100 -0.1878 -1.6401 -1.3763
 7536TIP3    H244024   2.580   4.349  17.109  0.4524 -0.6279 -1.8066
 7537TIP3   OH244025   6.226   5.122   0.212 -0.8014  0.4270 -0.4902
 7537TIP3    H144026   6.304   5.162   0.175  0.2560 -1.7911 -0.8437
 7537TIP3    H244027   6.153   5.172   0.176  0.4241  2.4659 -0.2634
 7538TIP3   OH244028   5.142   6.654   5.356  0.2735  0.3381  0.1798
 7538TIP3    H144029   5.134   6.581   5.295 -0.3489 -0.0448  0.7148
 7538TIP3    H244030   5.166   6.614   5.439  0.4770  0.7962  0.3445
 7539TIP3   OH244031   3.635   4.681  14.755  0.1159 -0.5802 -0.4944
 7539TIP3    H144032   3.565   4.718  14.808 -0.0488 -1.3093 -0.1923
 7539TIP3    H244033   3.618   4.587  14.754 -0.7301 -0.4868 -3.0542
 7540TIP3   OH244034   3.706   6.566  12.501 -0.0617  0.0500  0.1267
 7540TIP3    H144035   3.785   6.566  12.554  0.3494 -0.5901 -0.4670
 7540TIP3    H244036   3.634   6.553  12.564  0.2410  1.1872  0.7335
 7541TIP3   OH244037   6.537   3.799   1.869  0.0346  0.4685 -0.1584
 7541TIP3    H144038   6.485   3.729   1.907  0.9344  0.1347  0.5076
 7541TIP3    H244039   6.593   3.829   1.941  1.2474  0.3347 -1.0009
 7542TIP3   OH244040   3.404   3.266   4.194  0.3920 -0.3762  0.3039
 7542TIP3    H144041   3.462   3.228   4.261 -0.1036 -0.9091  0.4362
 7542TIP3    H244042   3.322   3.218   4.203  0.8233 -1.6272 -1.7732
 7543TIP3   OH244043   1.234   4.906  12.808 -0.2097  0.5898 -0.3216
 7543TIP3    H144044   1.292   4.835  12.836 -0.6128  1.1108  2.0488
 7543TIP3    H244045   1.293   4.977  12.783  0.2590  1.0361  1.8363
 7544TIP3   OH244046   1.792   0.033  16.653  0.1321 -0.2951 -0.3830
 7544TIP3    H144047   1.742   0.011  16.731 -0.2495 -0.6604 -0.7292
 7544TIP3    H244048   1.727   0.053  16.587  0.4600  0.4402 -0.4961
 7545TIP3   OH244049   2.874   4.360  14.673 -0.0767 -0.4485  0.0926
 7545TIP3    H144050   2.900   4.271  14.650 -0.2406 -0.9743  1.7969
 7545TIP3    H244051   2.922   4.378  14.754 -0.4195  0.8352  0.0222
 7546TIP3   OH244052   6.037   6.468  15.316 -0.1039 -0.0424 -0.2889
 7546TIP3    H144053   6.086   6.479  15.235 -0.2363 -2.0111 -0.7079
 7546TIP3    H244054   6.104   6.449  15.382 -0.0633  0.6509 -0.1266
 7547TIP3   OH244055   5.389   0.845  16.775  0.1603  0.0512 -0.6785
 7547TIP3    H144056   5.371   0.933  16.744  0.1007 -0.3181 -1.7602
 7547TIP3    H244057   5.476   0.850  16.814  0.5120  0.4160 -1.4973
 7548TIP3   OH244058   1.524   3.667  13.446 -0.8485 -0.5414  0.0625
 7548TIP3    H144059   1.577   3.738  13.410 -1.9100  0.6791  0.8294
 7548TIP3    H244060   1.580   3.590  13.439  1.5453  0.8674  1.8850
 7549TIP3   OH244061   0.299   3.656   1.118 -0.6913  0.6026  0.0384
 7549TIP3    H144062   0.258   3.666   1.031 -1.1570  0.4232  0.2333
 7549TIP3    H244063   0.302   3.745   1.153  1.3886  1.0046 -0.9863
 7550TIP3   OH244064   0.612   3.158   5.360  0.2353  0.1114 -0.4593
 7550TIP3    H144065   0.589   3.191   5.273  0.2473 -2.3639 -1.4826
 7550TIP3    H244066   0.703   3.128   5.351  0.3208  0.0637  0.4799
 7551TIP3   OH244067   3.657   5.333  16.020 -0.6793 -0.0707  0.1957
 7551TIP3    H144068   3.598   5.285  16.078  0.1932 -0.8070  0.4958
 7551TIP3    H244069   3.733   5.354  16.073  0.0275 -0.5415 -0.5951
 7552TIP3   OH244070   1.011   1.716   3.817  0.3336 -0.8599 -0.2756
 7552TIP3    H144071   1.103   1.690   3.820  0.2873 -0.9666  0.9875
 7552TIP3    H244072   0.964   1.640   3.853 -0.1297 -0.3722  0.1679
 7553TIP3   OH244073   4.806   3.735  14.396  0.2854 -0.2382 -0.3042
 7553TIP3    H144074   4.724   3.731  14.444 -0.6962 -1.2820 -1.9581
 7553TIP3    H244075   4.804   3.819  14.350  0.3407 -0.0911 -0.0418
 7554TIP3   OH244076   3.807   2.949   1.541  0.2007  0.5567  0.0846
 7554TIP3    H144077   3.812   3.018   1.607 -0.0823  0.2518  0.4260
 7554TIP3    H244078   3.715   2.924   1.538  0.7372 -2.2699  2.5510
 7555TIP3   OH244079   6.312   5.994  13.193 -0.1039 -0.5884  0.3653
 7555TIP3    H144080   6.218   5.998  13.209  0.0363 -1.8901  1.7063
 7555TIP3    H244081   6.345   5.931  13.258  1.3189 -2.1342 -1.7232
 7556TIP3   OH244082   4.589   6.066  11.365 -0.2472 -0.3323  0.0601
 7556TIP3    H144083   4.520   6.025  11.313 -1.7924  2.3888 -0.2281
 7556TIP3    H244084   4.554   6.070  11.454 -0.4409  0.8567 -0.0428
 7557TIP3   OH244085   1.682   1.157   6.584  0.3270 -0.0519 -0.2457
 7557TIP3    H144086   1.637   1.228   6.630 -0.7984 -1.1661  0.4600
 7557TIP3    H244087   1.766   1.194   6.559  0.9968  0.6667  2.6741
 7558TIP3   OH244088   3.464   5.884   0.919  0.2638  0.1972 -0.4660
 7558TIP3    H144089   3.388   5.827   0.929  1.0633 -1.3489 -2.4281
 7558TIP3    H244090   3.523   5.857   0.989 -0.0795 -0.1967 -0.3238
 7559TIP3   OH244091   0.633   6.054  14.053 -0.1890 -0.4067  0.0673
 7559TIP3    H144092   0.717   6.083  14.017  0.6371 -0.6802  1.6704
 7559TIP3    H244093   0.611   5.976  14.002  0.2809 -0.0424 -0.7051
 7560TIP3   OH244094   4.438   0.180  14.966 -0.1024  0.0208  0.4258
 7560TIP3    H144095   4.437   0.087  14.941  0.6114  0.0882  0.1266
 7560TIP3    H244096   4.516   0.215  14.924  0.1716  0.5411  1.3322
 7561TIP3   OH244097   1.448   4.110  12.674 -0.3358 -0.6438  0.4709
 7561TIP3    H144098   1.431   4.076  12.586  1.3704 -1.3173  0.3655
 7561TIP3    H244099   1.438   4.034  12.731  3.5224 -1.5434  0.2323
 7562TIP3   OH244100   1.235   5.240  13.939  0.4147 -0.2894  0.1344
 7562TIP3    H144101   1.180   5.230  13.861 -1.6878  1.2817  1.2915
 7562TIP3    H244102   1.230   5.155  13.983 -1.3708 -0.1479  0.3004
 7563TIP3   OH244103   5.787   5.077  12.048  0.2618 -0.3568 -0.1777
 7563TIP3    H144104   5.817   5.138  11.980 -1.1060 -0.0134 -0.4958
 7563TIP3    H244105   5.863   5.021  12.064  0.5805 -0.5502 -2.1056
 7564TIP3   OH244106   0.367   2.149   1.855 -0.0236  0.5631  0.1862
 7564TIP3    H144107   0.392   2.144   1.763  1.4642 -1.8596  0.6487
 7564TIP3    H244108   0.449   2.151   1.903 -0.7721  1.4469  1.5148
 7565TIP3   OH244109   1.027   6.598  13.645  0.3980 -0.8014 -0.3043
 7565TIP3    H144110   1.058   6.577  13.734 -0.6455 -1.2889 -0.0431
 7565TIP3    H244111   0.932   6.600  13.652  0.2932 -0.9549 -1.4386
 7566TIP3   OH244112   4.352   6.612   3.823  0.2610  0.0154  0.0326
 7566TIP3    H144113   4.379   6.677   3.888 -2.9489  1.1019  0.4693
 7566TIP3    H244114   4.292   6.554   3.871 -1.0791 -0.0158 -1.5976
 7567TIP3   OH244115   5.772   4.617  16.232 -0.2659  0.0001 -0.3939
 7567TIP3    H144116   5.825   4.689  16.199 -0.4171  1.3910  2.1652
 7567TIP3    H244117   5.686   4.629  16.191 -0.7778  2.3189  1.1881
 7568TIP3   OH244118   4.121   4.240   2.837  1.0298 -0.3154  1.1155
 7568TIP3    H144119   4.106   4.147   2.823  1.3687 -0.1370 -0.7234
 7568TIP3    H244120   4.041   4.282   2.804  1.5531  0.1091  0.3527
 7569TIP3   OH244121   3.846   6.173   1.249  0.8100 -1.0206 -0.1176
 7569TIP3    H144122   3.808   6.094   1.288 -0.1955 -0.9571 -0.8990
 7569TIP3    H244123   3.820   6.243   1.308 -0.3089 -0.9826 -0.6311
 7570TIP3   OH244124   1.240   5.972  16.257  0.2981  0.1218 -0.0195
 7570TIP3    H144125   1.149   6.002  16.260  0.5995  1.1165  3.6190
 7570TIP3    H244126   1.289   6.049  16.227  0.1924  0.4246  0.5782
 7571TIP3   OH244127   6.387   3.543  17.134 -0.1564  0.1404  0.3153
 7571TIP3    H144128   6.351   3.459  17.159 -1.4413  1.0789  1.8127
 7571TIP3    H244129   6.467   3.551  17.186  1.1535 -1.0090 -1.4081
 7572TIP3   OH244130   4.182   3.611   0.236  0.1349 -0.4369  0.3784
 7572TIP3    H144131   4.175   3.671   0.310 -0.0734 -0.2706  0.2263
 7572TIP3    H244132   4.099   3.563   0.236 -0.6733  0.8852 -0.8727
 7573TIP3   OH244133   5.237   1.682   5.657 -0.6414  0.0255 -0.2440
 7573TIP3    H144134   5.168   1.617   5.649  0.4981 -1.6528  2.2740
 7573TIP3    H244135   5.311   1.646   5.607  0.0690 -0.8462  1.3443
 7574TIP3   OH244136   2.976   1.250   2.646 -0.2600  0.2214 -0.1358
 7574TIP3    H144137   2.972   1.270   2.553 -1.6507  0.5805 -0.0249
 7574TIP3    H244138   2.885   1.237   2.672 -0.2042  2.6172  1.6909
 7575TIP3   OH244139   0.945   0.012  14.099 -0.0929 -0.4473 -0.5627
 7575TIP3    H144140   0.976   0.098  14.129 -0.4053 -1.1942  2.2251
 7575TIP3    H244141   1.017  -0.048  14.119 -0.7674 -1.1791 -0.2805
 7576TIP3   OH244142   1.315   5.189  11.919 -0.2137 -0.3350 -0.1478
 7576TIP3    H144143   1.395   5.191  11.868 -0.2992  0.4396 -0.2684
 7576TIP3    H244144   1.306   5.098  11.948  0.3435 -0.5669 -0.6982
 7577TIP3   OH244145   0.827   6.180   3.380 -0.2589  0.8044 -0.1851
 7577TIP3    H144146   0.818   6.125   3.458 -1.3941  0.7696 -0.3292
 7577TIP3    H244147   0.910   6.225   3.392 -0.2488  0.5221  0.8716
 7578TIP3   OH244148   1.335   2.517   0.765 -0.1352  0.5394  0.1686
 7578TIP3    H144149   1.348   2.482   0.677  0.7168  0.7748  0.1863
 7578TIP3    H244150   1.359   2.609   0.759 -0.2937  0.6117  0.5907
 7579TIP3   OH244151   5.825   0.211  13.314 -0.9030 -0.0335 -0.9225
 7579TIP3    H144152   5.916   0.201  13.341 -1.0662 -0.2147 -0.4312
 7579TIP3    H244153   5.824   0.293  13.264 -0.2988 -0.5004 -1.7134
 7580TIP3   OH244154   0.853   6.323   1.877  0.0043 -0.5930 -0.3276
 7580TIP3    H144155   0.763   6.332   1.907 -0.9177 -1.6536 -2.5623
 7580TIP3    H244156   0.890   6.254   1.933 -0.0143  0.8788  1.6179
 7581TIP3   OH244157   4.023   4.620   2.888 -0.2741 -0.5794 -0.2472
 7581TIP3    H144158   4.080   4.580   2.822  0.7025 -0.1785  0.3212
 7581TIP3    H244159   3.941   4.571   2.883  0.7968 -2.5105  0.2609
 7582TIP3   OH244160   1.124   4.734  16.241 -0.4174  0.3001  0.1995
 7582TIP3    H144161   1.092   4.799  16.178  0.4469  0.6778  0.1354
 7582TIP3    H244162   1.077   4.653  16.218 -0.9130  0.7001 -0.2273
 7583TIP3   OH244163   3.287   1.701  15.600 -0.3879  0.3461  0.1483
 7583TIP3    H144164   3.221   1.633  15.588 -0.8784  1.0941 -1.7438
 7583TIP3    H244165   3.273   1.732  15.690 -0.7555 -1.3845  0.7189
 7584TIP3   OH244166   1.462   4.076   1.101  0.3039  0.1734  1.1582
 7584TIP3    H144167   1.376   4.035   1.111 -0.5221  1.5777  0.2485
 7584TIP3    H244168   1.449   4.166   1.132  0.8428  1.0326 -0.8913
 7585TIP3   OH244169   2.129   0.724  13.215  0.1970  0.2852 -0.2846
 7585TIP3    H144170   2.037   0.725  13.191  0.2265 -1.5155 -0.6054
 7585TIP3    H244171   2.138   0.653  13.278  1.2040  1.1143  0.5660
 7586TIP3   OH244172   5.596   5.957  14.730  0.2365 -0.0548  0.0014
 7586TIP3    H144173   5.674   6.013  14.728  1.1790 -1.2874  0.5406
 7586TIP3    H244174   5.630   5.869  14.712 -1.2215 -0.4451 -1.0013
 7587TIP3   OH244175   3.892   5.716  11.884  0.6359  0.6066 -0.1427
 7587TIP3    H144176   3.813   5.715  11.938  0.0218  0.9220 -1.0076
 7587TIP3    H244177   3.873   5.657  11.811  2.3583 -1.7119  1.1746
 7588TIP3   OH244178   5.880   2.907   1.114 -0.0498  0.3166 -0.0250
 7588TIP3    H144179   5.928   2.959   1.179  0.2216 -0.2795  0.2672
 7588TIP3    H244180   5.938   2.833   1.096 -1.0958 -0.7382  0.7743
 7589TIP3   OH244181   2.403   1.204  13.278 -0.3375 -0.2357 -0.0171
 7589TIP3    H144182   2.427   1.297  13.274 -1.1376 -0.0241  0.0175
 7589TIP3    H244183   2.369   1.184  13.190 -0.2786 -0.4683  0.0118
 7590TIP3   OH244184   3.615   4.710   3.666  0.3209 -0.1666 -0.5750
 7590TIP3    H144185   3.555   4.783   3.685 -1.0815 -1.0746 -1.3590
 7590TIP3    H244186   3.690   4.752   3.623 -0.5028  0.8200 -1.1202
 7591TIP3   OH244187   0.029   3.011  12.268  0.4856 -0.2502  0.1993
 7591TIP3    H144188  -0.052   3.027  12.219  1.9645  1.2158 -1.9316
 7591TIP3    H244189   0.014   3.053  12.353 -1.7931 -2.0323  0.7806
 7592TIP3   OH244190   5.668   3.999  16.929  0.2521  0.4872  0.5354
 7592TIP3    H144191   5.701   4.036  16.847 -1.2037 -2.0288 -1.3343
 7592TIP3    H244192   5.738   3.940  16.958 -0.3817 -0.9342 -0.6466
 7593TIP3   OH244193   5.216   1.893  16.131 -0.3146 -0.1886  0.1148
 7593TIP3    H144194   5.226   1.944  16.050 -2.6662 -2.6817 -1.9578
 7593TIP3    H244195   5.292   1.835  16.131 -1.0576 -1.2221 -1.2290
 7594TIP3   OH244196   3.584   6.144  16.669 -0.0781  0.1921 -0.0415
 7594TIP3    H144197   3.577   6.225  16.619  2.1344  0.0009 -0.7553
 7594TIP3    H244198   3.602   6.076  16.604 -0.7730 -0.7013  0.6632
 7595TIP3   OH244199   3.447   3.044   4.457 -0.4217  0.5210  0.4006
 7595TIP3    H144200   3.466   3.081   4.543  0.1836  0.3972  0.3222
 7595TIP3    H244201   3.438   2.950   4.473 -1.1118  0.5909  0.4580
 7596TIP3   OH244202   2.088   4.849  15.995  0.6393  0.1929  0.1737
 7596TIP3    H144203   2.131   4.875  16.077  1.8467  0.7392 -0.5975
 7596TIP3    H244204   2.005   4.812  16.022  1.9645 -1.7900  1.8361
 7597TIP3   OH244205   3.473   3.149   0.759  1.0817  0.4610 -0.1323
 7597TIP3    H144206   3.437   3.117   0.676  0.2849  2.4408 -0.5977
 7597TIP3    H244207   3.402   3.199   0.799  2.0798  1.1653  0.8182
 7598TIP3   OH244208   5.514   2.460   1.174  0.0479 -0.3352 -0.3932
 7598TIP3    H144209   5.503   2.365   1.177  3.2923 -0.8220 -0.4980
 7598TIP3    H244210   5.542   2.479   1.084 -1.7013  0.9384 -0.7293
 7599TIP3   OH244211   4.932   4.653  11.990  0.1330  0.1959 -0.2471
 7599TIP3    H144212   4.994   4.579  11.987 -0.7310 -0.5240 -0.7848
 7599TIP3    H244213   4.964   4.714  11.924  0.1376 -0.2835 -0.6942
 7600TIP3   OH244214   3.248   5.610  14.468 -0.0923 -0.3462  0.6160
 7600TIP3    H144215   3.329   5.592  14.515  0.5709 -0.7332 -0.6294
 7600TIP3    H244216   3.251   5.551  14.392 -0.5024  1.1558 -0.6105
 7601TIP3   OH244217   1.659   1.794  15.066 -0.1448  0.1385  0.3189
 7601TIP3    H144218   1.747   1.822  15.094 -0.2411  0.4377  0.3168
 7601TIP3    H244219   1.670   1.770  14.974 -0.7981  3.4912 -0.7495
 7602TIP3   OH244220   0.887   5.558  12.019  0.0122 -0.2772  0.1800
 7602TIP3    H144221   0.925   5.504  11.949  0.4525  0.8270 -0.4477
 7602TIP3    H244222   0.798   5.575  11.988 -0.4784 -1.4558  0.8593
 7603TIP3   OH244223   0.545   4.878  11.876  0.1630  0.0280  0.0662
 7603TIP3    H144224   0.625   4.891  11.927 -1.7111 -0.2748  3.3697
 7603TIP3    H244225   0.575   4.845  11.791  3.5321  0.6772  0.8758
 7604TIP3   OH244226   3.659   5.422  14.328  0.6365 -0.1921 -0.8818
 7604TIP3    H144227   3.716   5.395  14.256 -0.6934 -3.8489 -0.8098
 7604TIP3    H244228   3.712   5.411  14.407  0.3956 -2.0610 -0.9337
 7605TIP3   OH244229   5.411   2.929   1.895 -0.2118 -0.2487  0.0383
 7605TIP3    H144230   5.398   2.856   1.834 -0.9959 -0.6910  0.7140
 7605TIP3    H244231   5.323   2.955   1.920  0.0782  0.6034  0.2004
 7606TIP3   OH244232   5.282   0.746   1.461 -0.0398 -0.1842 -0.6482
 7606TIP3    H144233   5.229   0.717   1.386 -1.1616 -0.7000  0.3134
 7606TIP3    H244234   5.222   0.799   1.513  0.4772 -0.5371  0.3224
 7607TIP3   OH244235   1.406   6.264  12.211  0.2116 -0.2806 -0.5805
 7607TIP3    H144236   1.399   6.196  12.278  0.1238  1.2495  1.0328
 7607TIP3    H244237   1.436   6.342  12.258 -1.2282  1.2620 -2.0461
 7608TIP3   OH244238   0.184   4.721  12.022  0.2874  0.4738  0.0415
 7608TIP3    H144239   0.138   4.804  12.030 -0.9809  0.2335 -3.2161
 7608TIP3    H244240   0.140   4.675  11.950  1.7494 -2.4822  0.8496
 7609TIP3   OH244241   5.697   2.186  17.310 -0.6631 -0.2851 -0.1560
 7609TIP3    H144242   5.772   2.129  17.324 -0.4740  0.1665  0.7952
 7609TIP3    H244243   5.715   2.232  17.228  0.5437  0.4690  0.5012
 7610TIP3   OH244244   1.491   1.762  11.112  0.0876  0.0565  0.2381
 7610TIP3    H144245   1.523   1.759  11.022 -0.8015 -0.4283 -0.0789
 7610TIP3    H244246   1.567   1.789  11.164  0.9428 -0.8550 -0.5016
 7611TIP3   OH244247   2.350   1.098  12.324  0.1630  0.2498 -0.2673
 7611TIP3    H144248   2.354   1.053  12.408  0.3471  0.0595 -0.3755
 7611TIP3    H244249   2.334   1.028  12.260 -0.6003  0.4699 -0.3266
 7612TIP3   OH244250   3.351   4.382  11.294 -0.2968  0.5622 -0.2100
 7612TIP3    H144251   3.309   4.462  11.263  0.1443  0.1180 -2.0728
 7612TIP3    H244252   3.444   4.404  11.301 -0.3729  0.6376  0.8343
 7613TIP3   OH244253   4.593   1.708   2.834  0.2321  0.6461 -0.4830
 7613TIP3    H144254   4.558   1.776   2.892 -1.6726  0.4799 -1.3389
 7613TIP3    H244255   4.640   1.755   2.766 -1.7494  1.2333 -1.5189
 7614TIP3   OH244256   0.939   2.116   0.018  0.4037  0.3853 -0.2108
 7614TIP3    H144257   0.916   2.043  -0.039 -1.1905  0.7645 -0.1112
 7614TIP3    H244258   0.927   2.194  -0.037 -0.5740  0.7184  0.4465
 7615TIP3   OH244259   6.589   3.556   0.425 -0.4294 -0.3119 -0.2432
 7615TIP3    H144260   6.512   3.504   0.401 -0.6762  0.3035 -0.8342
 7615TIP3    H244261   6.595   3.548   0.520 -1.9196  0.5506 -0.0401
 7616TIP3   OH244262   4.960   2.559   6.130 -0.3094  0.3366 -0.2436
 7616TIP3    H144263   4.955   2.631   6.192  0.7588  0.3127 -0.1028
 7616TIP3    H244264   4.980   2.601   6.046 -0.0888  0.2414 -0.2401
 7617TIP3   OH244265   1.111   2.237  14.657 -0.8121 -0.7199  0.7687
 7617TIP3    H144266   1.186   2.201  14.704 -1.0090 -1.6384  0.3835
 7617TIP3    H244267   1.143   2.254  14.569 -0.0246  2.3550  1.5252
 7618TIP3   OH244268   4.038   1.840  17.271 -0.6260  0.2450  0.4153
 7618TIP3    H144269   4.080   1.919  17.305 -1.2232  1.3734 -1.2948
 7618TIP3    H244270   4.105   1.772  17.277  0.3103  1.1772  0.8160
 7619TIP3   OH244271   1.687   2.127  12.397  0.0230 -0.5547  0.1220
 7619TIP3    H144272   1.709   2.035  12.387  0.0684 -0.3968 -1.7089
 7619TIP3    H244273   1.604   2.127  12.445 -1.3855 -1.7589 -2.1213
 7620TIP3   OH244274   0.872   5.962   6.068  0.6132 -0.5190 -0.3525
 7620TIP3    H144275   0.888   6.056   6.083 -0.8842 -0.1706 -0.7998
 7620TIP3    H244276   0.864   5.955   5.973  2.5885 -1.4465 -0.4955
 7621TIP3   OH244277   3.703   2.798  11.830 -0.2066  0.0373  0.4214
 7621TIP3    H144278   3.777   2.804  11.770 -0.4541 -0.7415  0.0335
 7621TIP3    H244279   3.627   2.786  11.773 -0.7860  1.8627  0.7505
 7622TIP3   OH244280   0.302   6.092   5.974  0.5483 -0.4258 -0.0621
 7622TIP3    H144281   0.269   6.161   6.031 -0.7524 -0.1260 -1.1186
 7622TIP3    H244282   0.397   6.102   5.976  0.3907  1.9897 -0.8375
 7623TIP3   OH244283   3.968   5.685   3.627  0.2441 -0.0600 -0.1279
 7623TIP3    H144284   3.925   5.765   3.657 -0.4869 -0.0815 -1.0943
 7623TIP3    H244285   3.990   5.701   3.536  1.1242 -0.5445 -0.0171
 7624TIP3   OH244286   0.236   0.282  15.932  0.1437 -0.5194  0.1964
 7624TIP3    H144287   0.151   0.273  15.889  0.6273  3.2906 -1.9445
 7624TIP3    H244288   0.284   0.203  15.906 -1.4505 -0.9290 -1.7619
 7625TIP3   OH244289   1.739   4.902  14.787 -0.0466 -0.0352 -0.0434
 7625TIP3    H144290   1.688   4.842  14.732 -0.2691  0.9043 -0.8958
 7625TIP3    H244291   1.819   4.854  14.806  0.4640 -0.0610 -2.0077
 7626TIP3   OH244292   0.300   3.140   4.273  0.6184 -0.2156 -0.1726
 7626TIP3    H144293   0.395   3.150   4.265  0.9733 -2.6196  0.2696
 7626TIP3    H244294   0.268   3.136   4.182  1.1025 -0.5331 -0.3322
 7627TIP3   OH244295   4.897   1.480  11.555  0.0283  0.2656 -0.3636
 7627TIP3    H144296   4.900   1.575  11.564  0.3388  0.0997  1.7603
 7627TIP3    H244297   4.977   1.458  11.506  0.4395  1.0269 -0.0546
 7628TIP3   OH244298   1.695   5.685   1.942  0.1140  0.5261  0.9210
 7628TIP3    H144299   1.619   5.655   1.892 -0.0983  0.3226  1.3522
 7628TIP3    H244300   1.657   5.731   2.017  0.3881 -0.3020  1.5884
 7629TIP3   OH244301   2.970   5.766   5.354  0.0108  0.4230 -0.0803
 7629TIP3    H144302   2.916   5.845   5.352  1.8002  1.7010 -1.3398
 7629TIP3    H244303   3.050   5.792   5.398  0.1132 -1.0966  0.7029
 7630TIP3   OH244304   0.265   3.899   5.668  0.2571  0.1564  0.0166
 7630TIP3    H144305   0.265   3.903   5.764 -0.7335 -1.5368  0.1195
 7630TIP3    H244306   0.357   3.898   5.644  0.6128 -2.5994  1.1610
 7631TIP3   OH244307   3.938   3.323  12.777 -0.2329 -0.4380 -0.7615
 7631TIP3    H144308   4.020   3.306  12.824 -0.2460  1.9780  0.2460
 7631TIP3    H244309   3.959   3.300  12.686  1.9247  1.0352 -0.7169
 7632TIP3   OH244310   5.706   2.675   2.957  0.0106 -0.1095  0.5249
 7632TIP3    H144311   5.613   2.698   2.962 -0.3785 -0.9694 -1.6175
 7632TIP3    H244312   5.709   2.603   2.893  2.2530  0.5681 -0.2021
 7633TIP3   OH244313   2.446   2.934  15.383 -0.7015 -0.2362 -0.4279
 7633TIP3    H144314   2.481   2.845  15.392 -2.5941 -1.0337 -0.2819
 7633TIP3    H244315   2.372   2.936  15.444  0.1829  1.9763  0.6904
 7634TIP3   OH244316   6.377   3.614  14.683  0.1719 -0.5090  0.4626
 7634TIP3    H144317   6.427   3.570  14.752 -0.7216  0.3148  1.6925
 7634TIP3    H244318   6.307   3.553  14.661  1.1742 -1.2947 -0.6338
 7635TIP3   OH244319   4.682   5.539  16.613  0.6315  0.6123 -0.1124
 7635TIP3    H144320   4.599   5.551  16.658  0.8269 -0.6853  0.6480
 7635TIP3    H244321   4.659   5.530  16.521 -0.2270 -1.0403  0.2322
 7636TIP3   OH244322   0.160   5.936   0.170 -0.0284 -0.7589  0.2728
 7636TIP3    H144323   0.109   5.855   0.169  1.5704 -1.8496  1.2790
 7636TIP3    H244324   0.211   5.930   0.251  0.7305  0.8753 -0.0525
 7637TIP3   OH244325   0.763   1.286  17.221 -0.4640 -0.6656 -0.1087
 7637TIP3    H144326   0.683   1.244  17.255 -1.6803  1.4952 -0.0989
 7637TIP3    H244327   0.740   1.311  17.132  0.9484 -1.7725 -0.8202
 7638TIP3   OH244328   1.725   5.987   2.876  0.3441  0.3518 -0.3178
 7638TIP3    H144329   1.709   6.082   2.878 -0.2350  0.2489  0.3046
 7638TIP3    H244330   1.687   5.955   2.958 -0.7775 -0.6334 -1.1966
 7639TIP3   OH244331   3.411   0.523  13.388  0.1089  0.0316 -0.4308
 7639TIP3    H144332   3.454   0.487  13.465 -1.1417 -2.7562 -0.8767
 7639TIP3    H244333   3.347   0.585  13.423  0.3398 -0.3466  0.7075
 7640TIP3   OH244334   2.512   1.596  14.732  0.8411 -0.6452  0.2477
 7640TIP3    H144335   2.507   1.688  14.706  0.3663 -0.3553  1.3075
 7640TIP3    H244336   2.591   1.591  14.785  0.9041 -0.8647  0.1317
 7641TIP3   OH244337   5.837   1.040  15.674  0.1289  0.5528  0.1691
 7641TIP3    H144338   5.773   1.013  15.740  0.2520  0.1568  0.1336
 7641TIP3    H244339   5.918   1.054  15.725  0.8551 -1.9537 -0.1271
 7642TIP3   OH244340   3.864   5.350   1.884 -0.1080  0.6416 -0.0842
 7642TIP3    H144341   3.816   5.292   1.825  0.7158  0.2671 -0.3854
 7642TIP3    H244342   3.886   5.295   1.959  3.1328 -0.3057 -1.5608
 7643TIP3   OH244343   1.242   2.272  14.403  0.1286  0.0074 -0.4095
 7643TIP3    H144344   1.333   2.252  14.422  0.1134  0.9895  0.8920
 7643TIP3    H244345   1.244   2.362  14.369 -0.4352  0.5265  0.8454
 7644TIP3   OH244346   4.154   2.932   6.215 -0.0839 -0.3138  0.1602
 7644TIP3    H144347   4.063   2.940   6.247 -0.7680  1.1741 -1.9247
 7644TIP3    H244348   4.161   2.841   6.186 -0.9569 -0.4374  0.2832
 7645TIP3   OH244349   4.939   0.153  16.647 -0.0173  0.2965 -0.0570
 7645TIP3    H144350   4.936   0.227  16.708 -1.2592  0.2897 -0.0906
 7645TIP3    H244351   4.903   0.188  16.565 -0.4470 -0.2973 -0.1265
 7646TIP3   OH244352   5.368   1.610   5.277  0.8374 -0.3858  0.0409
 7646TIP3    H144353   5.454   1.573   5.258  0.1950 -1.7601 -0.3021
 7646TIP3    H244354   5.312   1.579   5.205  0.5311  2.3154 -1.0006
 7647TIP3   OH244355   2.387   4.689   5.027 -0.4904  0.0843 -0.3616
 7647TIP3    H144356   2.437   4.744   5.086  0.5787 -0.5481 -0.6513
 7647TIP3    H244357   2.453   4.639   4.979 -1.3601  0.0064 -1.5186
 7648TIP3   OH244358   4.742   1.627   2.490 -0.5820  0.3511 -0.3256
 7648TIP3    H144359   4.648   1.608   2.481 -1.1432  2.3174  0.7211
 7648TIP3    H244360   4.752   1.652   2.582  1.0950 -0.3111 -0.3046
 7649TIP3   OH244361   6.686   5.131   1.792 -0.5403  0.7959  0.4620
 7649TIP3    H144362   6.706   5.184   1.715  2.0949 -1.6745 -0.7367
 7649TIP3    H244363   6.626   5.064   1.759 -1.0877  0.9621  1.1024
 7650TIP3   OH244364   2.555   1.920   0.361  0.7308  0.8506 -0.4528
 7650TIP3    H144365   2.542   2.013   0.379  0.0800  0.7077 -0.1647
 7650TIP3    H244366   2.635   1.897   0.407  0.0393  0.9027  0.8095
 7651TIP3   OH244367   1.979   4.009   2.187 -0.0334 -0.2385  0.2687
 7651TIP3    H144368   2.026   3.993   2.268  1.1508  3.4040  0.4894
 7651TIP3    H244369   1.934   3.927   2.168  2.7185 -2.4566  2.5142
 7652TIP3   OH244370   3.726   0.760   4.736 -0.8486  0.0559 -0.1126
 7652TIP3    H144371   3.639   0.752   4.774 -1.2862  3.2552 -0.1468
 7652TIP3    H244372   3.713   0.807   4.654  0.8432 -0.2001 -0.5805
 7653TIP3   OH244373   2.823   6.754   6.049 -0.4076 -0.0982  0.0575
 7653TIP3    H144374   2.912   6.719   6.046 -0.7265 -1.0645 -3.9886
 7653TIP3    H244375   2.767   6.678   6.035 -2.0074  0.4301  2.8801
 7654TIP3   OH244376   0.168   0.486   7.208 -0.0953 -0.5442 -0.3643
 7654TIP3    H144377   0.078   0.507   7.185 -0.2776  2.0151  2.2061
 7654TIP3    H244378   0.219   0.507   7.129 -1.4789  0.2865 -1.0671
 7655TIP3   OH244379   5.950   0.195   4.889  0.6579 -0.3861  0.0723
 7655TIP3    H144380   6.006   0.128   4.928  1.0640  1.6283  3.4277
 7655TIP3    H244381   5.973   0.275   4.937 -3.2880  1.0944 -0.1629
 7656TIP3   OH244382   3.595   3.973  13.697  0.0222  0.1429 -0.1540
 7656TIP3    H144383   3.677   4.021  13.710 -1.5406  2.5514  1.6473
 7656TIP3    H244384   3.546   4.027  13.636 -0.7661 -0.5616 -0.1568
 7657TIP3   OH244385   1.426   5.587   2.470  0.0731  0.6030  0.3436
 7657TIP3    H144386   1.497   5.556   2.415  0.4605 -0.3950  1.3600
 7657TIP3    H244387   1.467   5.647   2.532 -0.1454  0.8284  0.2707
 7658TIP3   OH244388   5.404   4.733   3.273 -0.3044 -0.4978  0.0258
 7658TIP3    H144389   5.320   4.694   3.244 -1.0396  0.0689  1.3325
 7658TIP3    H244390   5.437   4.672   3.339 -1.0715  0.6326  1.5106
 7659TIP3   OH244391   3.281   4.446  11.714  0.2335  0.1844 -0.2240
 7659TIP3    H144392   3.295   4.486  11.800 -0.5612  0.3515 -0.1660
 7659TIP3    H244393   3.186   4.433  11.709  0.0926  1.5291 -1.6794
 7660TIP3   OH244394   5.600   5.418  15.893 -0.1018  0.7241  0.3479
 7660TIP3    H144395   5.559   5.504  15.897  1.6836  1.5797  1.3891
 7660TIP3    H244396   5.662   5.424  15.820 -0.5369  0.0206 -0.1007
 7661TIP3   OH244397   0.109   0.731  16.102  0.0244  0.4675 -0.2436
 7661TIP3    H144398   0.064   0.657  16.060 -0.7351  0.1370  1.0970
 7661TIP3    H244399   0.118   0.796  16.032  1.0663 -1.0262 -1.5681
 7662TIP3   OH244400   6.538   3.710  11.922  0.1597  0.0628 -0.9243
 7662TIP3    H144401   6.599   3.718  11.995  0.9489  0.4206 -1.6049
 7662TIP3    H244402   6.589   3.667  11.853 -1.0561 -1.8073 -0.7173
 7663TIP3   OH244403   2.867   3.233  12.397  0.4345 -0.1372 -0.1658
 7663TIP3    H144404   2.920   3.159  12.366 -1.4303 -0.6937 -2.3798
 7663TIP3    H244405   2.788   3.230  12.342 -1.4738  1.1968  2.2713
 7664TIP3   OH244406   2.056   3.787  11.674  0.0473  0.0653 -0.8508
 7664TIP3    H144407   2.017   3.709  11.712  0.0285  0.5493  0.1489
 7664TIP3    H244408   1.984   3.830  11.628 -0.2240  0.1312 -0.3649
 7665TIP3   OH244409   5.167   6.328  10.852  0.3448  0.2928 -0.1768
 7665TIP3    H144410   5.137   6.403  10.801 -0.3499  0.2601  0.1749
 7665TIP3    H244411   5.230   6.365  10.915 -2.1949  1.1684  2.0697
 7666TIP3   OH244412   3.070   4.355   0.224  0.3972 -0.2999  0.6315
 7666TIP3    H144413   3.109   4.285   0.277 -0.0186 -0.4587  0.7385
 7666TIP3    H244414   3.051   4.313   0.140  0.3749 -0.2508  0.6121
 7667TIP3   OH244415   4.126   0.578   2.078 -0.1821  0.0657  0.1646
 7667TIP3    H144416   4.123   0.656   2.133 -0.8001  1.3957 -1.6262
 7667TIP3    H244417   4.217   0.574   2.047  0.5516 -1.5105  2.2842
 7668TIP3   OH244418   5.742   0.860  15.484 -0.5908  0.7141 -0.1511
 7668TIP3    H144419   5.771   0.930  15.543 -0.6273  1.1557 -0.6575
 7668TIP3    H244420   5.685   0.903  15.421 -0.8618  0.1712 -0.2845
 7669TIP3   OH244421   3.092   3.134   0.298 -0.0829  0.2743  0.4355
 7669TIP3    H144422   3.060   3.092   0.378 -1.9949  0.0521 -0.3893
 7669TIP3    H244423   3.088   3.065   0.232  0.3834  0.7586 -0.1034
 7670TIP3   OH244424   1.664   3.820   2.154  0.2543  0.5433 -0.1196
 7670TIP3    H144425   1.666   3.909   2.118 -0.5958  1.7556  2.5559
 7670TIP3    H244426   1.633   3.831   2.243 -2.1682 -2.7247 -0.3736
 7671TIP3   OH244427   3.849   2.085   0.849 -0.3367 -0.5172  0.3019
 7671TIP3    H144428   3.849   2.163   0.904 -0.7862 -0.2270 -0.1005
 7671TIP3    H244429   3.771   2.095   0.794 -0.3043 -1.1676  0.1339
 7672TIP3   OH244430   5.124   4.905   1.641 -0.4962 -0.5854  0.0049
 7672TIP3    H144431   5.087   4.824   1.605 -1.9838 -0.1236  0.3957
 7672TIP3    H244432   5.067   4.974   1.607  0.1405  0.1884  0.4827
 7673TIP3   OH244433   0.669   6.530  12.223 -0.1360  0.4578 -0.4299
 7673TIP3    H144434   0.632   6.584  12.293  0.7484  0.8618 -0.2618
 7673TIP3    H244435   0.593   6.499  12.174 -0.7104  0.9864  0.1098
 7674TIP3   OH244436   5.096   2.678   5.902  0.1790  0.1945  0.4267
 7674TIP3    H144437   5.034   2.721   5.844  1.0550  2.2948  0.9765
 7674TIP3    H244438   5.127   2.602   5.852 -2.5533 -0.7787  0.0422
 7675TIP3   OH244439   1.698   1.548  15.232  0.0976 -0.6836 -0.3829
 7675TIP3    H144440   1.676   1.555  15.139 -0.5220 -1.5873 -0.3212
 7675TIP3    H244441   1.792   1.530  15.234  0.6080  1.6137 -0.7209
 7676TIP3   OH244442   1.349   1.468   3.580 -0.2334  0.1192 -0.3966
 7676TIP3    H144443   1.261   1.442   3.606  0.1488 -0.2099  0.6192
 7676TIP3    H244444   1.406   1.431   3.647  0.8114 -0.6921 -1.6733
 7677TIP3   OH244445   5.856   1.211   6.390  0.6770  0.2857  0.1281
 7677TIP3    H144446   5.903   1.280   6.343  0.5475 -0.1578 -0.6824
 7677TIP3    H244447   5.916   1.184   6.460  1.1310  0.5484 -0.1525
 7678TIP3   OH244448   4.808   4.386   4.870  0.2754  0.4359  0.7193
 7678TIP3    H144449   4.896   4.424   4.865 -0.0533  1.2341  0.8178
 7678TIP3    H244450   4.753   4.449   4.824 -0.4508  0.5969  1.7861
 7679TIP3   OH244451   5.132   2.618   4.426 -0.0547 -0.4578 -0.7937
 7679TIP3    H144452   5.043   2.604   4.395 -0.5519  1.9460 -0.6561
 7679TIP3    H244453   5.127   2.696   4.481  2.1486 -0.1682 -0.8937
 7680TIP3   OH244454   5.052   6.745  13.382 -0.2923  0.1864  0.0820
 7680TIP3    H144455   4.990   6.771  13.451 -0.3072 -0.9488  0.5217
 7680TIP3    H244456   5.022   6.792  13.304 -1.7481 -0.3739  0.2735
 7681TIP3   OH244457   5.897   2.025  15.486  0.0432  0.3552  0.0248
 7681TIP3    H144458   5.897   2.119  15.505  0.8359  1.1901 -3.5082
 7681TIP3    H244459   5.838   2.016  15.412  0.6949 -1.8083 -0.2827
 7682TIP3   OH244460   3.726   3.824  15.404  0.5239 -0.1493  0.2818
 7682TIP3    H144461   3.709   3.916  15.382  1.2714  0.2411  1.2353
 7682TIP3    H244462   3.640   3.782  15.400  0.2677  0.4246 -0.8449
 7683TIP3   OH244463   2.355   6.653   6.794 -0.1908  0.2960  0.5914
 7683TIP3    H144464   2.443   6.639   6.828  1.3613  0.8731 -2.7720
 7683TIP3    H244465   2.359   6.739   6.752 -2.6420  0.7121  1.0509
 7684TIP3   OH244466   2.391   0.142  11.899 -0.9692  0.4229  0.3647
 7684TIP3    H144467   2.300   0.155  11.924 -0.8722 -0.7319  1.4145
 7684TIP3    H244468   2.388   0.124  11.805 -1.9714 -0.8941  0.6254
 7685TIP3   OH244469   4.147   4.545   3.131 -0.4184 -0.9225 -0.0594
 7685TIP3    H144470   4.081   4.558   3.063  0.8339  1.2488 -0.9934
 7685TIP3    H244471   4.116   4.598   3.205 -1.3270 -2.5579  0.7688
 7686TIP3   OH244472   2.907   5.054  15.752 -0.5398 -0.8069  0.0816
 7686TIP3    H144473   2.899   4.960  15.765  1.1330 -1.3396 -2.0385
 7686TIP3    H244474   3.001   5.070  15.753 -0.5774  0.1894 -2.9636
 7687TIP3   OH244475   3.632   0.115  12.746  0.0170 -0.5036  0.0531
 7687TIP3    H144476   3.593   0.036  12.710  2.5079 -1.9766  0.2919
 7687TIP3    H244477   3.631   0.178  12.675  0.4811 -1.7206 -1.0670
 7688TIP3   OH244478   5.487   3.080  15.360  0.2695  0.3736 -0.7632
 7688TIP3    H144479   5.550   3.016  15.393  1.6175  1.4885 -1.0716
 7688TIP3    H244480   5.435   3.033  15.295 -0.6386 -1.1280  0.9468
 7689TIP3   OH244481   6.537   6.148  17.126 -0.2853  0.1281 -0.1947
 7689TIP3    H144482   6.535   6.241  17.148  2.1271 -0.0203  0.9375
 7689TIP3    H244483   6.609   6.112  17.177 -2.1554 -2.7590  0.6822
 7690TIP3   OH244484   6.283   5.690  10.655  0.1717 -0.6777  0.0436
 7690TIP3    H144485   6.196   5.671  10.619 -0.0970  0.4531  0.0417
 7690TIP3    H244486   6.292   5.631  10.730 -0.4263 -1.0913 -0.2030
 7691TIP3   OH244487   2.451   4.612  11.652  0.3909  0.3059  0.1846
 7691TIP3    H144488   2.447   4.708  11.649 -0.6557  0.3048  1.0921
 7691TIP3    H244489   2.375   4.583  11.602  1.0499 -0.0721 -0.6144
 7692TIP3   OH244490   5.547   3.340  17.384  0.0637 -0.5552 -0.8463
 7692TIP3    H144491   5.602   3.270  17.349  0.0634 -0.5012 -0.9542
 7692TIP3    H244492   5.486   3.295  17.442  0.7153 -0.5324 -0.1264
 7693TIP3   OH244493   2.548   1.738   5.030 -0.0149 -0.2962  0.1860
 7693TIP3    H144494   2.629   1.746   4.978 -0.0319  0.2752  0.2393
 7693TIP3    H244495   2.578   1.721   5.119  0.1040  1.0000  0.4238
 7694TIP3   OH244496   0.280   0.233  10.832  0.1690 -0.4833 -0.2092
 7694TIP3    H144497   0.358   0.239  10.886  1.9378 -1.6269 -2.4707
 7694TIP3    H244498   0.280   0.313  10.779  1.9935 -2.0632 -2.8132
 7695TIP3   OH244499   5.819   5.190  12.776  0.6275  0.6932 -0.1986
 7695TIP3    H144500   5.813   5.246  12.698  0.7444  0.8760 -0.0762
 7695TIP3    H244501   5.872   5.240  12.838 -0.0567  0.8606  0.2659
 7696TIP3   OH244502   4.862   2.964  13.996 -0.5339 -0.9628  0.5184
 7696TIP3    H144503   4.906   2.948  14.079 -0.7007  0.0824  0.8168
 7696TIP3    H244504   4.925   2.938  13.929 -0.2935 -1.5357  0.9603
 7697TIP3   OH244505   0.607   4.945   2.254 -0.5968  0.3995 -0.5969
 7697TIP3    H144506   0.537   4.890   2.288  0.3969 -0.5399 -0.0241
 7697TIP3    H244507   0.598   5.028   2.301 -0.9428  0.0642 -0.0727
 7698TIP3   OH244508   2.506   1.017   2.227 -0.5960 -0.1370  0.1384
 7698TIP3    H144509   2.524   0.923   2.229 -0.2562 -0.1746 -2.0030
 7698TIP3    H244510   2.515   1.045   2.318  1.6593 -1.7379  0.4965
 7699TIP3   OH244511   4.897   5.717  16.915 -0.9666  0.4466  0.6556
 7699TIP3    H144512   4.904   5.717  17.010  0.1171  0.3180  0.5985
 7699TIP3    H244513   4.983   5.686  16.885 -1.5164 -0.1625 -0.3503
 7700TIP3   OH244514   0.380   1.177   2.214 -0.1737  0.3898  0.4614
 7700TIP3    H144515   0.325   1.175   2.293  0.1416  0.8833  0.7034
 7700TIP3    H244516   0.417   1.266   2.213 -1.2119  0.8394 -0.9741
 7701TIP3   OH244517   1.755   4.096  12.709  0.1412 -0.4635 -0.6835
 7701TIP3    H144518   1.812   4.110  12.634  1.1475  0.1619  0.1664
 7701TIP3    H244519   1.666   4.102  12.674  0.5671  1.2911 -1.5663
 7702TIP3   OH244520   5.339   5.359   0.023 -0.2193  0.4534  0.2901
 7702TIP3    H144521   5.346   5.449  -0.006 -1.2944  0.0180 -1.4750
 7702TIP3    H244522   5.249   5.333   0.001 -0.0973 -0.8805  1.2301
 7703TIP3   OH244523   3.151   3.729   1.030  0.4091  0.0410  0.7268
 7703TIP3    H144524   3.198   3.748   0.949  0.3540 -0.7674  0.4882
 7703TIP3    H244525   3.184   3.792   1.093  1.0950  0.1197  0.2977
 7704TIP3   OH244526   3.077   6.373  14.850  0.0100  0.0061  0.1863
 7704TIP3    H144527   2.993   6.372  14.896 -0.2529  0.1951 -0.2763
 7704TIP3    H244528   3.063   6.317  14.774  0.2541  0.1631  0.0238
 7705TIP3   OH244529   4.862   4.215  16.928  0.0513  0.0124 -0.1980
 7705TIP3    H144530   4.851   4.205  16.833  0.7710  2.5799 -0.6286
 7705TIP3    H244531   4.793   4.276  16.953  1.1822  1.0141  0.5418
 7706TIP3   OH244532   4.787   4.662   3.225 -0.0115 -0.2393 -0.3480
 7706TIP3    H144533   4.774   4.681   3.132 -1.7188 -3.3648 -0.9125
 7706TIP3    H244534   4.739   4.731   3.271 -0.8769  0.2360 -1.8814
 7707TIP3   OH244535   2.477   1.159  14.378 -0.7642  0.0122  0.1447
 7707TIP3    H144536   2.401   1.147  14.435 -1.4464  3.3048  0.0906
 7707TIP3    H244537   2.528   1.229  14.420  1.3916 -0.9252 -0.7286
 7708TIP3   OH244538   1.214   5.712   5.431 -0.5136 -0.8480  0.2436
 7708TIP3    H144539   1.188   5.689   5.342 -0.3893  0.0543 -0.0333
 7708TIP3    H244540   1.309   5.697   5.434 -0.3658 -0.0273 -0.0571
 7709TIP3   OH244541   4.545   0.749   0.994 -0.0617  0.1034  0.3392
 7709TIP3    H144542   4.525   0.656   0.995 -2.6186  0.5439 -1.0697
 7709TIP3    H244543   4.561   0.770   0.902 -1.8748  1.4133  0.2645
 7710TIP3   OH244544   5.014   5.374  16.856  0.5421 -0.1608 -0.1750
 7710TIP3    H144545   5.005   5.285  16.888 -1.0896  0.4148  1.1621
 7710TIP3    H244546   5.081   5.413  16.912  0.7356 -0.3534 -0.2738
 7711TIP3   OH244547   5.265   2.565   6.752  0.2257 -0.1134 -0.2780
 7711TIP3    H144548   5.351   2.591   6.719  1.0903 -0.9224  1.2315
 7711TIP3    H244549   5.269   2.469   6.757  0.0327 -0.0519  1.7888
 7712TIP3   OH244550   1.005   1.759  16.708 -0.3831 -0.2740 -0.3991
 7712TIP3    H144551   1.087   1.806  16.693 -1.2110  0.6653 -2.4896
 7712TIP3    H244552   0.942   1.828  16.730 -0.9990 -0.7616 -0.6108
 7713TIP3   OH244553   2.456   3.200  16.746  0.5886  0.5178 -0.3747
 7713TIP3    H144554   2.404   3.274  16.779 -0.0052  0.1183 -0.4091
 7713TIP3    H244555   2.399   3.124  16.757  0.6110  0.2791 -1.7570
 7714TIP3   OH244556   3.742   3.781  11.554  0.3326  0.5737  0.5858
 7714TIP3    H144557   3.795   3.755  11.479 -2.4524  1.9038 -2.0613
 7714TIP3    H244558   3.711   3.698  11.591 -2.0612 -0.3303 -2.8559
 7715TIP3   OH244559   2.362   4.168   0.340 -0.3910  0.1617  1.2003
 7715TIP3    H144560   2.304   4.171   0.264 -0.2624 -2.8716  0.8614
 7715TIP3    H244561   2.305   4.181   0.415 -1.5144 -2.2208  0.8400
 7716TIP3   OH244562   1.699   0.815   0.781  0.1307 -0.4427 -0.2719
 7716TIP3    H144563   1.652   0.752   0.835  1.7799 -0.4976  1.2005
 7716TIP3    H244564   1.667   0.901   0.810 -1.0780 -0.5149 -1.2877
 7717TIP3   OH244565   5.377   1.843  15.805  0.3995  0.1993  0.4926
 7717TIP3    H144566   5.291   1.803  15.810  0.4862  0.0083  0.4494
 7717TIP3    H244567   5.433   1.788  15.859  1.1753 -1.4492 -1.8156
 7718TIP3   OH244568   5.975   0.169  16.473  1.0624 -0.0361  0.4032
 7718TIP3    H144569   5.889   0.210  16.464  1.8583  1.8535  1.0107
 7718TIP3    H244570   5.958   0.090  16.526  0.0240  1.6051  2.6775
 7719TIP3   OH244571   1.306   6.713  16.410 -0.1046  0.0502  0.3496
 7719TIP3    H144572   1.242   6.779  16.382 -0.6604 -1.1752 -1.4090
 7719TIP3    H244573   1.257   6.655  16.469 -0.0204  0.3160  0.6867
 7720TIP3   OH244574   2.426   2.971   6.635  0.4859  0.1584 -0.4067
 7720TIP3    H144575   2.368   2.900   6.662 -0.0263  0.9908  0.7917
 7720TIP3    H244576   2.402   3.044   6.692 -0.9291  2.2038 -3.3381
 7721TIP3   OH244577   5.604   1.695  11.643 -0.2569  0.1340 -0.4017
 7721TIP3    H144578   5.683   1.742  11.616 -0.6167  1.3660  0.5740
 7721TIP3    H244579   5.602   1.703  11.738  0.2551 -2.9092 -0.0514
 7722TIP3   OH244580   3.951   3.800  12.938 -0.2526  0.5385 -0.1655
 7722TIP3    H144581   4.040   3.819  12.911  0.3408  0.0074  1.3410
 7722TIP3    H244582   3.922   3.731  12.878 -0.0007  1.3278 -1.2319
 7723TIP3   OH244583   1.917   4.230  16.918 -0.0181 -0.0108 -0.1104
 7723TIP3    H144584   1.981   4.298  16.939 -0.1124  0.2101 -0.5205
 7723TIP3    H244585   1.936   4.206  16.828  0.5911 -1.1724  0.3121
 7724TIP3   OH244586   1.903   6.524   6.677 -0.3805 -0.1571  0.4510
 7724TIP3    H144587   1.843   6.450   6.686  0.0130 -0.5671 -0.2021
 7724TIP3    H244588   1.988   6.483   6.657 -0.5401  0.5305 -1.8237
 7725TIP3   OH244589   5.092   5.995  10.245 -0.0584 -0.1597  0.2799
 7725TIP3    H144590   5.130   6.049  10.314  0.4184 -0.2982  0.1260
 7725TIP3    H244591   5.087   5.907  10.284 -0.1100 -0.1678  0.2564
 7726TIP3   OH244592   0.541   6.418  12.815  0.1552 -0.0960 -0.2172
 7726TIP3    H144593   0.566   6.510  12.824  1.3822 -0.1812 -2.1817
 7726TIP3    H244594   0.581   6.375  12.891 -2.3929  1.2386  2.0820
 7727TIP3   OH244595   1.135   0.851  14.676  0.0189  0.0943 -0.9910
 7727TIP3    H144596   1.116   0.780  14.615 -0.7636 -0.4222 -0.1776
 7727TIP3    H244597   1.156   0.807  14.758  3.6229  0.6653 -1.4370
 7728TIP3   OH244598   3.413   1.382   6.934 -0.3110  0.2866 -0.1426
 7728TIP3    H144599   3.418   1.469   6.895 -1.4917  0.5321  0.2087
 7728TIP3    H244600   3.499   1.343   6.918  0.0527  1.3153 -0.7667
 7729TIP3   OH244601   1.661   1.186  10.325  0.0878  0.1354  0.0238
 7729TIP3    H144602   1.566   1.176  10.322  0.1109 -0.7196  1.2828
 7729TIP3    H244603   1.676   1.280  10.316 -0.6846  0.0473 -3.2446
 7730TIP3   OH244604   1.583   4.066   0.105 -0.1609 -0.2704  0.4297
 7730TIP3    H144605   1.627   4.088   0.187 -2.0190  2.4913  0.8381
 7730TIP3    H244606   1.630   4.115   0.038 -1.3491  1.1458  0.5858
 7731TIP3   OH244607   2.307   5.212  13.936 -0.0051 -0.4773  0.4517
 7731TIP3    H144608   2.347   5.297  13.918 -3.5832  1.1038 -0.9235
 7731TIP3    H244609   2.309   5.205  14.031  2.1345  0.1180  0.5127
 7732TIP3   OH244610   0.404   2.510  16.625 -0.0797  0.1595 -0.0173
 7732TIP3    H144611   0.397   2.548  16.538  2.5162  1.3136  0.1946
 7732TIP3    H244612   0.496   2.522  16.649 -0.2736 -1.9153  2.0850
 7733TIP3   OH244613   1.155   4.420  16.498 -0.1273 -0.4999 -0.2750
 7733TIP3    H144614   1.132   4.466  16.417  0.3100  1.7767  0.8132
 7733TIP3    H244615   1.201   4.341  16.469 -0.7867 -0.2140 -2.2388
 7734TIP3   OH244616   0.839   4.322   1.754  0.0517  0.0010  0.2538
 7734TIP3    H144617   0.931   4.321   1.778  0.2230  1.7213 -0.2050
 7734TIP3    H244618   0.805   4.403   1.793 -1.6659 -1.3357  1.7390
 7735TIP3   OH244619   6.484   2.004  16.373 -0.3406  0.2855  0.1934
 7735TIP3    H144620   6.427   1.948  16.426 -0.0392 -0.9552 -0.7776
 7735TIP3    H244621   6.485   2.087  16.421 -2.0584 -0.0104  0.8303
 7736TIP3   OH244622   1.676   5.352  17.125  0.2623  0.0592 -0.0079
 7736TIP3    H144623   1.721   5.273  17.095  0.3945 -0.2272  0.9058
 7736TIP3    H244624   1.649   5.332  17.215 -1.6751  0.2302 -0.5022
 7737TIP3   OH244625   4.805   0.868  17.145  0.2998  0.6082 -0.2221
 7737TIP3    H144626   4.752   0.804  17.193  1.1551 -0.3277 -0.5170
 7737TIP3    H244627   4.891   0.865  17.187  0.8451  0.3181 -1.3371
 7738TIP3   OH244628   5.926   0.697   5.258  0.1110 -0.2427  0.5586
 7738TIP3    H144629   6.020   0.682   5.258  0.1707  0.0055  1.9586
 7738TIP3    H244630   5.889   0.613   5.286 -0.0262 -0.1285  0.7254
 7739TIP3   OH244631   6.201   5.316  15.548 -0.0576 -0.3445  0.1363
 7739TIP3    H144632   6.288   5.288  15.575  0.2391 -1.4975 -1.7918
 7739TIP3    H244633   6.203   5.412  15.553  0.7908 -0.4148  1.5462
 7740TIP3   OH244634   0.202   3.251   4.513 -0.4041  0.2153  0.2607
 7740TIP3    H144635   0.226   3.343   4.511  2.6653 -0.4300  1.7738
 7740TIP3    H244636   0.231   3.216   4.429 -2.2673  0.6919 -0.6364
 7741TIP3   OH244637   1.097   2.021  13.696  0.1928  0.5051  0.4102
 7741TIP3    H144638   1.108   2.050  13.786  2.0712 -3.0135  1.4867
 7741TIP3    H244639   1.162   2.070  13.647  0.5699  0.9713  1.3519
 7742TIP3   OH244640   4.448   2.447   6.554 -0.1643 -0.2218  0.2005
 7742TIP3    H144641   4.355   2.458   6.571  0.5532  0.3203  5.6464
 7742TIP3    H244642   4.480   2.536   6.537 -0.4669 -0.3333 -1.0681
 7743TIP3   OH244643   1.779   3.804  15.844 -0.2086 -0.0633  0.1238
 7743TIP3    H144644   1.792   3.829  15.936 -0.5861 -0.0198  0.1693
 7743TIP3    H244645   1.794   3.885  15.795  2.9233 -0.6990 -0.1461
 7744TIP3   OH244646   2.066   5.443  11.121  0.1444  0.3986  0.1681
 7744TIP3    H144647   2.091   5.351  11.125 -2.3214 -0.3545  0.4090
 7744TIP3    H244648   2.020   5.459  11.204  2.1135  2.4219  0.9658
 7745TIP3   OH244649   2.681   4.409   0.835  0.0058  0.3871 -0.2222
 7745TIP3    H144650   2.621   4.334   0.826  1.3045 -0.6881 -0.3085
 7745TIP3    H244651   2.652   4.471   0.768 -1.0423 -0.0700 -0.2198
 7746TIP3   OH244652   0.114   2.885   5.229 -0.2725 -0.0673  0.1012
 7746TIP3    H144653   0.204   2.852   5.220 -0.3131  0.3923 -2.5472
 7746TIP3    H244654   0.064   2.808   5.255  0.7157 -0.5565  0.6274
 7747TIP3   OH244655   3.847   0.237  12.258 -0.2706  0.2920 -0.4145
 7747TIP3    H144656   3.839   0.176  12.185 -1.9061  1.2804 -1.1174
 7747TIP3    H244657   3.762   0.280  12.263  0.4328  1.6440  0.8305
 7748TIP3   OH244658   2.670   3.341  10.655 -0.1987  0.4208 -0.3505
 7748TIP3    H144659   2.719   3.389  10.722 -0.2120  0.0069 -0.0414
 7748TIP3    H244660   2.674   3.249  10.683  0.3613  0.1481 -1.2626
 7749TIP3   OH244661   6.603   0.806  14.762 -0.2755  0.1051 -0.0561
 7749TIP3    H144662   6.680   0.860  14.742  1.1456 -1.4494  0.8966
 7749TIP3    H244663   6.530   0.851  14.719  1.0560  1.9579 -0.5133
 7750TIP3   OH244664   3.746   6.381   4.469 -0.3176 -0.2199 -0.4854
 7750TIP3    H144665   3.751   6.433   4.389 -0.3478 -0.4495 -0.6369
 7750TIP3    H244666   3.652   6.372   4.486 -0.3314  1.6559  0.7714
 7751TIP3   OH244667   0.489   3.396   2.625 -0.2390  0.9201 -0.7268
 7751TIP3    H144668   0.451   3.352   2.548  0.5830 -0.1300 -0.5606
 7751TIP3    H244669   0.533   3.326   2.672 -1.2789  1.4153  1.0813
 7752TIP3   OH244670   0.568   4.209  15.942  0.0995  0.5796 -0.5353
 7752TIP3    H144671   0.652   4.166  15.927  0.5571  1.3708 -0.2939
 7752TIP3    H244672   0.576   4.294  15.898 -0.9541  0.2615 -1.3871
 7753TIP3   OH244673   2.770   4.158   6.725  0.4265 -0.1619 -0.3434
 7753TIP3    H144674   2.829   4.227   6.697 -1.3442  2.0252  0.9546
 7753TIP3    H244675   2.809   4.124   6.806  0.4204  0.6275  0.0031
 7754TIP3   OH244676   4.590   0.392  14.330 -1.1086 -0.2707  0.1759
 7754TIP3    H144677   4.684   0.377  14.314  0.0793  3.7000  2.0038
 7754TIP3    H244678   4.558   0.427  14.247 -1.0950 -1.7747 -0.5061
 7755TIP3   OH244679   6.217   0.710  11.971  0.1989  0.6400 -0.6405
 7755TIP3    H144680   6.147   0.729  12.033  0.6009  0.1000 -0.0137
 7755TIP3    H244681   6.175   0.657  11.903  0.2621 -0.8789  0.4417
 7756TIP3   OH244682   6.449   5.630  13.126 -0.4487  0.3826 -0.1162
 7756TIP3    H144683   6.442   5.724  13.142 -0.4911  0.3195  0.2587
 7756TIP3    H244684   6.433   5.591  13.212  0.1652  0.0568 -0.1489
 7757TIP3   OH244685   0.028   5.471  15.406  0.6923  0.1527  0.5744
 7757TIP3    H144686  -0.008   5.415  15.337  3.3782  0.2954 -1.0479
 7757TIP3    H244687  -0.036   5.542  15.415 -1.0544 -1.2908  0.2471
 7758TIP3   OH244688   6.221   4.142  10.948 -0.1168  0.2470  0.1136
 7758TIP3    H144689   6.313   4.162  10.930  0.0963 -0.9122 -0.1453
 7758TIP3    H244690   6.180   4.139  10.862  0.0212 -1.1248  0.0711
 7759TIP3   OH244691   6.677   0.038   4.695  0.0798 -0.0601  0.1990
 7759TIP3    H144692   6.757  -0.010   4.672 -1.0141 -1.9373  0.1240
 7759TIP3    H244693   6.608  -0.028   4.693 -1.4555  1.4642  0.5064
 7760TIP3   OH244694   2.809   3.293   5.298 -0.0660 -0.0509 -0.0604
 7760TIP3    H144695   2.775   3.286   5.387  0.1427  4.5532  0.5899
 7760TIP3    H244696   2.903   3.280   5.308 -0.1888 -0.8921  0.1138
 7761TIP3   OH244697   4.631   6.054   6.276  0.0797 -0.7762  0.5321
 7761TIP3    H144698   4.541   6.082   6.262  1.2218  1.6807 -3.2555
 7761TIP3    H244699   4.658   6.097   6.357 -1.6641 -0.2635  0.8637
 7762TIP3   OH244700   3.675   4.021  16.784 -0.1082  0.4394 -0.3015
 7762TIP3    H144701   3.629   4.101  16.761  0.7927  0.9718 -0.3149
 7762TIP3    H244702   3.662   3.962  16.710 -1.3675  0.2891  0.0061
 7763TIP3   OH244703   3.522   2.715   3.511  0.0101  0.0290 -0.3567
 7763TIP3    H144704   3.555   2.665   3.436  0.4211 -2.2185  1.2165
 7763TIP3    H244705   3.549   2.664   3.587  2.8813  4.0384  1.6338
 7764TIP3   OH244706   5.675   2.382  12.882  0.0180  1.0910 -0.0547
 7764TIP3    H144707   5.677   2.286  12.873 -2.9382  0.9721 -0.5270
 7764TIP3    H244708   5.704   2.414  12.797 -0.4374  0.5424 -0.4328
 7765TIP3   OH244709   2.411   0.906  15.982  0.5244  0.1936 -0.6958
 7765TIP3    H144710   2.354   0.920  16.057  1.7173 -1.0623  0.4732
 7765TIP3    H244711   2.455   0.823  15.999  0.6078 -0.2871 -2.9329
 7766TIP3   OH244712   5.341   0.731  16.176  0.8865  0.3081  0.1288
 7766TIP3    H144713   5.295   0.711  16.094  0.7166  0.4360  0.1937
 7766TIP3    H244714   5.318   0.658  16.234 -0.4056  1.1138  0.6443
 7767TIP3   OH244715   1.871   1.210  17.339 -0.1745  0.1791 -0.6360
 7767TIP3    H144716   1.888   1.130  17.388 -1.4275  0.7419  0.7833
 7767TIP3    H244717   1.937   1.210  17.269 -0.2833 -2.1859 -0.8145
 7768TIP3   OH244718   3.619   4.161   2.702  0.2176  0.2250 -0.2067
 7768TIP3    H144719   3.615   4.067   2.689 -0.5164 -0.0451  1.6075
 7768TIP3    H244720   3.706   4.176   2.740  1.2056  0.6165 -2.4826
 7769TIP3   OH244721   2.243   3.754  13.966  0.4229  0.0854 -0.2961
 7769TIP3    H144722   2.172   3.805  14.003 -1.0582 -1.2204 -1.2009
 7769TIP3    H244723   2.245   3.778  13.873 -0.3636 -1.4651 -0.7619
 7770TIP3   OH244724   3.325   4.220  15.885 -0.0790  0.4941  0.5309
 7770TIP3    H144725   3.250   4.261  15.929  0.2262  0.2908  1.2585
 7770TIP3    H244726   3.303   4.223  15.792 -0.8098  0.8015  0.7064
 7771TIP3   OH244727   0.740   6.689   1.582  0.0559 -0.0290  0.4273
 7771TIP3    H144728   0.780   6.679   1.495  0.7015 -1.7110  0.8771
 7771TIP3    H244729   0.740   6.601   1.618 -2.7672  0.1609  1.0589
 7772TIP3   OH244730   4.407   0.908   3.758  0.0798  0.4577 -0.3120
 7772TIP3    H144731   4.501   0.922   3.744  0.3868  0.3040  1.3818
 7772TIP3    H244732   4.392   0.817   3.730  0.5761  0.2745 -0.0043
 7773TIP3   OH244733   1.739   1.478  15.699  0.0583 -0.3483 -0.1231
 7773TIP3    H144734   1.824   1.439  15.717  0.6753  0.6509 -0.7158
 7773TIP3    H244735   1.738   1.558  15.752  0.4365  0.7806 -1.7382
 7774TIP3   OH244736   4.148   3.908   2.963  0.0609  0.2687 -0.4801
 7774TIP3    H144737   4.136   3.869   3.050 -0.4437  1.4030 -0.0287
 7774TIP3    H244738   4.241   3.928   2.958  0.0514  0.4052 -0.1128
 7775TIP3   OH244739   5.617   5.949  11.566  0.5324  0.1234  0.5780
 7775TIP3    H144740   5.531   5.957  11.524 -0.0983 -0.2359  1.7701
 7775TIP3    H244741   5.601   5.898  11.645  1.7202  0.6566  1.1933
 7776TIP3   OH244742   6.130   6.436   4.873  0.7085  0.7191 -0.0331
 7776TIP3    H144743   6.176   6.396   4.948  0.8353 -0.5624 -0.7632
 7776TIP3    H244744   6.045   6.392   4.871  0.4439  1.2339 -0.2473
 7777TIP3   OH244745   4.205   1.364   0.046 -0.6780  0.1667 -0.0342
 7777TIP3    H144746   4.203   1.403   0.133 -1.7669  0.1221 -0.0291
 7777TIP3    H244747   4.127   1.397   0.002 -0.2264  0.0685 -0.9497
 7778TIP3   OH244748   6.593   5.391   2.957  0.1753 -0.1011  0.2241
 7778TIP3    H144749   6.677   5.430   2.980 -1.5527  1.7237  4.4226
 7778TIP3    H244750   6.587   5.312   3.011 -0.1918 -1.2385 -1.3777
 7779TIP3   OH244751   1.823   5.915  16.807  0.2554  0.4031  0.2921
 7779TIP3    H144752   1.748   5.882  16.855  1.1624 -1.5255  0.4620
 7779TIP3    H244753   1.887   5.938  16.874  1.7132 -2.7523  0.1411
 7780TIP3   OH244754   0.704   1.790   2.176 -0.1284  0.1042 -0.6028
 7780TIP3    H144755   0.620   1.785   2.129 -0.6434 -0.3614  0.3406
 7780TIP3    H244756   0.684   1.839   2.256  0.2521 -0.8940  0.1282
 7781TIP3   OH244757   4.847   5.785   1.846 -0.1602  0.6625  0.6015
 7781TIP3    H144758   4.843   5.796   1.941 -0.9256 -0.2184  0.6855
 7781TIP3    H244759   4.786   5.852   1.812 -0.5522  0.4031  0.7854
 7782TIP3   OH244760   4.362   4.702  13.028 -0.0234  0.2161  0.4560
 7782TIP3    H144761   4.305   4.773  12.999  0.5183 -0.3305 -2.1999
 7782TIP3    H244762   4.303   4.632  13.054 -0.5468  0.7790  0.8042
 7783TIP3   OH244763   4.442   0.557  13.609 -0.3250 -0.5053 -0.4428
 7783TIP3    H144764   4.507   0.526  13.672 -0.0587 -0.5373 -0.7331
 7783TIP3    H244765   4.429   0.485  13.549 -0.7711 -0.5668 -0.2834
 7784TIP3   OH244766   6.441   2.751   6.125  0.4588 -0.1465  0.0905
 7784TIP3    H144767   6.534   2.766   6.111  0.4126 -0.0620 -0.1261
 7784TIP3    H244768   6.428   2.768   6.219  0.8022 -0.8808  0.2815
 7785TIP3   OH244769   4.277   6.726   6.089 -0.1445  0.3832 -0.2536
 7785TIP3    H144770   4.303   6.818   6.092 -4.0258  1.6575  0.6102
 7785TIP3    H244771   4.349   6.679   6.130  1.9365  3.0051 -0.6270
 7786TIP3   OH244772   0.333   1.055   0.095  0.0428  0.3879  0.7768
 7786TIP3    H144773   0.317   1.147   0.072  1.6022  0.7631  1.0866
 7786TIP3    H244774   0.299   1.005   0.021  0.3720  1.2896  0.0028
 7787TIP3   OH244775   1.396   2.468  13.522 -0.3950  0.7135 -0.1976
 7787TIP3    H144776   1.421   2.399  13.583 -0.5191  0.3652 -0.5353
 7787TIP3    H244777   1.407   2.550  13.571  0.7058  0.5255 -0.1079
 7788TIP3   OH244778   3.331   4.291  16.869  0.6980  0.5451  0.3344
 7788TIP3    H144779   3.402   4.251  16.920  0.3407  0.8864  1.1242
 7788TIP3    H244780   3.372   4.318  16.787  1.2641 -0.1240  0.3871
 7789TIP3   OH244781   0.992   6.499  13.927  0.1448 -0.3584 -0.2543
 7789TIP3    H144782   0.909   6.544  13.941  0.9376  1.3073 -0.6249
 7789TIP3    H244783   0.968   6.419  13.880 -1.2664  0.0024 -0.1908
 7790TIP3   OH244784   3.856   3.221  12.480 -0.1101 -0.8366 -0.1260
 7790TIP3    H144785   3.799   3.229  12.557 -1.1077 -0.2431 -0.8991
 7790TIP3    H244786   3.829   3.293  12.423  1.9485 -0.0681 -0.2080
 7791TIP3   OH244787   2.710   1.088  16.032  0.2317 -0.5882 -0.2344
 7791TIP3    H144788   2.731   1.118  16.121 -1.3141  1.1221 -0.3794
 7791TIP3    H244789   2.716   0.993  16.037  1.9147 -0.4564  1.2220
 7792TIP3   OH244790   6.283   4.490  13.153 -0.0395  0.1665  0.0480
 7792TIP3    H144791   6.303   4.581  13.130 -1.0450 -0.3061 -3.1333
 7792TIP3    H244792   6.228   4.497  13.231 -0.5574  2.3157 -0.4414
 7793TIP3   OH244793   1.308   3.994   3.349 -0.1276 -0.1163  0.2346
 7793TIP3    H144794   1.256   4.073   3.335 -0.2969 -0.3664 -0.6095
 7793TIP3    H244795   1.289   3.938   3.273  0.7519 -0.5494  0.3098
 7794TIP3   OH244796   0.518   4.295  12.242  0.3851  0.0556 -0.2593
 7794TIP3    H144797   0.537   4.361  12.175  1.9748 -0.4356 -0.3273
 7794TIP3    H244798   0.542   4.212  12.201 -0.0409 -0.3999  0.3994
 7795TIP3   OH244799   4.719   5.749   1.525 -0.3668 -0.3491  0.2956
 7795TIP3    H144800   4.762   5.834   1.513  1.3671 -1.2499 -0.1646
 7795TIP3    H244801   4.626   5.769   1.520 -0.0275  1.6483  1.0277
 7796TIP3   OH244802   6.152   0.845  12.369 -0.4033  0.4240  0.0149
 7796TIP3    H144803   6.114   0.760  12.392  1.6913 -0.3878  0.7681
 7796TIP3    H244804   6.078   0.899  12.343 -1.9721 -1.1670  0.9946
 7797TIP3   OH244805   2.148   3.842  13.722 -0.3266  0.4628 -0.0501
 7797TIP3    H144806   2.088   3.771  13.700  0.7469 -0.1133 -1.2347
 7797TIP3    H244807   2.096   3.922  13.710 -0.7282  0.0073 -1.5570
 7798TIP3   OH244808   6.561   4.878   5.233  0.0804  0.2510 -0.4195
 7798TIP3    H144809   6.624   4.870   5.306 -0.5644 -2.3997 -0.0305
 7798TIP3    H244810   6.488   4.927   5.270 -0.2057 -0.9934  0.7786
 7799TIP3   OH244811   0.364   6.382  11.649 -0.3466 -0.0570 -0.3255
 7799TIP3    H144812   0.302   6.417  11.584  0.7711  0.9360 -0.9142
 7799TIP3    H244813   0.444   6.368  11.599 -0.4742 -2.6990  0.1124
 7800TIP3   OH244814   3.599   2.456  16.547  0.6868  0.2961  0.8119
 7800TIP3    H144815   3.544   2.378  16.548  1.5599 -0.3878  3.6440
 7800TIP3    H244816   3.678   2.431  16.594  1.3898  2.6247  1.0129
 7801TIP3   OH244817   3.158   1.082   5.349 -0.0097  0.0669 -0.4701
 7801TIP3    H144818   3.068   1.079   5.316 -0.4994  4.5559 -0.2103
 7801TIP3    H244819   3.150   1.065   5.443 -0.6809  0.7160 -0.3984
 7802TIP3   OH244820   5.400   5.445   5.561  0.1756 -0.3962  0.3792
 7802TIP3    H144821   5.322   5.394   5.583 -0.4971  1.0429  1.5036
 7802TIP3    H244822   5.400   5.449   5.466 -1.1394 -0.4177  0.3568
 7803TIP3   OH244823   5.212   5.298  12.011 -0.2881  0.4203 -0.0610
 7803TIP3    H144824   5.278   5.325  12.075 -0.8647 -0.1797  0.8037
 7803TIP3    H244825   5.130   5.300  12.060 -0.4594 -2.1946 -0.1340
 7804TIP3   OH244826   0.696   4.775   5.348 -0.0501 -0.5829 -0.0310
 7804TIP3    H144827   0.762   4.709   5.370 -0.6435 -0.8906  0.9272
 7804TIP3    H244828   0.613   4.733   5.371 -0.4090  0.6801  1.1431
 7805TIP3   OH244829   5.558   3.096  11.264  0.3887 -0.2381 -0.5412
 7805TIP3    H144830   5.584   3.015  11.307  2.2918  0.1912 -0.7667
 7805TIP3    H244831   5.465   3.105  11.283  0.7429 -1.0064  1.9446
 7806TIP3   OH244832   1.967   3.644   6.290  0.0419  0.2606 -0.1291
 7806TIP3    H144833   1.954   3.738   6.304  2.5324  0.6348  0.1482
 7806TIP3    H244834   1.926   3.603   6.366  0.1770  1.2372  0.4945
 7807TIP3   OH244835   4.494   5.802  16.025  0.1397  0.1826 -0.1804
 7807TIP3    H144836   4.495   5.806  15.930  2.6625  0.8693 -0.1980
 7807TIP3    H244837   4.416   5.851  16.051 -0.2860  0.4484 -1.8587
 7808TIP3   OH244838   5.442   0.987   1.115 -0.4171 -0.1453  0.1951
 7808TIP3    H144839   5.511   1.009   1.053  0.6791  0.2671  1.5042
 7808TIP3    H244840   5.365   1.035   1.084 -0.2161 -0.8413 -1.4554
 7809TIP3   OH244841   0.080   4.612  14.845  0.1178 -0.8665  0.1893
 7809TIP3    H144842   0.109   4.677  14.781 -0.8748 -0.7518 -0.1561
 7809TIP3    H244843   0.152   4.550  14.851  1.6308  0.9044  1.4423
 7810TIP3   OH244844   4.422   0.845  16.794 -0.0611 -0.3907 -0.2525
 7810TIP3    H144845   4.404   0.933  16.826 -0.1406 -0.3875 -0.3057
 7810TIP3    H244846   4.518   0.838  16.794 -0.0702 -1.0368  1.7811
 7811TIP3   OH244847   5.391   1.542  14.506  0.4176  0.5841  0.1719
 7811TIP3    H144848   5.328   1.522  14.437 -0.1876  0.0365  0.8639
 7811TIP3    H244849   5.475   1.508  14.473  0.3989  1.4780 -0.8271
 7812TIP3   OH244850   4.607   1.434   5.342 -0.0421  0.2199  0.1702
 7812TIP3    H144851   4.631   1.527   5.343 -1.7031  0.6838  0.2512
 7812TIP3    H244852   4.681   1.390   5.384  0.1025  1.6976  1.6026
 7813TIP3   OH244853   4.676   1.454   4.994  0.3329 -0.1329 -1.2139
 7813TIP3    H144854   4.714   1.541   4.988 -0.0647 -0.0617 -3.8792
 7813TIP3    H244855   4.587   1.469   5.026  0.9031  0.1689  0.3406
 7814TIP3   OH244856   0.677   0.117   1.789 -0.0853 -0.3246  0.1897
 7814TIP3    H144857   0.712   0.071   1.865 -0.8519  0.0873  0.7991
 7814TIP3    H244858   0.721   0.076   1.714  2.4179  0.8184  0.9407
 7815TIP3   OH244859   6.138   0.811   5.046 -0.2926  0.4922 -0.0535
 7815TIP3    H144860   6.232   0.801   5.061  0.0345  2.9403  0.0485
 7815TIP3    H244861   6.104   0.844   5.129 -0.8915  1.3988 -0.6398
 7816TIP3   OH244862   2.196   5.272   0.225  0.2855 -0.4316  0.5793
 7816TIP3    H144863   2.291   5.286   0.232 -0.0797  2.1485  1.1840
 7816TIP3    H244864   2.163   5.291   0.313 -0.7993 -1.6420  0.4638
 7817TIP3   OH244865   2.254   4.127  15.670 -0.2169 -0.1982 -0.3630
 7817TIP3    H144866   2.281   4.155  15.757  0.4701  1.3842 -1.0372
 7817TIP3    H244867   2.329   4.079  15.636 -0.0662  0.1193 -0.4803
 7818TIP3   OH244868   1.711   0.490  15.380  0.6655  0.1704  0.0618
 7818TIP3    H144869   1.658   0.469  15.456  0.5055 -0.5000 -0.2365
 7818TIP3    H244870   1.761   0.567  15.407 -1.1925  1.4632  0.0041
 7819TIP3   OH244871   2.686   1.716  12.960 -0.0761 -0.0473  0.1694
 7819TIP3    H144872   2.638   1.636  12.936 -0.5106 -0.0177  0.8929
 7819TIP3    H244873   2.707   1.704  13.053 -2.2857  1.7047  0.9865
 7820TIP3   OH244874   1.145   0.476  14.172 -0.8359 -0.1473 -0.1183
 7820TIP3    H144875   1.068   0.423  14.193 -1.2752  0.4275 -0.2767
 7820TIP3    H244876   1.134   0.500  14.080  0.1302 -1.0514 -0.4916
 7821TIP3   OH244877   3.470   0.910   1.298  0.2194  0.2463  0.3990
 7821TIP3    H144878   3.433   0.835   1.251  1.5477 -1.0021  1.2660
 7821TIP3    H244879   3.415   0.920   1.375  1.0561 -0.9901  1.1879
 7822TIP3   OH244880   5.171   0.437   4.833 -0.3366 -0.7660  0.1743
 7822TIP3    H144881   5.127   0.480   4.759 -0.2567 -2.1988 -0.7388
 7822TIP3    H244882   5.160   0.499   4.906 -3.5384 -0.8479 -0.0686
 7823TIP3   OH244883   4.489   3.903  16.278 -0.6855  1.1375 -0.0808
 7823TIP3    H144884   4.500   3.947  16.194 -0.4196  0.3387 -0.4787
 7823TIP3    H244885   4.490   3.810  16.256  0.4176  0.8877  0.9261
 7824TIP3   OH244886   0.028   4.035  12.858  0.8842 -0.4635  0.2619
 7824TIP3    H144887   0.004   4.008  12.946  0.8616 -1.8913 -0.1651
 7824TIP3    H244888  -0.010   3.969  12.800  2.5345 -0.6458 -0.6909
 7825TIP3   OH244889   2.366   5.629  10.696  0.2632 -0.5701 -0.1617
 7825TIP3    H144890   2.433   5.698  10.698  0.0559 -0.3517  1.9039
 7825TIP3    H244891   2.410   5.555  10.655  1.4565 -0.1106  0.2202
 7826TIP3   OH244892   1.503   0.641  16.308 -0.4409  0.0881  0.3402
 7826TIP3    H144893   1.553   0.606  16.234 -0.5417 -1.0218  0.7771
 7826TIP3    H244894   1.441   0.572  16.330 -0.6612  0.5521  1.2266
 7827TIP3   OH244895   5.865   0.789  14.670 -0.3366 -0.4792 -0.0037
 7827TIP3    H144896   5.816   0.812  14.591 -0.2502  0.6252  0.2513
 7827TIP3    H244897   5.940   0.739  14.638 -0.7977 -0.8597 -0.5270
 7828TIP3   OH244898   6.530   0.580  12.395  0.1739 -0.1174 -0.2779
 7828TIP3    H144899   6.452   0.535  12.363 -0.5917 -0.2145  1.5977
 7828TIP3    H244900   6.500   0.668  12.416  0.5886 -0.1402  0.4163
 7829TIP3   OH244901   2.017   2.130   2.856 -0.0699  0.8806 -0.4984
 7829TIP3    H144902   1.990   2.050   2.811 -1.9689  1.6126 -0.7656
 7829TIP3    H244903   1.952   2.142   2.925  0.1933  2.1692 -0.4500
 7830TIP3   OH244904   3.063   2.813  13.264  0.1468 -0.0878  0.2004
 7830TIP3    H144905   3.107   2.754  13.325  1.0625 -1.0264 -1.3209
 7830TIP3    H244906   3.001   2.758  13.216  0.2464  0.3937 -0.5012
 7831TIP3   OH244907   1.923   0.641   5.541  0.5596  0.2319  0.3822
 7831TIP3    H144908   1.908   0.547   5.538  1.2267  0.0844  1.2203
 7831TIP3    H244909   1.942   0.660   5.633  0.6063  1.1538  0.1955
 7832TIP3   OH244910   0.758   0.310   0.583  0.1678  0.5790 -0.3725
 7832TIP3    H144911   0.703   0.376   0.542  0.4451  0.8823 -0.2561
 7832TIP3    H244912   0.759   0.238   0.519  2.7270  2.0540 -2.1913
 7833TIP3   OH244913   1.538   6.152   0.732  0.1031  0.0843 -0.2401
 7833TIP3    H144914   1.483   6.140   0.655 -0.3234 -0.3880  0.1353
 7833TIP3    H244915   1.489   6.213   0.787 -0.5971 -1.1913  0.6029
 7834TIP3   OH244916   5.081   3.891   4.595  0.1365 -0.2067  0.0612
 7834TIP3    H144917   5.170   3.859   4.582  0.1048 -0.2366 -0.0869
 7834TIP3    H244918   5.072   3.898   4.690  0.4192  0.1410  0.0663
 7835TIP3   OH244919   5.465   2.965   2.964 -0.8489 -0.3815  0.4800
 7835TIP3    H144920   5.420   3.049   2.977  0.5044  0.5224 -0.3690
 7835TIP3    H244921   5.442   2.939   2.875 -1.5051 -1.0849  0.8464
 7836TIP3   OH244922   0.638   0.032   4.241 -0.0499 -0.5290  0.2174
 7836TIP3    H144923   0.730   0.005   4.237 -0.6533 -2.6233 -2.9774
 7836TIP3    H244924   0.595  -0.037   4.290 -0.0484  0.1778  1.2437
 7837TIP3   OH244925   1.011   1.829   3.232  0.3004  0.4417  0.1953
 7837TIP3    H144926   1.092   1.847   3.185 -0.4170  1.1310 -0.8142
 7837TIP3    H244927   0.956   1.906   3.217 -1.0918 -0.6073 -0.3559
 7838TIP3   OH244928   3.130   1.197   1.587 -0.0768  0.3416 -0.3245
 7838TIP3    H144929   3.048   1.162   1.552  0.1265 -0.1044 -0.3599
 7838TIP3    H244930   3.190   1.196   1.512 -0.7693  3.1574 -1.0313
 7839TIP3   OH244931   1.506   3.951   2.771 -0.3644 -0.0808  0.4926
 7839TIP3    H144932   1.520   4.045   2.775 -1.9191  0.1661  0.9937
 7839TIP3    H244933   1.472   3.928   2.858 -3.1513 -0.4863 -0.6012
 7840TIP3   OH244934   1.894   2.274  15.354 -0.2273  0.3952  0.0726
 7840TIP3    H144935   1.897   2.278  15.258 -0.0844 -0.9973 -0.0017
 7840TIP3    H244936   1.940   2.353  15.383  1.5737 -0.1853 -1.0330
 7841TIP3   OH244937   3.274   2.874  13.652  0.2242 -0.1533  0.0994
 7841TIP3    H144938   3.342   2.851  13.589  1.6614  1.4889  0.9689
 7841TIP3    H244939   3.235   2.954  13.618 -0.4929 -0.4555  0.1959
 7842TIP3   OH244940   2.326   3.521  16.793  0.5033  0.0795 -0.3154
 7842TIP3    H144941   2.357   3.525  16.702 -0.6774  0.7454 -0.7214
 7842TIP3    H244942   2.253   3.460  16.790 -0.4645  1.1934 -0.1321
 7843TIP3   OH244943   1.074   2.216   1.315 -0.0500  0.0619  0.2041
 7843TIP3    H144944   1.060   2.121   1.308  0.5531  0.0021 -0.3975
 7843TIP3    H244945   0.999   2.248   1.364 -1.9659 -0.3081 -2.2622
 7844TIP3   OH244946   4.567   1.894  15.539 -0.9149 -0.5473  0.4702
 7844TIP3    H144947   4.634   1.962  15.531 -2.6168  1.1716  0.1974
 7844TIP3    H244948   4.606   1.829  15.597  2.0054 -0.9612 -1.7094
 7845TIP3   OH244949   3.270   3.516  12.582 -0.1151 -1.0544 -0.3060
 7845TIP3    H144950   3.270   3.423  12.602 -0.7434 -1.0955 -0.4619
 7845TIP3    H244951   3.179   3.535  12.557 -0.4131 -0.0660  1.3422
 7846TIP3   OH244952   5.245   5.949  16.550 -0.4616  0.2719  0.6431
 7846TIP3    H144953   5.245   5.855  16.530 -0.6354  0.3718  0.1618
 7846TIP3    H244954   5.330   5.964  16.593  0.7777  0.3603 -1.6436
 7847TIP3   OH244955   3.039   4.943  11.658  0.1606 -0.6392 -0.1771
 7847TIP3    H144956   3.071   4.867  11.706  0.3075 -1.1768 -1.1026
 7847TIP3    H244957   3.075   4.933  11.570  0.1875  0.5129 -0.3089
 7848TIP3   OH244958   2.048   2.198  14.774 -0.0328  0.2076 -0.1147
 7848TIP3    H144959   2.054   2.293  14.788  0.3350  0.3646 -1.2003
 7848TIP3    H244960   2.117   2.161  14.829  1.1297  0.7603 -1.1279
 7849TIP3   OH244961   1.166   2.590  15.143  0.1190 -0.5002 -0.2790
 7849TIP3    H144962   1.130   2.607  15.057  1.6497 -0.6405 -0.9825
 7849TIP3    H244963   1.220   2.667  15.163 -0.6995 -0.1824  0.8407
 7850TIP3   OH244964   0.303   2.465  15.157 -0.0413  0.0816  0.1113
 7850TIP3    H144965   0.268   2.540  15.207  0.3101  0.4356 -0.1672
 7850TIP3    H244966   0.275   2.388  15.207 -0.0089  0.4160  0.6568
 7851TIP3   OH244967   0.899   3.064   3.712 -0.0964  0.9701 -0.4734
 7851TIP3    H144968   0.833   2.997   3.726 -0.7478  1.5926 -0.5144
 7851TIP3    H244969   0.868   3.139   3.762  0.1690  1.5270 -1.1245
 7852TIP3   OH244970   3.417   2.352   3.359 -0.0590 -0.1474  0.4957
 7852TIP3    H144971   3.362   2.430   3.366 -1.0007 -0.8318  0.9500
 7852TIP3    H244972   3.455   2.358   3.271 -0.7603  0.4200  0.2164
 7853TIP3   OH244973   4.256   0.869   3.390  0.4568 -0.0854  0.2577
 7853TIP3    H144974   4.346   0.901   3.384  1.0795 -1.7336  0.1562
 7853TIP3    H244975   4.227   0.861   3.299 -0.0167  0.9771  0.3013
 7854TIP3   OH244976   2.742   3.432  15.436  0.5032 -0.6013 -0.3461
 7854TIP3    H144977   2.713   3.449  15.347  1.1401  1.1740 -0.2624
 7854TIP3    H244978   2.745   3.337  15.443 -0.7390 -0.7758 -1.8133
 7855TIP3   OH244979   5.902   1.622  12.313  0.3058 -0.6060  0.0365
 7855TIP3    H144980   5.971   1.681  12.343  0.3682 -1.4734  1.7134
 7855TIP3    H244981   5.938   1.581  12.234  0.6130  0.8959 -0.6309
 7856TIP3   OH244982   2.446   4.147   4.551 -0.0216 -0.2951  0.3641
 7856TIP3    H144983   2.496   4.138   4.632  1.5215  2.1051 -0.2209
 7856TIP3    H244984   2.507   4.123   4.482 -0.3393  0.5935 -0.2446
 7857TIP3   OH244985   1.512   2.487   4.512  0.3328 -0.2371  0.0400
 7857TIP3    H144986   1.470   2.414   4.558 -2.9430  0.1826 -1.9142
 7857TIP3    H244987   1.576   2.446   4.454 -0.7128 -1.5029 -0.2750
 7858TIP3   OH244988   3.596   0.743  13.067 -0.7060  0.6310 -0.0318
 7858TIP3    H144989   3.526   0.792  13.110  0.2893  0.6247  1.6785
 7858TIP3    H244990   3.557   0.658  13.047 -1.4874  0.9908 -0.0778
 7859TIP3   OH244991   6.257   6.144   2.063 -0.2116  0.2232 -0.1172
 7859TIP3    H144992   6.187   6.138   2.128 -1.4820 -0.3190 -1.4889
 7859TIP3    H244993   6.213   6.164   1.981  1.2287 -0.2003 -1.0401
 7860TIP3   OH244994   1.834   1.373   5.652 -0.3160  0.0767  0.1742
 7860TIP3    H144995   1.806   1.446   5.707 -1.3904 -2.1719  2.7948
 7860TIP3    H244996   1.857   1.303   5.713  2.9218 -1.1289 -2.1190
 7861TIP3   OH244997   6.071   1.307  12.790 -0.0694 -0.2431 -0.0418
 7861TIP3    H144998   5.977   1.308  12.809 -0.4211 -2.7816 -1.2261
 7861TIP3    H244999   6.106   1.383  12.836 -2.0852 -1.2626  3.4984
 7862TIP3   OH245000   2.687   0.746  16.769  0.2778 -0.2626  0.0809
 7862TIP3    H145001   2.747   0.691  16.719 -0.1827 -1.0499  0.3708
 7862TIP3    H245002   2.646   0.686  16.832 -1.2299  0.1088 -0.4953
 7863TIP3   OH245003   5.196   0.529  11.294 -0.2719 -0.3367  0.0784
 7863TIP3    H145004   5.211   0.504  11.203  1.3781 -0.7422  0.4210
 7863TIP3    H245005   5.124   0.592  11.290 -0.1675 -0.2680 -1.5151
 7864TIP3   OH245006   5.565   5.971   5.946 -0.2305  0.1736  0.5325
 7864TIP3    H145007   5.582   6.001   6.035 -0.8654  0.2036  0.6493
 7864TIP3    H245008   5.555   5.876   5.954 -0.1199  0.1561  0.4657
 7865TIP3   OH245009   0.242   3.343   3.962  0.0660  0.2131 -0.1631
 7865TIP3    H145010   0.175   3.378   3.903  0.7545  0.2112 -0.9565
 7865TIP3    H245011   0.220   3.250   3.972  0.2777  0.0836 -0.8829
 7866TIP3   OH245012   3.162   2.498   0.903  0.0187  0.8441 -0.3716
 7866TIP3    H145013   3.082   2.530   0.861 -0.6499  0.1669  0.3480
 7866TIP3    H245014   3.188   2.423   0.849  0.8611  1.7597 -1.2982
 7867TIP3   OH245015   2.884   4.032   3.203 -0.4358 -0.7197  0.2325
 7867TIP3    H145016   2.927   3.949   3.226  1.2944 -0.0281 -0.4172
 7867TIP3    H245017   2.944   4.075   3.144 -2.0666  0.3003 -0.7579
 7868TIP3   OH245018   2.628   6.175   1.628  0.5861  0.0608 -0.5833
 7868TIP3    H145019   2.541   6.140   1.612  0.5795  0.5946 -1.7889
 7868TIP3    H245020   2.666   6.188   1.541  0.6966  2.7144 -0.2270
 7869TIP3   OH245021   4.020   5.030   1.147  0.3318 -0.7225 -0.3673
 7869TIP3    H145022   4.024   5.095   1.218  0.8061  1.4242 -2.2155
 7869TIP3    H245023   4.076   5.067   1.079 -0.6995 -2.3000 -2.1517
 7870TIP3   OH245024   1.531   3.350  17.258 -0.0975 -0.2580  0.2286
 7870TIP3    H145025   1.474   3.299  17.200  0.7551 -1.7149  0.6247
 7870TIP3    H245026   1.619   3.341  17.220  0.3544 -0.5886  1.2992
 7871TIP3   OH245027   1.011   2.406  16.358 -0.1760 -0.2500  1.0190
 7871TIP3    H145028   1.012   2.461  16.280 -2.8277 -0.6056  0.6574
 7871TIP3    H245029   1.087   2.436  16.409  1.3052  0.3709 -1.3761
 7872TIP3   OH245030   3.733   6.327   3.760 -0.4433  0.4346 -0.1149
 7872TIP3    H145031   3.653   6.348   3.711 -1.8085  1.1546  2.2655
 7872TIP3    H245032   3.712   6.249   3.811 -0.0628  1.2495  1.3742
 7873TIP3   OH245033   0.855   4.632  11.856  0.1027 -0.9067  0.2739
 7873TIP3    H145034   0.855   4.713  11.805 -0.8349 -1.7709 -1.1849
 7873TIP3    H245035   0.848   4.660  11.947  0.5740  0.6567 -0.1506
 7874TIP3   OH245036   2.236   3.103  13.537  0.4976  0.4436 -0.1717
 7874TIP3    H145037   2.289   3.077  13.462 -0.5459 -0.6213 -0.5746
 7874TIP3    H245038   2.146   3.107  13.503 -0.0685 -0.5403  1.1116
 7875TIP3   OH245039   1.195   3.022  13.878 -0.6267 -0.6281 -0.1877
 7875TIP3    H145040   1.261   2.994  13.941  0.4122 -1.8997 -1.7590
 7875TIP3    H245041   1.120   2.965  13.895 -0.7306 -0.2987  0.5119
 7876TIP3   OH245042   3.063   4.714  11.820  0.0334  0.1201  0.0534
 7876TIP3    H145043   2.989   4.730  11.879  1.7043 -3.4058  3.5820
 7876TIP3    H245044   3.049   4.624  11.789  2.4338 -0.4096  0.3061
 7877TIP3   OH245045   2.927   5.175  13.066  0.3927  0.3349  0.5316
 7877TIP3    H145046   2.876   5.096  13.084  0.7783 -0.7630 -2.5037
 7877TIP3    H245047   3.018   5.145  13.067  0.5748  0.8272 -0.1402
 7878TIP3   OH245048   4.543   2.435   1.149  0.0658  0.3328 -0.3712
 7878TIP3    H145049   4.482   2.481   1.091 -0.8475 -0.5273 -0.1318
 7878TIP3    H245050   4.588   2.372   1.091  1.4090  1.5743 -0.7243
 7879TIP3   OH245051   2.646   1.419   0.486 -0.2355 -0.1561 -0.5401
 7879TIP3    H145052   2.671   1.363   0.412  2.2378  1.0634 -0.7486
 7879TIP3    H245053   2.720   1.411   0.547 -1.7332 -0.2933  1.3416
 7880TIP3   OH245054   6.208   1.568   4.147 -0.5533 -0.0298 -0.0289
 7880TIP3    H145055   6.183   1.653   4.185 -0.0308 -0.0459  0.3643
 7880TIP3    H245056   6.264   1.591   4.072  0.7778 -0.0328  0.9299
 7881TIP3   OH245057   5.939   6.076  10.451  0.1708 -0.7808 -0.0178
 7881TIP3    H145058   5.994   6.043  10.522  1.6547  0.6828 -0.4096
 7881TIP3    H245059   5.927   6.002  10.392 -0.2544 -1.7482  1.2280
 7882TIP3   OH245060   0.816   3.017  13.523  0.2009 -0.0403 -0.0590
 7882TIP3    H145061   0.880   3.054  13.461  0.2047 -0.8519 -0.5531
 7882TIP3    H245062   0.857   2.936  13.553 -1.4153 -1.6572 -1.9358
 7883TIP3   OH245063   3.575   5.424   1.105  0.1306 -0.3752  0.1887
 7883TIP3    H145064   3.606   5.402   1.192  1.7163  0.1179 -0.2172
 7883TIP3    H245065   3.624   5.366   1.046 -1.8767 -1.6491 -0.3327
 7884TIP3   OH245066   2.924   6.473   0.695  0.0614  0.2987 -0.3425
 7884TIP3    H145067   2.893   6.563   0.685  0.6346  0.5204 -0.1904
 7884TIP3    H245068   2.856   6.419   0.655 -0.2827  0.8015 -0.4417
 7885TIP3   OH245069   4.177   2.512   3.379 -0.2677 -0.7046  0.0404
 7885TIP3    H145070   4.250   2.557   3.420  0.1130 -2.8299  1.9266
 7885TIP3    H245071   4.107   2.577   3.374  0.6278  0.4120  1.4958
 7886TIP3   OH245072   4.520   1.062   3.116  0.0831  0.1769 -1.3387
 7886TIP3    H145073   4.594   1.014   3.080  0.3814  0.3881 -1.0191
 7886TIP3    H245074   4.443   1.010   3.093  0.4666 -0.9600 -0.1977
 7887TIP3   OH245075   2.976   5.068   1.920  0.5203  0.8035  0.2936
 7887TIP3    H145076   2.907   5.090   1.983 -1.0800  0.5206 -1.2602
 7887TIP3    H245077   2.943   5.102   1.837  2.5931  1.2263 -0.4065
 7888TIP3   OH245078   3.761   1.922  13.159  0.3042  0.0820  0.0479
 7888TIP3    H145079   3.776   1.997  13.101 -0.2762  0.1522 -0.0222
 7888TIP3    H245080   3.746   1.849  13.099 -0.4755  0.1900  0.0953
 7889TIP3   OH245081   0.846   1.252   5.342  0.1254 -0.9496  0.4467
 7889TIP3    H145082   0.884   1.255   5.430  0.2862  2.6794  0.3949
 7889TIP3    H245083   0.910   1.296   5.287 -0.5506 -2.0580 -1.2984
 7890TIP3   OH245084   4.792   2.797  13.289  0.2548  0.0117 -0.0770
 7890TIP3    H145085   4.765   2.850  13.214 -0.3472  1.2334  0.9538
 7890TIP3    H245086   4.872   2.753  13.260 -0.2298  0.0663 -1.5834
 7891TIP3   OH245087   0.047   1.596  11.953  0.3184  0.2290  0.2222
 7891TIP3    H145088   0.011   1.523  12.002  0.1736  0.8169  1.0108
 7891TIP3    H245089   0.138   1.572  11.936  1.1452  1.0686  2.9823
 7892TIP3   OH245090   5.962   2.678  12.381  0.1254  0.0864  0.2886
 7892TIP3    H145091   5.922   2.747  12.433 -1.7355 -0.6031 -0.1522
 7892TIP3    H245092   5.977   2.607  12.443 -0.1688  0.0164  0.2791
 7893TIP3   OH245093   6.280   3.138   2.496 -0.3615  0.0276 -0.3266
 7893TIP3    H145094   6.267   3.188   2.577  1.2986 -1.4077  0.9029
 7893TIP3    H245095   6.249   3.050   2.517  0.7130 -0.5424 -1.0121
 7894TIP3   OH245096   1.078   5.552   1.947 -0.3560 -0.8560  0.1869
 7894TIP3    H145097   1.147   5.593   1.896 -0.4703 -2.2210 -1.1322
 7894TIP3    H245098   1.055   5.617   2.014 -1.6814  1.9476 -2.7273
 7895TIP3   OH245099   2.720   2.778   1.933 -0.1511  0.1434  0.0539
 7895TIP3    H145100   2.710   2.721   1.857 -0.8480  1.9382 -1.2790
 7895TIP3    H245101   2.671   2.735   2.003  0.9183 -1.8028 -0.3276
 7896TIP3   OH245102   0.542   0.219  16.915  0.2111  0.7348  0.0423
 7896TIP3    H145103   0.509   0.242  16.828 -0.9146  1.2931  0.5980
 7896TIP3    H245104   0.511   0.290  16.972  1.7445  0.8962  0.7462
 7897TIP3   OH245105   2.171   6.383   5.108  0.4440 -0.0164 -0.1949
 7897TIP3    H145106   2.219   6.463   5.128  0.6699 -0.5281  1.4216
 7897TIP3    H245107   2.083   6.413   5.087  0.8303  0.7381 -0.8045
 7898TIP3   OH245108   6.241   1.266  11.875  0.1618  0.4380 -0.0172
 7898TIP3    H145109   6.231   1.212  11.797 -2.9313  1.3932 -0.3963
 7898TIP3    H245110   6.241   1.355  11.842 -0.5708  0.8298  1.0089
 7899TIP3   OH245111   4.930   3.294  16.714 -0.3240  0.5321 -0.0779
 7899TIP3    H145112   4.970   3.381  16.719 -0.7909  0.8292 -1.1608
 7899TIP3    H245113   5.004   3.233  16.723 -0.1416  0.9938  1.9621
 7900TIP3   OH245114   6.258   4.329  11.875 -0.5150 -0.1195  0.1115
 7900TIP3    H145115   6.234   4.320  11.783  0.7703  2.1361 -0.5293
 7900TIP3    H245116   6.175   4.348  11.919 -0.8556  1.1995 -1.0077
 7901TIP3   OH245117   4.906   0.085  15.584  0.4296 -0.3414 -0.8160
 7901TIP3    H145118   4.833   0.076  15.521 -0.3113  1.0236 -0.1936
 7901TIP3    H245119   4.977   0.124  15.533 -0.4933  1.6841 -0.6249
 7902TIP3   OH245120   0.323   4.325  16.062 -0.3447  0.0484  0.1018
 7902TIP3    H145121   0.411   4.294  16.040 -0.3506  0.4999 -0.5800
 7902TIP3    H245122   0.336   4.379  16.140 -0.1240 -0.4535  0.4233
 7903TIP3   OH245123   3.612   0.323  12.185  0.0134 -0.7277  0.0326
 7903TIP3    H145124   3.590   0.232  12.164 -0.8007 -0.5374 -0.0114
 7903TIP3    H245125   3.526   0.366  12.193  0.2211 -0.6960  3.4896
 7904TIP3   OH245126   4.096   3.750   0.479 -0.5830 -0.1561 -0.2485
 7904TIP3    H145127   4.163   3.797   0.528 -0.8253 -0.0816  0.0164
 7904TIP3    H245128   4.023   3.741   0.540 -0.1919 -1.7149  0.0224
 7905TIP3   OH245129   3.406   2.435   6.554 -0.7666 -0.4203  0.2202
 7905TIP3    H145130   3.398   2.524   6.589 -0.2459  0.0768 -0.8835
 7905TIP3    H245131   3.394   2.445   6.460  1.3897 -1.1915 -0.1940
 7906TIP3   OH245132   4.059   6.289  12.853  0.1714 -0.4376 -0.7061
 7906TIP3    H145133   4.075   6.383  12.860 -1.4297 -0.0391 -1.8915
 7906TIP3    H245134   3.967   6.281  12.827  0.0515 -2.3661  0.0814
 7907TIP3   OH245135   0.941   0.987   3.551  0.1740 -0.3464  0.0634
 7907TIP3    H145136   0.963   0.911   3.606  1.0753 -0.3774 -0.3273
 7907TIP3    H245137   1.001   0.981   3.477 -1.3139 -0.5360 -1.1733
 7908TIP3   OH245138   5.076   3.013   2.540 -0.0890 -0.2026  0.2126
 7908TIP3    H145139   5.010   3.036   2.605 -0.6396 -0.7556 -0.1391
 7908TIP3    H245140   5.117   2.934   2.574  0.8647  0.5039  0.7551
 7909TIP3   OH245141   1.527   1.335  11.759 -0.3792  0.3094  0.1002
 7909TIP3    H145142   1.571   1.253  11.735 -0.2108  0.5184 -0.3179
 7909TIP3    H245143   1.563   1.400  11.698 -0.8480  0.6012  0.1319
 7910TIP3   OH245144   1.583   5.468  10.562  0.2405 -0.6785 -0.1621
 7910TIP3    H145145   1.572   5.379  10.594  0.2314 -0.2349  1.1213
 7910TIP3    H245146   1.670   5.469  10.521 -0.1946 -1.5352 -1.1457
 7911TIP3   OH245147   2.748   4.770  16.933  0.2384  0.2239  0.0209
 7911TIP3    H145148   2.807   4.702  16.965  0.2349  0.3034  0.2010
 7911TIP3    H245149   2.667   4.756  16.984 -0.3626 -0.7063 -1.1276
 7912TIP3   OH245150   0.073   5.505  13.051 -0.2858  0.0187 -0.0020
 7912TIP3    H145151   0.114   5.567  13.111  3.6376 -2.1990 -0.0428
 7912TIP3    H245152   0.055   5.428  13.104  0.2137 -0.8122 -0.9974
 7913TIP3   OH245153   4.684   3.976   4.655  0.2002  0.0081 -0.7084
 7913TIP3    H145154   4.685   3.921   4.733  0.0414  0.5571 -0.3135
 7913TIP3    H245155   4.678   4.066   4.689  1.4224  0.3409 -1.3200
 7914TIP3   OH245156   3.248   3.386   3.614  0.2539 -0.3013  0.2816
 7914TIP3    H145157   3.163   3.342   3.610  0.5052 -1.1144  2.6109
 7914TIP3    H245158   3.312   3.317   3.600  0.6237  0.4606 -2.4598
 7915TIP3   OH245159   6.738   5.647  15.756  0.4833 -0.3543  0.0538
 7915TIP3    H145160   6.802   5.619  15.822  0.4079  0.3277  0.4309
 7915TIP3    H245161   6.699   5.726  15.793  1.2000  0.6580 -1.2671
 7916TIP3   OH245162   2.507   5.056  13.377 -0.2469 -0.1765 -0.1947
 7916TIP3    H145163   2.496   5.145  13.343 -0.6669  0.5634  1.7455
 7916TIP3    H245164   2.424   5.037  13.420  0.4517 -0.7986  0.9262
 7917TIP3   OH245165   5.047   5.907   2.199  0.2993 -0.1509 -0.1246
 7917TIP3    H145166   5.029   5.977   2.262  2.3796 -1.7187  2.4184
 7917TIP3    H245167   5.133   5.928   2.164  0.8366 -1.2742  0.4813
 7918TIP3   OH245168   1.165   1.885   4.192  0.1274  0.4896 -0.2868
 7918TIP3    H145169   1.091   1.836   4.156 -0.5122  0.2663  1.2935
 7918TIP3    H245170   1.227   1.891   4.119 -1.6773  1.2124 -1.8542
 7919TIP3   OH245171   3.354   0.340  12.227 -0.2488  0.7167 -0.5338
 7919TIP3    H145172   3.302   0.412  12.263  1.3083  0.6078  2.1671
 7919TIP3    H245173   3.298   0.263  12.238 -0.0824  0.7985  1.1254
 7920TIP3   OH245174   5.332   3.212  15.038  0.2583 -0.1137 -0.0093
 7920TIP3    H145175   5.338   3.308  15.039  0.6259 -0.0967  2.3789
 7920TIP3    H245176   5.290   3.192  14.954 -0.2249  2.1504 -0.3937
 7921TIP3   OH245177   0.212   5.983   5.343 -0.2402 -0.1986 -0.2279
 7921TIP3    H145178   0.236   5.895   5.316  1.2871  0.5118 -1.3583
 7921TIP3    H245179   0.135   5.971   5.399  0.8889 -2.3706  0.9884
 7922TIP3   OH245180   2.398   2.553   4.688  0.1833  0.1697 -0.2409
 7922TIP3    H145181   2.411   2.517   4.600 -0.7639 -2.2150  0.5299
 7922TIP3    H245182   2.420   2.481   4.747  1.3954  1.9025  1.5494
 7923TIP3   OH245183   2.231   3.136  12.616  0.7897 -0.0341 -0.1154
 7923TIP3    H145184   2.264   3.094  12.537  0.9276 -0.2012  0.0298
 7923TIP3    H245185   2.310   3.154  12.668  1.2151  3.6342 -1.6764
 7924TIP3   OH245186   5.933   0.597   1.718 -0.3199  0.1006 -0.5289
 7924TIP3    H145187   5.992   0.667   1.689 -0.4753  0.8773  0.9355
 7924TIP3    H245188   5.978   0.516   1.695  1.3833  0.6741  0.6245
 7925TIP3   OH245189   2.365   0.643  15.598 -0.0739  0.1762 -0.3979
 7925TIP3    H145190   2.305   0.633  15.673 -0.0279  0.1744 -0.3612
 7925TIP3    H245191   2.362   0.737  15.578  1.4697  0.5518  0.9030
 7926TIP3   OH245192   4.116   4.475  12.240 -0.1031  0.3458  0.2626
 7926TIP3    H145193   4.177   4.546  12.260  0.1387  0.0477  0.6037
 7926TIP3    H245194   4.172   4.398  12.231 -0.1945  0.4761 -1.6843
 7927TIP3   OH245195   1.329   4.908   0.708  0.6442 -0.1886 -0.3917
 7927TIP3    H145196   1.268   4.877   0.775  0.6786  1.2523  0.3593
 7927TIP3    H245197   1.279   4.974   0.659  1.6543  1.3011  0.4862
 7928TIP3   OH245198   0.083   4.105  13.525  0.2132  0.1634  0.0679
 7928TIP3    H145199   0.140   4.074  13.455  0.6627 -0.4118  0.6679
 7928TIP3    H245200   0.123   4.188  13.554  0.6782 -0.1628  0.3869
 7929TIP3   OH245201   1.377   5.941   2.183  0.6786 -0.3315 -0.1460
 7929TIP3    H145202   1.472   5.944   2.197  0.7057 -1.0668 -0.1498
 7929TIP3    H245203   1.367   5.962   2.090  0.9925 -2.1060 -0.6231
 7930TIP3   OH245204   5.263   3.445  13.610  0.1576  0.2020 -0.5978
 7930TIP3    H145205   5.323   3.384  13.653  0.9016 -0.2552 -2.2121
 7930TIP3    H245206   5.250   3.409  13.523 -2.3163  0.4317 -0.3851
 7931TIP3   OH245207   0.678   4.797   1.997 -0.1823 -0.1308 -0.3752
 7931TIP3    H145208   0.675   4.793   2.093  0.9136  2.1654 -0.1767
 7931TIP3    H245209   0.590   4.825   1.972  0.5596  3.4373  0.3908
 7932TIP3   OH245210   3.268   5.184   1.057  0.2476 -0.6107 -0.1832
 7932TIP3    H145211   3.179   5.217   1.065  0.3147 -0.2103 -0.9274
 7932TIP3    H245212   3.270   5.145   0.969  1.2800  0.9367 -0.8888
 7933TIP3   OH245213   4.204   1.119   1.241  0.1491  0.2542 -0.0296
 7933TIP3    H145214   4.239   1.038   1.205  0.9777  1.4548 -2.0898
 7933TIP3    H245215   4.140   1.149   1.177 -1.9694  0.0574  1.8733
 7934TIP3   OH245216   4.160   2.943  15.113 -0.2052 -0.0115  0.4596
 7934TIP3    H145217   4.201   3.025  15.138 -1.4000  1.6365 -2.5521
 7934TIP3    H245218   4.207   2.916  15.034 -1.1790 -1.1413  0.2422
 7935TIP3   OH245219   1.688   4.049  16.763 -0.4184  0.3194 -0.4069
 7935TIP3    H145220   1.638   4.097  16.830  0.7774  0.5405  0.3637
 7935TIP3    H245221   1.735   3.982  16.812 -0.4824 -0.3242 -1.2120
 7936TIP3   OH245222   3.586   6.522   2.883  0.2706  0.1777  0.0328
 7936TIP3    H145223   3.648   6.470   2.833 -0.4041 -0.1610 -0.4775
 7936TIP3    H245224   3.524   6.459   2.919 -0.5579  0.5995 -0.5981
 7937TIP3   OH245225   1.757   2.377   4.738  0.3105  0.6784  0.2408
 7937TIP3    H145226   1.712   2.432   4.675 -0.5296 -0.0781  0.1519
 7937TIP3    H245227   1.844   2.363   4.700  0.0295  0.7431 -0.4398
 7938TIP3   OH245228   1.325   3.280  13.839  0.4138  0.2037 -0.0204
 7938TIP3    H145229   1.302   3.297  13.747  0.1376  1.6735  0.2878
 7938TIP3    H245230   1.307   3.187  13.851 -1.4749  0.3942 -0.9326
 7939TIP3   OH245231   1.683   4.980   4.737 -0.2120  0.2903  0.0412
 7939TIP3    H145232   1.705   5.068   4.768 -0.5770  1.3104 -2.3922
 7939TIP3    H245233   1.767   4.934   4.735  0.0167  0.6366  1.1284
 7940TIP3   OH245234   4.803   3.283   5.321 -0.3122  0.6119 -0.6090
 7940TIP3    H145235   4.768   3.226   5.252  0.8796 -3.4564  1.7689
 7940TIP3    H245236   4.732   3.290   5.384  0.4548 -0.9043  0.4900
 7941TIP3   OH245237   1.932   2.904  14.341 -0.4632 -0.0628  0.1328
 7941TIP3    H145238   1.891   2.820  14.325 -0.9613  0.1525  0.2453
 7941TIP3    H245239   1.872   2.968  14.303  0.8000  0.1509 -1.6262
 7942TIP3   OH245240   6.154   1.454   4.423 -0.6153  0.1126  0.0420
 7942TIP3    H145241   6.138   1.467   4.330  0.1623  0.0260 -0.1092
 7942TIP3    H245242   6.170   1.543   4.457 -0.8650  0.1405  0.0922
 7943TIP3   OH245243   2.013   5.386   2.323  0.5768 -0.1659  0.3243
 7943TIP3    H145244   1.980   5.302   2.292 -0.6976  0.8875 -1.2593
 7943TIP3    H245245   2.098   5.396   2.279 -0.2255  0.3149 -1.1543
 7944TIP3   OH245246   2.161   3.485  12.102  0.4729 -0.4722  1.0455
 7944TIP3    H145247   2.172   3.478  12.007 -1.9052  1.4532  0.5216
 7944TIP3    H245248   2.103   3.412  12.125  2.0741 -1.7256  1.3178
 7945TIP3   OH245249   0.907   3.390   3.628  0.4065 -0.1901 -0.2458
 7945TIP3    H145250   0.890   3.344   3.709  0.1123  0.5341  0.1163
 7945TIP3    H245251   0.849   3.466   3.630  1.6456  0.7947 -0.2996
 7946TIP3   OH245252   1.781   5.880   6.046 -0.1879  0.3514  0.0060
 7946TIP3    H145253   1.764   5.971   6.021 -0.9530 -0.0597 -1.0369
 7946TIP3    H245254   1.703   5.853   6.095  0.4708  0.5489  1.1968
 7947TIP3   OH245255   2.590   2.200   5.240  0.5758 -0.0444 -0.2003
 7947TIP3    H145256   2.649   2.131   5.211 -0.0062 -0.8790  0.5232
 7947TIP3    H245257   2.603   2.204   5.335 -0.6643 -0.4025  0.0091
 7948TIP3   OH245258   6.040   2.773  15.665  0.8229  0.4252  0.7137
 7948TIP3    H145259   6.110   2.800  15.725  0.5985  1.4455  0.5300
 7948TIP3    H245260   5.960   2.782  15.715  0.7624 -0.1297  0.7196
 7949TIP3   OH245261   5.307   1.011  14.918 -0.0439  0.2200 -0.9070
 7949TIP3    H145262   5.324   1.100  14.950 -0.9058 -0.2852  1.0752
 7949TIP3    H245263   5.346   1.010  14.830  1.2900  2.0876 -0.4081
 7950TIP3   OH245264   6.105   5.771  14.205 -0.7880  0.1062 -0.7088
 7950TIP3    H145265   6.197   5.746  14.204 -0.7513 -0.1864  1.9437
 7950TIP3    H245266   6.104   5.864  14.182  0.2652  0.2801 -0.1009
 7951TIP3   OH245267   6.429   0.065   0.947  0.0212 -0.0948  0.2960
 7951TIP3    H145268   6.362   0.068   1.015 -0.5465 -1.6980 -0.1313
 7951TIP3    H245269   6.412  -0.017   0.901  2.0455 -0.3616 -0.0839
 7952TIP3   OH245270   6.154   4.330  13.384  0.1223 -0.1157  0.1352
 7952TIP3    H145271   6.113   4.253  13.425  0.0719  0.0724  0.4372
 7952TIP3    H245272   6.102   4.404  13.415  0.0868  0.0286 -0.2660
 7953TIP3   OH245273   4.012   6.670  13.472  0.1399  0.1560  0.0915
 7953TIP3    H145274   3.926   6.698  13.504 -0.0076 -1.0793  0.8265
 7953TIP3    H245275   4.073   6.698  13.540  0.2669  0.5941 -0.1975
 7954TIP3   OH245276   3.356   5.881   0.136 -0.0877 -0.3688 -0.5806
 7954TIP3    H145277   3.385   5.962   0.094 -3.8739  1.7920  0.4991
 7954TIP3    H245278   3.387   5.889   0.226  0.6352 -0.8186 -0.7762
 7955TIP3   OH245279   6.678   0.985  13.270 -0.4195  0.7727 -0.5643
 7955TIP3    H145280   6.709   0.959  13.183  0.2767 -0.9252  0.1607
 7955TIP3    H245281   6.724   0.928  13.331 -3.2865 -0.3680  0.7271
 7956TIP3   OH245282   2.871   3.644   2.199 -0.4969  0.4247 -0.5322
 7956TIP3    H145283   2.794   3.590   2.182 -0.2021 -0.1369 -0.0669
 7956TIP3    H245284   2.847   3.697   2.275 -0.3250  0.0706 -0.2349
 7957TIP3   OH245285   0.626   5.074   3.421 -0.3605 -0.1555 -0.6000
 7957TIP3    H145286   0.540   5.033   3.414 -0.5224  0.3127 -1.5954
 7957TIP3    H245287   0.680   5.027   3.358 -0.5673  1.1536 -1.8085
 7958TIP3   OH245288   4.135   4.165  14.620 -0.2354  0.4655 -0.3539
 7958TIP3    H145289   4.123   4.121  14.704 -0.6473 -1.3149 -1.3082
 7958TIP3    H245290   4.203   4.231  14.636 -0.8387  0.6729  1.5380
 7959TIP3   OH245291   3.140   3.474  11.181  0.1452 -0.0605  0.7642
 7959TIP3    H145292   3.095   3.507  11.259  0.2767 -0.9943  1.2532
 7959TIP3    H245293   3.106   3.386  11.169  0.1427  0.0631 -0.2413
 7960TIP3   OH245294   5.106   4.233   3.181  0.0120  0.7646  0.2784
 7960TIP3    H145295   5.025   4.240   3.231 -1.2471  0.8793 -1.7038
 7960TIP3    H245296   5.167   4.292   3.225 -2.0553  3.4283 -0.2290
 7961TIP3   OH245297   4.731   0.721  15.991 -0.4864 -0.1398  0.1096
 7961TIP3    H145298   4.811   0.709  16.041 -0.4138  3.6646  1.1983
 7961TIP3    H245299   4.670   0.761  16.052 -1.7181  1.0914 -1.8149
 7962TIP3   OH245300   3.727   2.441   2.100  0.4287 -0.0319 -0.1478
 7962TIP3    H145301   3.765   2.499   2.035  0.2188  1.7285  1.2220
 7962TIP3    H245302   3.795   2.431   2.166 -0.0253 -0.2199  0.3030
 7963TIP3   OH245303   3.786   3.637   3.097 -0.2173  0.2802 -0.3831
 7963TIP3    H145304   3.844   3.594   3.034  1.7054  2.7034 -0.4105
 7963TIP3    H245305   3.734   3.698   3.044 -0.2570  0.6422  0.0674
 7964TIP3   OH245306   2.181   6.026  10.931  0.1389  0.0834  0.0537
 7964TIP3    H145307   2.200   5.934  10.951 -0.3952 -0.4782 -1.7493
 7964TIP3    H245308   2.164   6.026  10.837  0.0918  2.0435  0.0282
 7965TIP3   OH245309   4.140   4.421  11.519  0.7714  0.0609 -0.1749
 7965TIP3    H145310   4.137   4.474  11.439  0.5302  0.4727  0.1069
 7965TIP3    H245311   4.218   4.366  11.507 -0.2973 -1.2452 -1.5370
 7966TIP3   OH245312   5.607   0.218  13.836  1.1230 -0.2020  0.0097
 7966TIP3    H145313   5.571   0.302  13.864  2.3548  1.0314 -1.8863
 7966TIP3    H245314   5.645   0.236  13.750  1.1111 -2.8032 -0.6115
 7967TIP3   OH245315   2.041   0.915  15.638 -0.3715  0.2539 -0.2249
 7967TIP3    H145316   1.982   0.880  15.572 -0.6905 -0.1417  0.2664
 7967TIP3    H245317   1.985   0.938  15.712 -0.1997  1.9896 -0.5918
 7968TIP3   OH245318   1.035   0.836   2.591 -0.3727 -0.2187 -0.2846
 7968TIP3    H145319   0.944   0.815   2.573 -0.9159  2.0898 -0.5229
 7968TIP3    H245320   1.044   0.825   2.686 -1.4474  1.2945  0.0249
 7969TIP3   OH245321   2.964   5.434   0.316 -0.5280  0.2015 -0.6786
 7969TIP3    H145322   2.959   5.530   0.322 -0.4378  0.1211  1.5289
 7969TIP3    H245323   2.882   5.403   0.354  0.9866 -0.5724  2.2803
 7970TIP3   OH245324   4.113   5.912  11.691  0.6436  0.2734  0.0808
 7970TIP3    H145325   4.156   5.830  11.665 -0.5926 -0.5363  0.5106
 7970TIP3    H245326   4.161   5.980  11.643  0.8278 -0.8276 -1.3837
 7971TIP3   OH245327   0.464   4.474  14.576 -0.1796 -0.7689  0.6565
 7971TIP3    H145328   0.539   4.527  14.603 -1.9684  1.4089  1.6549
 7971TIP3    H245329   0.416   4.531  14.515 -0.6429 -2.4133 -0.5662
 7972TIP3   OH245330   0.096   4.869   5.049 -0.0968  0.1849 -0.1893
 7972TIP3    H145331   0.138   4.841   5.131  1.8393 -0.1622 -1.2499
 7972TIP3    H245332   0.014   4.910   5.078  0.6108  0.2490  1.9408
 7973TIP3   OH245333   3.808   1.878   4.887 -0.1721 -0.1282  0.0941
 7973TIP3    H145334   3.901   1.888   4.905 -0.5007 -0.7619  2.4254
 7973TIP3    H245335   3.798   1.907   4.796  1.6867  3.6631  0.8929
 7974TIP3   OH245336   1.700   2.933  12.647 -0.0409  0.0757 -0.3937
 7974TIP3    H145337   1.744   2.939  12.732  0.0912 -1.1702 -0.3548
 7974TIP3    H245338   1.633   2.865  12.660 -0.7764  0.6722 -0.9694
 7975TIP3   OH245339   2.773   2.599   2.470 -0.2117  0.0116 -0.2784
 7975TIP3    H145340   2.732   2.533   2.526 -0.2740  0.6907  0.5075
 7975TIP3    H245341   2.739   2.581   2.382 -0.1840 -1.0270 -0.0964
 7976TIP3   OH245342   5.502   2.250  11.863 -0.6082  0.3669  0.0152
 7976TIP3    H145343   5.458   2.329  11.894  0.6491  0.8415  0.6577
 7976TIP3    H245344   5.590   2.279  11.840 -0.1462 -0.8364  0.2013
 7977TIP3   OH245345   1.642   5.128  16.974  0.3797 -0.9653 -0.9324
 7977TIP3    H145346   1.628   5.058  17.037  1.7931  0.2570  0.8645
 7977TIP3    H245347   1.556   5.143  16.934 -0.3459 -2.4244  0.0057
 7978TIP3   OH245348   5.467   3.096   2.626  0.3752 -0.1317 -0.1777
 7978TIP3    H145349   5.524   3.123   2.554  0.1280  1.2222  0.1224
 7978TIP3    H245350   5.381   3.132   2.604  0.6831  1.8859  1.6502
 7979TIP3   OH245351   0.194   0.700   5.939  0.3303 -0.3698  0.1726
 7979TIP3    H145352   0.196   0.711   6.034 -3.1268 -1.0910  0.4873
 7979TIP3    H245353   0.204   0.606   5.926 -0.0293 -0.3778 -0.0663
 7980TIP3   OH245354   4.349   4.370   3.202 -0.1525  0.4341  0.2091
 7980TIP3    H145355   4.404   4.352   3.125 -0.6698  0.0248 -0.0690
 7980TIP3    H245356   4.291   4.440   3.174  0.9846  1.6837  0.8753
 7981TIP3   OH245357   0.453   4.246   3.628 -0.4964  0.1732  0.0531
 7981TIP3    H145358   0.409   4.250   3.713 -1.7860 -2.6520 -0.3870
 7981TIP3    H245359   0.402   4.304   3.572 -1.2769 -0.0416  0.5273
 7982TIP3   OH245360   3.698   5.828   1.853  0.0450  0.2214  0.6700
 7982TIP3    H145361   3.733   5.781   1.929  0.5611  1.7001  1.3783
 7982TIP3    H245362   3.762   5.812   1.783  0.3997  0.1718  1.0034
 7983TIP3   OH245363   1.768   2.345   6.245  0.4742 -0.5120 -0.6784
 7983TIP3    H145364   1.745   2.254   6.267  1.8055 -0.7908 -0.3938
 7983TIP3    H245365   1.844   2.365   6.300  0.3384  0.7082 -0.9070
 7984TIP3   OH245366   3.227   6.626   0.696 -1.0423  0.0939  0.0694
 7984TIP3    H145367   3.289   6.565   0.655 -0.9943  0.5165 -0.5056
 7984TIP3    H245368   3.149   6.620   0.640 -0.1364  2.5012 -1.6142
 7985TIP3   OH245369   3.821   1.966   2.013  0.2173 -0.2954 -0.2638
 7985TIP3    H145370   3.910   1.969   2.048 -0.0553  1.3268  0.4093
 7985TIP3    H245371   3.783   1.887   2.050  0.7339  0.0850  1.1254
 7986TIP3   OH245372   1.996   2.217  12.451  0.5895 -0.0200 -0.0857
 7986TIP3    H145373   1.943   2.269  12.511 -1.2698  0.0641 -1.6808
 7986TIP3    H245374   2.050   2.281  12.405 -1.1397  0.5207 -1.4975
 7987TIP3   OH245375   0.387   4.874  11.533  0.4419 -0.0730  0.1783
 7987TIP3    H145376   0.365   4.852  11.443  1.4250 -1.1167  0.1682
 7987TIP3    H245377   0.475   4.839  11.546  0.8937  1.2938  1.1237
 7988TIP3   OH245378   4.897   3.703  11.932 -0.3375  0.8502 -0.0796
 7988TIP3    H145379   4.927   3.778  11.984 -0.5857  0.2922  0.9122
 7988TIP3    H245380   4.939   3.714  11.847 -0.0443  1.8917  0.1824
 7989TIP3   OH245381   4.790   4.292   5.120  0.0561  0.3339 -0.6350
 7989TIP3    H145382   4.711   4.239   5.132  0.3040  0.2058  0.5130
 7989TIP3    H245383   4.788   4.317   5.027 -2.6313  2.4020 -0.1325
 7990TIP3   OH245384   3.323   6.272  10.907 -0.4808 -0.2927  0.4673
 7990TIP3    H145385   3.272   6.199  10.869 -0.4301  0.2069 -0.5934
 7990TIP3    H245386   3.368   6.311  10.832 -0.4353  0.7793  1.0365
 7991TIP3   OH245387   4.472   6.338  12.493  0.4980  0.0950  0.1662
 7991TIP3    H145388   4.488   6.414  12.437  1.2665 -0.9658 -1.0992
 7991TIP3    H245389   4.560   6.309  12.519  0.2436 -0.6641  0.2053
 7992TIP3   OH245390   1.327   3.199   0.849 -0.3237 -0.2675 -0.3138
 7992TIP3    H145391   1.392   3.151   0.799 -0.1437  0.8063 -1.1380
 7992TIP3    H245392   1.340   3.291   0.824 -1.2140  0.1219  0.5800
 7993TIP3   OH245393   5.012   1.081  11.469 -0.2495 -0.5840 -0.4378
 7993TIP3    H145394   5.089   1.108  11.419  0.3767 -1.3123  0.1039
 7993TIP3    H245395   4.939   1.097  11.410  0.1479  1.4139 -0.4811
 7994TIP3   OH245396   1.994   2.462   3.191  0.6205  0.4995 -0.2876
 7994TIP3    H145397   1.947   2.469   3.108 -0.3549 -0.8372  0.1222
 7994TIP3    H245398   2.006   2.368   3.203  1.3061  0.7181  0.7823
 7995TIP3   OH245399   4.581   5.843  13.666 -0.1892  0.2207 -0.3462
 7995TIP3    H145400   4.539   5.927  13.649 -1.2964 -0.2668 -0.1699
 7995TIP3    H245401   4.633   5.857  13.745 -0.5526  0.6823 -0.1861
 7996TIP3   OH245402   5.057   3.128  13.750 -0.1671 -0.3158 -0.2514
 7996TIP3    H145403   5.095   3.053  13.795 -0.1600  0.3835  0.9220
 7996TIP3    H245404   5.121   3.198  13.760 -0.1786 -0.1227 -1.3308
 7997TIP3   OH245405   5.520   3.696  10.818 -0.0478 -1.1108 -0.5425
 7997TIP3    H145406   5.581   3.623  10.812 -1.8071 -2.7587  0.4426
 7997TIP3    H245407   5.445   3.668  10.766 -1.4880 -0.8610  1.2741
 7998TIP3   OH245408   4.008   3.419   2.494  0.2165  0.7712  0.8387
 7998TIP3    H145409   3.936   3.360   2.472  0.7354  1.2254 -2.8413
 7998TIP3    H245410   4.080   3.361   2.519  0.2477 -0.1654 -1.2041
 7999TIP3   OH245411   0.937   0.206  12.663  0.4872  0.5313  0.0496
 7999TIP3    H145412   0.934   0.112  12.647  1.2106  0.6378 -0.8089
 7999TIP3    H245413   0.920   0.245  12.577  0.5593  1.1749  0.3264
 8000TIP3   OH245414   1.883   5.880   2.291  0.7010  0.2621  0.3002
 8000TIP3    H145415   1.974   5.881   2.261  0.0803  2.8480 -1.9587
 8000TIP3    H245416   1.852   5.792   2.274  2.5818 -0.4819  0.5265
 8001TIP3   OH245417   2.828   5.210   4.592  0.0656  0.3072  0.4731
 8001TIP3    H145418   2.845   5.303   4.606  1.7269  0.2835 -1.0598
 8001TIP3    H245419   2.734   5.205   4.578  0.0284  1.8514 -0.0498
 8002TIP3   OH245420   1.322   1.117   3.204 -0.1390  0.4602  0.4669
 8002TIP3    H145421   1.324   1.048   3.271 -0.2300  0.1326  0.1362
 8002TIP3    H245422   1.411   1.117   3.167  0.2642  1.4521  1.3954
 8003TIP3   OH245423   3.994   6.706   4.154 -0.3363 -0.4615  0.1678
 8003TIP3    H145424   4.058   6.771   4.181  1.7332 -2.3151  0.0167
 8003TIP3    H245425   4.008   6.695   4.060 -1.2443 -0.5405  0.0289
 8004TIP3   OH245426   0.723   0.783  16.641  0.0335  0.0662  0.2721
 8004TIP3    H145427   0.727   0.808  16.549  2.6138  1.9024  0.7806
 8004TIP3    H245428   0.681   0.697  16.640 -0.9216  0.4460 -2.4796
 8005TIP3   OH245429   6.539   1.035  16.898 -0.7141  0.2061 -0.3865
 8005TIP3    H145430   6.589   1.116  16.911 -1.1002  0.5319 -0.8890
 8005TIP3    H245431   6.600   0.965  16.923 -0.2520  0.6279 -0.3059
 8006TIP3   OH245432   2.601   2.928  12.448 -0.2466 -0.1922  0.0473
 8006TIP3    H145433   2.678   2.915  12.505 -0.4080 -4.9618 -0.3830
 8006TIP3    H245434   2.638   2.959  12.365  0.5743  1.9018  1.1121
 8007TIP3   OH245435   0.505   3.911  15.905  0.9600 -0.5694 -0.1149
 8007TIP3    H145436   0.578   3.952  15.858  2.1486 -1.0686  1.2274
 8007TIP3    H245437   0.427   3.938  15.856  1.6888  2.8271  0.3495
 8008TIP3   OH245438   6.360   3.948   2.136  0.0685  0.0674 -0.3110
 8008TIP3    H145439   6.290   3.922   2.196  0.6497  0.7310  0.6983
 8008TIP3    H245440   6.365   3.877   2.072 -0.4579 -0.7568  0.5340
 8009TIP3   OH245441   5.829   2.844  12.557  0.4337  0.3520  0.2695
 8009TIP3    H145442   5.878   2.877  12.633  1.7227  1.0255 -0.7957
 8009TIP3    H245443   5.770   2.778  12.593  1.0282  0.6292  1.8455
 8010TIP3   OH245444   4.712   2.807  15.993 -0.3367 -0.4611  0.0580
 8010TIP3    H145445   4.712   2.837  15.902  0.2455 -0.4846  0.0468
 8010TIP3    H245446   4.805   2.805  16.017 -0.4050 -1.6881  0.2465
 8011TIP3   OH245447   2.372   4.751   3.954 -0.1241 -0.2420  0.0678
 8011TIP3    H145448   2.417   4.825   3.913  1.0939 -1.5055 -0.9967
 8011TIP3    H245449   2.439   4.709   4.008 -0.5368 -1.0854 -0.0588
 8012TIP3   OH245450   1.989   6.700  11.139  0.0283  0.0473  0.3096
 8012TIP3    H145451   1.946   6.785  11.129  2.9778  1.4724 -1.3764
 8012TIP3    H245452   1.947   6.644  11.074 -0.4023  0.8814 -0.1448
 8013TIP3   OH245453   2.921   5.490  12.170 -0.0942  0.8372  0.1329
 8013TIP3    H145454   2.974   5.518  12.095  0.3910  1.4059  0.6806
 8013TIP3    H245455   2.834   5.526  12.153 -0.0365  0.8086 -0.2413
 8014TIP3   OH245456   6.189   2.266  11.522  0.1335 -0.2146 -0.2229
 8014TIP3    H145457   6.230   2.346  11.490 -1.5916  0.3977 -1.0411
 8014TIP3    H245458   6.213   2.261  11.614 -0.5931  1.8535  0.1265
 8015TIP3   OH245459   2.585   0.876  14.094 -0.0914 -0.0667  0.0872
 8015TIP3    H145460   2.625   0.808  14.038  0.4654  0.8061 -0.6125
 8015TIP3    H245461   2.547   0.828  14.167  0.1352 -1.1505 -0.4874
 8016TIP3   OH245462   1.344   0.834   0.746 -0.0672 -0.6621 -0.6211
 8016TIP3    H145463   1.348   0.745   0.712  1.4539 -0.7548 -0.2669
 8016TIP3    H245464   1.361   0.889   0.669  0.2649 -0.7407 -0.6062
 8017TIP3   OH245465   4.779   5.247   5.255  0.8767 -0.0590  0.5374
 8017TIP3    H145466   4.713   5.306   5.292  1.6878  1.1297  0.1707
 8017TIP3    H245467   4.762   5.163   5.296 -1.5483 -0.0779 -0.3491
 8018TIP3   OH245468   3.753   0.412  16.470 -0.0298 -0.1821 -0.3938
 8018TIP3    H145469   3.761   0.495  16.423  1.2680  0.6389  1.1876
 8018TIP3    H245470   3.666   0.415  16.510 -0.4172 -0.0821 -1.2204
 8019TIP3   OH245471   3.037   4.134  15.468  0.4999  0.2546 -0.1098
 8019TIP3    H145472   3.115   4.158  15.419  1.0990  0.0393  0.7072
 8019TIP3    H245473   2.982   4.088  15.405  0.5567  1.3230 -0.9698
 8020TIP3   OH245474   3.079   2.659  13.732  0.7916 -0.0618  0.6167
 8020TIP3    H145475   3.145   2.724  13.706  0.8639 -0.7683 -1.0750
 8020TIP3    H245476   3.007   2.673  13.671  0.6205 -1.2507  0.5384
 8021TIP3   OH245477   4.436   2.892   1.052 -0.0171 -0.2484 -0.0486
 8021TIP3    H145478   4.523   2.897   1.012  0.0258  0.5484  0.1289
 8021TIP3    H245479   4.435   2.962   1.117 -1.2097  0.5413 -0.8767
 8022TIP3   OH245480   1.778   6.061  13.044  0.5257 -0.4533 -0.3447
 8022TIP3    H145481   1.804   6.030  12.957 -0.8997 -0.1349 -0.9008
 8022TIP3    H245482   1.759   6.154  13.032 -0.5566 -0.6057  0.0964
 8023TIP3   OH245483   6.600   2.246   1.275  0.1866 -0.6240 -0.5547
 8023TIP3    H145484   6.655   2.279   1.203 -0.0374  0.4329 -0.2672
 8023TIP3    H245485   6.596   2.320   1.336  1.0581 -1.7752  0.9484
 8024TIP3   OH245486   3.601   1.837   5.918  0.1740 -0.2055 -0.4581
 8024TIP3    H145487   3.666   1.766   5.920 -1.6736 -1.9963 -0.0026
 8024TIP3    H245488   3.570   1.845   6.008  0.9613  1.8474 -0.3238
 8025TIP3   OH245489   3.924   3.580   1.363 -0.4878  0.4172  0.5380
 8025TIP3    H145490   3.902   3.489   1.379 -3.8317  1.1924  1.1652
 8025TIP3    H245491   3.906   3.624   1.446 -0.5965  1.8721 -0.2168
 8026TIP3   OH245492   2.803   6.243   2.595 -0.3681  0.0004 -0.6664
 8026TIP3    H145493   2.746   6.310   2.632 -0.5661 -0.6724  0.2810
 8026TIP3    H245494   2.891   6.282   2.599 -0.4766  0.1971 -0.1065
 8027TIP3   OH245495   2.323   3.061  13.850  0.3418 -0.3873  0.3452
 8027TIP3    H145496   2.330   2.977  13.805  0.6006 -1.6001  2.4988
 8027TIP3    H245497   2.392   3.058  13.916  0.5670  1.6829  0.2660
 8028TIP3   OH245498   4.737   4.850   1.821  0.4829 -0.1469 -0.0568
 8028TIP3    H145499   4.684   4.827   1.744  2.1868  1.5623 -1.8219
 8028TIP3    H245500   4.715   4.941   1.840  0.5051 -0.3720  1.2018
 8029TIP3   OH245501   5.546   1.208  15.752  0.6305 -0.7280 -0.3047
 8029TIP3    H145502   5.560   1.116  15.772  0.8162 -0.9798 -1.5003
 8029TIP3    H245503   5.575   1.217  15.661 -0.1211  0.3346 -0.4559
 8030TIP3   OH245504   2.699   6.484   5.063 -0.4488  0.9308  0.1608
 8030TIP3    H145505   2.645   6.453   4.990 -1.8689 -0.7282  1.8275
 8030TIP3    H245506   2.642   6.546   5.110 -0.8470 -0.5596  1.7253
 8031TIP3   OH245507   2.058   5.212   2.705  0.6198 -0.0657  0.1545
 8031TIP3    H145508   1.978   5.190   2.752  0.6679 -1.9144 -0.5512
 8031TIP3    H245509   2.044   5.301   2.674 -0.6043  0.1191  1.1669
 8032TIP3   OH245510   5.501   4.450  11.242 -0.5059 -0.1817  0.6267
 8032TIP3    H145511   5.567   4.466  11.174  0.5956 -1.3967  1.3591
 8032TIP3    H245512   5.530   4.504  11.316 -1.7750  1.2422  0.1422
 8033TIP3   OH245513   5.250   5.695   0.068 -0.1893 -0.1352  0.0921
 8033TIP3    H145514   5.275   5.678   0.159 -2.6753  0.1111  0.8992
 8033TIP3    H245515   5.325   5.666   0.017  0.6974 -1.6785  2.1314
 8034TIP3   OH245516   6.349   5.154   1.214  0.3662 -0.0093  0.1927
 8034TIP3    H145517   6.367   5.168   1.121 -1.3968 -2.4923 -0.6411
 8034TIP3    H245518   6.272   5.208   1.232  1.2861  1.2254  0.5031
 8035TIP3   OH245519   3.640   4.685   4.477 -0.5275 -0.1125 -0.2206
 8035TIP3    H145520   3.698   4.753   4.511 -0.0556 -0.3284 -0.5756
 8035TIP3    H245521   3.616   4.633   4.553  0.0078 -0.2123 -0.1147
 8036TIP3   OH245522   0.616   3.590  13.975  1.0860  0.9619  0.0794
 8036TIP3    H145523   0.708   3.563  13.970  1.1968  1.3813 -0.1970
 8036TIP3    H245524   0.615   3.661  14.039  0.6087 -0.4387  1.7081
 8037TIP3   OH245525   2.238   6.457   4.096  0.3070  0.5239  0.5845
 8037TIP3    H145526   2.316   6.438   4.147  0.3669  1.4300  0.8482
 8037TIP3    H245527   2.241   6.551   4.080 -0.8835  0.6350  0.8623
 8038TIP3   OH245528   2.431   2.785   2.817  0.1548 -0.0341 -0.4265
 8038TIP3    H145529   2.460   2.842   2.746 -0.0883  1.1686  0.3976
 8038TIP3    H245530   2.455   2.833   2.897  0.7123 -1.4883  0.3168
 8039TIP3   OH245531   1.820   0.485   6.274  0.6025 -0.0314 -0.4442
 8039TIP3    H145532   1.873   0.406   6.286  2.6661  1.2831 -0.4047
 8039TIP3    H245533   1.872   0.555   6.315 -1.9412  1.1084  1.1083
 8040TIP3   OH245534   4.507   0.603   5.173  0.3408  0.4398  0.2892
 8040TIP3    H145535   4.484   0.571   5.260  0.9996  3.5039  1.7419
 8040TIP3    H245536   4.425   0.634   5.135  0.4331  1.7693  1.1039
 8041TIP3   OH245537   2.687   4.464   0.539 -0.1958  0.4482 -0.2160
 8041TIP3    H145538   2.770   4.502   0.565  0.3412 -1.2126  0.6011
 8041TIP3    H245539   2.711   4.391   0.482 -1.1574  0.5924 -0.8406
 8042TIP3   OH245540   0.150   0.092   4.419  0.0568  0.0815 -0.2569
 8042TIP3    H145541   0.085   0.162   4.410 -1.3170 -1.1490 -0.3209
 8042TIP3    H245542   0.184   0.079   4.330  0.8789  1.1472 -0.1185
 8043TIP3   OH245543   6.518   3.160  12.219  0.3883 -0.0460 -0.5258
 8043TIP3    H145544   6.452   3.128  12.158  0.6747 -1.1746 -0.2664
 8043TIP3    H245545   6.513   3.100  12.294  0.2975  1.0896  0.4117
 8044TIP3   OH245546   0.073   1.086  12.020  0.3439  0.3331  0.2012
 8044TIP3    H145547   0.042   1.176  12.027 -1.4318 -0.1811 -0.4937
 8044TIP3    H245548   0.107   1.079  11.931  2.5795  0.8667  0.9259
 8045TIP3   OH245549   4.734   3.700  17.341 -0.0004  0.2884  0.5794
 8045TIP3    H145550   4.702   3.610  17.344  1.0155 -0.1447 -0.6407
 8045TIP3    H245551   4.766   3.717  17.430  0.8047 -0.9529  0.5599
 8046TIP3   OH245552   4.230   5.736   2.945 -0.4747  0.4458 -0.1632
 8046TIP3    H145553   4.150   5.686   2.957  0.5722 -1.1089  0.7117
 8046TIP3    H245554   4.265   5.707   2.861 -0.9698  1.3844 -0.7155
 8047TIP3   OH245555   4.504   6.169   4.748  0.1658  0.0950  0.2273
 8047TIP3    H145556   4.489   6.255   4.787  1.1254  0.9444 -1.1885
 8047TIP3    H245557   4.595   6.148   4.769  0.6412  0.4800 -1.3062
 8048TIP3   OH245558   2.065   6.662  11.551  0.1508 -0.4507 -0.0489
 8048TIP3    H145559   2.052   6.591  11.614  0.8802  0.0637  0.6914
 8048TIP3    H245560   2.141   6.635  11.499  1.0081  0.2046  0.8441
 8049TIP3   OH245561   1.141   2.050  10.952  0.2146 -0.2471 -0.8631
 8049TIP3    H145562   1.230   2.085  10.955  1.4704 -3.1907  0.1983
 8049TIP3    H245563   1.129   2.025  10.860  0.5496  0.0406 -0.9881
 8050TIP3   OH245564   0.661   2.343  12.067  0.1441 -0.0787 -0.7120
 8050TIP3    H145565   0.627   2.273  12.011  0.0471  0.0178 -0.7751
 8050TIP3    H245566   0.724   2.300  12.125 -0.1410 -0.2734 -0.5447
 8051TIP3   OH245567   1.822   2.783  16.783 -0.1361  0.3339  0.2601
 8051TIP3    H145568   1.867   2.771  16.866 -0.7683 -0.0768  0.5468
 8051TIP3    H245569   1.876   2.737  16.719 -0.5936 -0.8841  0.7374
 8052TIP3   OH245570   4.535   4.286  15.766  0.3863  0.2100 -0.0526
 8052TIP3    H145571   4.510   4.321  15.680  0.8212  0.8314  0.0722
 8052TIP3    H245572   4.587   4.208  15.744 -0.2833 -0.1606 -0.3356
 8053TIP3   OH245573   3.015   2.174  12.980 -0.0651  0.0183 -0.0442
 8053TIP3    H145574   3.001   2.154  13.073  0.2877  0.7885  0.1770
 8053TIP3    H245575   2.950   2.242  12.960 -0.7391 -0.7660 -0.5967
 8054TIP3   OH245576   5.526   4.843  11.529  0.1686  0.2088  0.2137
 8054TIP3    H145577   5.558   4.870  11.615  0.2448  0.5933  0.0640
 8054TIP3    H245578   5.431   4.851  11.535 -0.0297 -1.9839  1.0255
 8055TIP3   OH245579   3.390   4.228   1.063  0.1385  0.1227  0.3414
 8055TIP3    H145580   3.429   4.280   1.133 -0.2815  0.0545  0.6306
 8055TIP3    H245581   3.453   4.231   0.992  0.7405 -0.1153  0.8612
 8056TIP3   OH245582   1.312   3.909  12.351 -0.6747 -0.3399  0.2800
 8056TIP3    H145583   1.291   3.943  12.265 -0.0564 -0.1188  0.2072
 8056TIP3    H245584   1.242   3.942  12.408 -0.7356  0.0465 -0.0162
 8057TIP3   OH245585   5.658   0.994  14.615  0.5341  0.0732 -0.2647
 8057TIP3    H145586   5.598   1.068  14.614  0.7723  0.2715 -0.1415
 8057TIP3    H245587   5.745   1.034  14.610  0.6505 -0.2181 -0.6883
 8058TIP3   OH245588   1.154   1.040  13.337  0.0843  0.5029  0.0882
 8058TIP3    H145589   1.248   1.032  13.350 -0.0332 -0.8075  0.3057
 8058TIP3    H245590   1.141   1.129  13.304  1.5275  0.2839 -1.1540
 8059TIP3   OH245591   4.106   1.115   6.464 -0.3427 -0.0431 -0.0448
 8059TIP3    H145592   4.037   1.049   6.473 -0.9619  0.5964 -0.0909
 8059TIP3    H245593   4.168   1.076   6.402 -1.5819  0.1300 -1.4507
 8060TIP3   OH245594   6.224   5.620  16.567  0.0544 -0.2911 -0.2186
 8060TIP3    H145595   6.155   5.630  16.633 -0.7867  0.3199 -1.1541
 8060TIP3    H245596   6.275   5.545  16.597  0.5770  0.8075  1.8877
 8061TIP3   OH245597   3.632   6.604   0.803  0.3213  0.1173 -0.4810
 8061TIP3    H145598   3.651   6.555   0.723  0.3752 -1.4064  0.4277
 8061TIP3    H245599   3.560   6.557   0.844 -0.3537  1.4383 -0.0988
 8062TIP3   OH245600   4.048   3.179   5.495  0.3705 -0.3747  0.0461
 8062TIP3    H145601   4.128   3.226   5.518  0.4107 -0.7509  0.6770
 8062TIP3    H245602   4.075   3.088   5.488  0.0078 -0.4897  0.1702
 8063TIP3   OH245603   2.697   1.101  13.730  0.4597  0.4939  0.1863
 8063TIP3    H145604   2.649   1.148  13.798 -0.7205 -0.2691 -0.0847
 8063TIP3    H245605   2.634   1.090  13.659  0.4867 -1.8981  0.4388
 8064TIP3   OH245606   0.318   3.369  14.985  0.5642  0.2232 -0.0328
 8064TIP3    H145607   0.320   3.465  14.986 -1.8307  0.4935 -3.3183
 8064TIP3    H245608   0.230   3.346  15.014  1.1115 -1.0072  0.7094
 8065TIP3   OH245609   4.657   2.353   6.210  0.0101 -0.1847  0.4060
 8065TIP3    H145610   4.653   2.448   6.206  0.0853 -0.1264  1.5146
 8065TIP3    H245611   4.748   2.331   6.188 -0.3706 -0.1144 -1.3890
 8066TIP3   OH245612   5.551   4.378  15.377 -0.1887  0.4281 -0.0251
 8066TIP3    H145613   5.601   4.318  15.322 -0.6897 -0.4961  0.4999
 8066TIP3    H245614   5.608   4.394  15.453 -0.2014  0.3312  0.0050
 8067TIP3   OH245615   4.667   2.437   3.918 -0.3016  0.0191  0.0820
 8067TIP3    H145616   4.651   2.386   3.997 -4.3760  0.7988 -0.0240
 8067TIP3    H245617   4.671   2.528   3.948 -0.0234  0.1830 -0.4352
 8068TIP3   OH245618   0.099   5.257  15.641  0.2049  0.4395 -0.6806
 8068TIP3    H145619   0.046   5.282  15.717  1.1725 -1.4467  0.6840
 8068TIP3    H245620   0.074   5.320  15.573 -0.4063  2.4349  1.2886
 8069TIP3   OH245621   6.428   3.392  14.522  0.0040 -0.1724  0.3203
 8069TIP3    H145622   6.473   3.468  14.560  2.2779 -0.5543 -1.3944
 8069TIP3    H245623   6.440   3.402  14.428 -2.4399 -1.0618 -0.1505
 8070TIP3   OH245624   5.847   2.306  16.544  0.1883 -0.8449 -0.0599
 8070TIP3    H145625   5.859   2.231  16.486  3.2801  1.1564 -2.3766
 8070TIP3    H245626   5.920   2.301  16.605  0.1468  0.0132  0.0717
 8071TIP3   OH245627   4.143   1.371   1.012  0.4661  0.0694 -0.6069
 8071TIP3    H145628   4.230   1.400   0.985  1.2974 -0.8763  0.9039
 8071TIP3    H245629   4.137   1.397   1.104 -0.0188 -1.6575 -0.1265
 8072TIP3   OH245630   3.497   3.638   2.081 -0.3726 -0.4563 -0.5960
 8072TIP3    H145631   3.458   3.550   2.078  0.0483 -0.6204 -1.4546
 8072TIP3    H245632   3.447   3.684   2.149 -2.1968 -0.6145 -1.7705
 8073TIP3   OH245633   1.550   4.923   4.198 -0.4337 -0.1308  0.2795
 8073TIP3    H145634   1.541   4.858   4.128 -2.6280  0.2885  0.1097
 8073TIP3    H245635   1.556   4.872   4.278 -0.3063 -0.5728 -0.0078
 8074TIP3   OH245636   1.451   1.975  16.875 -0.1179 -0.1686  0.0569
 8074TIP3    H145637   1.537   1.947  16.843 -0.2592 -0.6415  0.0836
 8074TIP3    H245638   1.389   1.935  16.815 -0.3688 -0.7203  0.6772
 8075TIP3   OH245639   6.574   2.282  16.507  0.4684 -0.5035  0.6024
 8075TIP3    H145640   6.565   2.361  16.453 -0.3711  0.8664  2.6047
 8075TIP3    H245641   6.661   2.248  16.485  0.7741  0.8568 -0.4794
 8076TIP3   OH245642   4.527   2.604   4.424 -0.2397  0.0441  0.2837
 8076TIP3    H145643   4.498   2.517   4.399 -1.0772  0.3408  0.2052
 8076TIP3    H245644   4.470   2.629   4.496  1.2904 -0.2633  1.6633
 8077TIP3   OH245645   3.680   1.642   4.927  0.5196 -0.2139 -0.1025
 8077TIP3    H145646   3.712   1.731   4.941 -0.1073  0.0056 -0.0514
 8077TIP3    H245647   3.685   1.628   4.833  2.4936 -0.8465  0.0311
 8078TIP3   OH245648   5.081   5.399  11.634  0.1083  0.3616 -0.3039
 8078TIP3    H145649   5.165   5.434  11.605  0.2250 -0.1588 -0.6091
 8078TIP3    H245650   5.065   5.441  11.719  0.7175  0.3965 -0.2057
 8079TIP3   OH245651   6.510   5.727  15.315 -0.5847  0.8750 -0.3544
 8079TIP3    H145652   6.424   5.769  15.317 -0.9012  0.2269  0.1337
 8079TIP3    H245653   6.499   5.646  15.366  0.4310  1.0098  0.1105
 8080TIP3   OH245654   2.667   6.688  14.263  0.2033  0.5525 -0.2148
 8080TIP3    H145655   2.607   6.688  14.189 -0.5437  0.1019  0.3734
 8080TIP3    H245656   2.610   6.693  14.340  0.8721 -0.6742  0.3854
 8081TIP3   OH245657   3.145   0.164  16.634 -0.1897  0.3823 -0.4288
 8081TIP3    H145658   3.218   0.113  16.599 -1.1572 -1.7774  0.5144
 8081TIP3    H245659   3.182   0.251  16.650  2.6538 -1.0294  1.5126
 8082TIP3   OH245660   1.551   1.220  17.292 -0.3640  0.4080  0.1041
 8082TIP3    H145661   1.626   1.165  17.271 -0.8546  0.4886 -2.1191
 8082TIP3    H245662   1.587   1.295  17.339  1.2426  1.2944 -2.3779
 8083TIP3   OH245663   3.914   5.373  15.801 -0.2694  0.2328 -0.5334
 8083TIP3    H145664   3.948   5.443  15.746 -0.2916  0.9562  0.3530
 8083TIP3    H245665   3.819   5.378  15.792 -0.2531 -0.0184 -0.8666
 8084TIP3   OH245666   6.298   1.299   2.066 -0.7968  0.6224  0.2614
 8084TIP3    H145667   6.229   1.261   2.120 -0.8077  1.3903  0.8082
 8084TIP3    H245668   6.328   1.376   2.115 -0.6661  1.2271 -0.7274
 8085TIP3   OH245669   0.521   0.447  14.629  0.1894  0.0891  0.5779
 8085TIP3    H145670   0.551   0.480  14.714 -1.9036  1.8002  0.7541
 8085TIP3    H245671   0.453   0.384  14.651 -0.4893  0.6709  0.2036
 8086TIP3   OH245672   3.080   0.800   0.870  0.0787  0.1392 -0.0632
 8086TIP3    H145673   3.095   0.894   0.857 -1.3604  0.3972 -0.0363
 8086TIP3    H245674   3.029   0.773   0.794  0.5570 -0.6509 -0.1119
 8087TIP3   OH245675   5.922   6.275   4.224 -0.6405  0.2501 -0.2227
 8087TIP3    H145676   5.963   6.230   4.298 -2.0765 -0.0668  0.4148
 8087TIP3    H245677   5.894   6.359   4.259 -0.4527  0.5034 -0.6758
 8088TIP3   OH245678   4.535   4.382   2.016 -0.6364  0.3364 -0.1771
 8088TIP3    H145679   4.578   4.359   1.934 -1.6757 -1.1941 -0.3355
 8088TIP3    H245680   4.507   4.473   2.004  1.7694  1.1311 -0.3487
 8089TIP3   OH245681   3.515   5.517  13.710 -0.5718  0.2205  0.1113
 8089TIP3    H145682   3.447   5.554  13.652 -0.0759  0.5158 -0.2956
 8089TIP3    H245683   3.579   5.588  13.720  0.5522 -0.5975 -0.9247
 8090TIP3   OH245684   2.080   1.187   3.943 -0.4941  0.4643  0.0512
 8090TIP3    H145685   1.984   1.186   3.944 -0.4993  0.4862 -0.2401
 8090TIP3    H245686   2.103   1.277   3.968 -0.5963  1.0339 -1.6921
 8091TIP3   OH245687   1.725   2.328  16.066  0.1245 -0.3848 -0.6081
 8091TIP3    H145688   1.653   2.266  16.079 -0.3975  0.1572 -0.8320
 8091TIP3    H245689   1.803   2.273  16.063 -0.1141 -0.8652  0.9860
 8092TIP3   OH245690   5.974   5.552  17.172  0.3109 -0.7760  0.1358
 8092TIP3    H145691   6.068   5.539  17.166  0.4920  0.2878  0.4246
 8092TIP3    H245692   5.964   5.630  17.227 -0.6837 -0.0267 -1.0703
 8093TIP3   OH245693   1.330   1.806  16.722  0.2406  0.1846 -0.1622
 8093TIP3    H145694   1.342   1.794  16.628  2.5330 -0.7543  0.1854
 8093TIP3    H245695   1.387   1.740  16.762 -1.9591 -0.6164  1.9199
 8094TIP3   OH245696   5.730   0.421   1.546 -0.7302 -0.5553 -0.6102
 8094TIP3    H145697   5.708   0.328   1.540  0.0974 -0.6835 -1.9382
 8094TIP3    H245698   5.815   0.429   1.503  0.7918  0.3127  2.2921
 8095TIP3   OH245699   2.383   0.092  16.755 -0.3919  0.1546  0.3508
 8095TIP3    H145700   2.327   0.169  16.769  0.1092  0.6172 -0.1535
 8095TIP3    H245701   2.428   0.080  16.838  0.8296  1.4746 -0.0885
 8096TIP3   OH245702   5.716   1.412   0.518 -0.0955 -0.4148  0.8374
 8096TIP3    H145703   5.705   1.340   0.580  0.1859 -0.0101  1.3661
 8096TIP3    H245704   5.629   1.450   0.509 -0.4063 -1.3042 -0.0541
 8097TIP3   OH245705   3.944   4.427   3.471 -0.3278 -0.2478 -0.1230
 8097TIP3    H145706   3.963   4.425   3.565 -1.3141  0.5240  0.1088
 8097TIP3    H245707   4.022   4.390   3.430  0.4104  0.0691  0.9595
 8098TIP3   OH245708   0.887   3.553  14.143 -0.6053  0.6248  0.3535
 8098TIP3    H145709   0.918   3.508  14.222  1.3665  1.1349 -0.1024
 8098TIP3    H245710   0.851   3.482  14.089 -1.5115  0.2050  1.4528
 8099TIP3   OH245711   3.262   4.603  14.027  0.3775 -0.3148  0.0665
 8099TIP3    H145712   3.194   4.548  13.988 -0.4464  0.4623  0.3701
 8099TIP3    H245713   3.230   4.619  14.116  1.3053 -0.5045  0.4371
 8100TIP3   OH245714   1.559   1.129   5.782  0.3428 -0.2019 -0.0006
 8100TIP3    H145715   1.624   1.071   5.742  1.8086  0.6721  0.9993
 8100TIP3    H245716   1.498   1.150   5.712  1.8330 -0.1051 -1.3195
 8101TIP3   OH245717   5.444   1.713  16.145 -0.3559 -0.5075 -0.3817
 8101TIP3    H145718   5.395   1.638  16.110  1.1560 -0.3328 -3.1218
 8101TIP3    H245719   5.515   1.727  16.083  0.5662  2.0251  1.0812
 8102TIP3   OH245720   4.734   5.758   3.418 -0.0537  0.2390  0.2832
 8102TIP3    H145721   4.690   5.674   3.431 -0.7470  0.5692  0.1437
 8102TIP3    H245722   4.692   5.817   3.481  0.6511  0.4053  0.6060
 8103TIP3   OH245723   0.174   5.535  14.799 -0.5748  0.8037 -0.5157
 8103TIP3    H145724   0.114   5.600  14.761 -0.1933  1.1691 -0.4949
 8103TIP3    H245725   0.216   5.494  14.724  0.2111  1.5564 -0.4901
 8104TIP3   OH245726   3.684   6.747  16.354  0.7609 -0.0088  0.1537
 8104TIP3    H145727   3.622   6.817  16.373  1.5376  0.6645  0.2672
 8104TIP3    H245728   3.666   6.724  16.263 -0.8905 -1.1129  0.7270
 8105TIP3   OH245729   5.862   3.958  12.140 -0.2999  0.5384  0.2223
 8105TIP3    H145730   5.791   3.940  12.200 -0.9867  1.5065 -0.2703
 8105TIP3    H245731   5.907   3.874  12.129 -1.6173 -0.1898  0.2193
 8106TIP3   OH245732   5.538   2.003  12.602  0.0789 -0.0688 -0.3595
 8106TIP3    H145733   5.500   2.086  12.632  0.5816 -0.2147  0.7425
 8106TIP3    H245734   5.520   1.942  12.674  0.8986 -0.5722 -0.5723
 8107TIP3   OH245735   2.046   0.224   2.889  0.1563 -0.0949  0.2389
 8107TIP3    H145736   2.040   0.132   2.863  0.9259 -0.4411  1.2443
 8107TIP3    H245737   2.096   0.223   2.971  0.0171  1.2023  0.3582
 8108TIP3   OH245738   3.054   6.571   2.395 -0.2968 -0.1384 -0.2085
 8108TIP3    H145739   3.024   6.486   2.361 -0.5135 -0.9169  1.7428
 8108TIP3    H245740   3.046   6.562   2.490  0.8893  1.6452  0.1085
 8109TIP3   OH245741   4.198   3.198   2.790 -0.6093  0.0380  0.2457
 8109TIP3    H145742   4.140   3.188   2.866  1.6501 -0.7214  1.9806
 8109TIP3    H245743   4.239   3.113   2.780 -0.3498  0.3332 -1.4427
 8110TIP3   OH245744   2.013   6.379   4.249  0.1084  0.1098 -0.3564
 8110TIP3    H145745   2.073   6.375   4.174  2.7852 -1.8104  1.6971
 8110TIP3    H245746   1.982   6.290   4.261 -1.2839  0.6266  0.1185
 8111TIP3   OH245747   3.938   1.876  14.428  0.6204 -0.2365 -0.3188
 8111TIP3    H145748   3.854   1.870  14.474 -0.1418 -0.0768 -1.6513
 8111TIP3    H245749   3.967   1.785  14.421  0.5502 -0.2974  0.1189
 8112TIP3   OH245750   5.022   0.701   1.896  0.5078  0.0307 -0.0648
 8112TIP3    H145751   5.044   0.794   1.886  0.4229 -0.0260 -0.8971
 8112TIP3    H245752   5.106   0.656   1.886  0.1593 -0.1815 -3.1790
 8113TIP3   OH245753   2.386   3.971  13.716 -0.2632 -0.2587  0.0631
 8113TIP3    H145754   2.310   3.913  13.706 -1.8929  1.5488  1.1659
 8113TIP3    H245755   2.361   4.051  13.670  1.4401  0.0170 -0.4405
 8114TIP3   OH245756   1.923   5.462   4.947 -0.1290  0.0963 -0.0276
 8114TIP3    H145757   1.847   5.464   4.888 -1.4585 -2.2236  1.4429
 8114TIP3    H245758   1.986   5.406   4.903 -1.1311 -1.6580  0.6875
 8115TIP3   OH245759   4.718   5.763   2.390  0.3676 -0.7221  0.3143
 8115TIP3    H145760   4.669   5.681   2.395 -0.1158 -0.4450  0.1667
 8115TIP3    H245761   4.700   5.806   2.474  0.3458 -0.6110  0.2519
 8116TIP3   OH245762   6.450   1.985  13.869  0.1944  0.6064 -0.0089
 8116TIP3    H145763   6.391   1.999  13.942  0.3235 -1.2315  0.4867
 8116TIP3    H245764   6.512   2.058  13.874  1.2035 -0.3073  2.7509
 8117TIP3   OH245765   5.930   2.177  11.637 -0.3038 -0.0236 -0.4681
 8117TIP3    H145766   5.849   2.186  11.685  0.3861 -0.6809  0.8712
 8117TIP3    H245767   5.945   2.263  11.597  0.7172  1.6736  3.1575
 8118TIP3   OH245768   0.572   5.199   3.956 -0.1718  0.5993 -0.2411
 8118TIP3    H145769   0.558   5.254   4.033  1.2209 -1.1109  1.3471
 8118TIP3    H245770   0.650   5.236   3.915 -0.3732  0.9695 -0.2927
 8119TIP3   OH245771   2.816   4.255   3.406  0.1347 -0.5067  0.3735
 8119TIP3    H145772   2.843   4.188   3.343 -0.4807 -0.9254  0.5470
 8119TIP3    H245773   2.818   4.337   3.356 -1.7095 -1.0022 -0.6377
 8120TIP3   OH245774   1.808   0.186  14.600 -0.4452 -0.4280 -0.2308
 8120TIP3    H145775   1.835   0.222  14.685 -0.2524 -1.0448 -0.0257
 8120TIP3    H245776   1.739   0.245  14.570 -0.3430 -0.0591  0.2368
 8121TIP3   OH245777   2.585   2.403  11.458  0.2164  0.0539  0.1136
 8121TIP3    H145778   2.610   2.453  11.380  1.5683 -2.3576 -1.1343
 8121TIP3    H245779   2.491   2.386  11.447 -0.1638  1.8211  0.3407
 8122TIP3   OH245780   5.597   1.930   4.974 -0.2185  0.1254 -0.2076
 8122TIP3    H145781   5.674   1.962   5.021 -0.3555  2.5543 -1.4813
 8122TIP3    H245782   5.530   1.919   5.042  0.2376  1.3857  0.4822
 8123TIP3   OH245783   6.549   2.482   3.914 -0.2064 -0.2914  0.0808
 8123TIP3    H145784   6.537   2.559   3.859 -1.0221  1.2871  2.3126
 8123TIP3    H245785   6.627   2.502   3.966 -0.4143 -0.9894  0.6727
 8124TIP3   OH245786   4.486   6.209   4.438  0.8113  0.8375  0.2007
 8124TIP3    H145787   4.493   6.243   4.527 -1.2234 -2.1059  1.6337
 8124TIP3    H245788   4.392   6.208   4.420  1.1306  0.5306 -1.6533
 8125TIP3   OH245789   2.554   5.882   2.928 -0.6364  0.6054 -0.4322
 8125TIP3    H145790   2.631   5.939   2.928  0.9049 -1.3011  1.6072
 8125TIP3    H245791   2.526   5.880   2.837  1.8953  1.2093 -1.3114
 8126TIP3   OH245792   0.782   1.683  14.140 -0.7712  0.6286  0.0423
 8126TIP3    H145793   0.732   1.606  14.114 -1.3938  1.1822 -0.4440
 8126TIP3    H245794   0.866   1.673  14.096 -0.0426 -0.8133  1.6648
 8127TIP3   OH245795   2.326   5.860  14.076  0.2454 -0.1824 -0.5584
 8127TIP3    H145796   2.240   5.868  14.118 -1.0304 -1.7765 -2.6253
 8127TIP3    H245797   2.365   5.782  14.115  0.0191 -0.3964 -0.7549
 8128TIP3   OH245798   4.425   2.519  15.919  0.1628  0.0782 -0.3462
 8128TIP3    H145799   4.339   2.502  15.957  1.1194  0.3748  2.1168
 8128TIP3    H245800   4.407   2.574  15.843 -1.7753  0.4487  0.3265
 8129TIP3   OH245801   0.263   6.697   2.610 -0.4335  0.0905  0.1367
 8129TIP3    H145802   0.235   6.606   2.599 -0.1980  0.0158  0.1461
 8129TIP3    H245803   0.266   6.733   2.521 -2.0684  0.5611  0.2434
 8130TIP3   OH245804   3.817   6.256  14.719  0.0311  0.0750  0.0687
 8130TIP3    H145805   3.810   6.351  14.710  0.4888  0.0364 -0.7816
 8130TIP3    H245806   3.873   6.243  14.796 -1.2729  0.4576  1.1376
 8131TIP3   OH245807   0.208   4.631   2.080 -0.3540  0.3407  0.0836
 8131TIP3    H145808   0.127   4.648   2.032 -2.1243 -1.7305  2.0955
 8131TIP3    H245809   0.234   4.543   2.054 -0.3624 -0.1098  1.4720
 8132TIP3   OH245810   5.908   0.767  11.209 -0.1515  0.1358 -0.1459
 8132TIP3    H145811   5.956   0.830  11.264 -0.6386  1.5734 -1.3234
 8132TIP3    H245812   5.841   0.819  11.165  0.3962 -0.8908 -2.3404
 8133TIP3   OH245813   1.311   2.359  13.058  0.1575  0.1462 -0.1353
 8133TIP3    H145814   1.317   2.380  13.151 -1.7650 -0.3505  0.1491
 8133TIP3    H245815   1.243   2.291  13.053  0.9463 -0.5799 -1.7983
 8134TIP3   OH245816   5.882   1.982   5.776  0.0395  0.2369  0.1258
 8134TIP3    H145817   5.925   1.897   5.779 -1.5171 -0.7313 -2.2199
 8134TIP3    H245818   5.817   1.974   5.707  0.6332  3.7183 -1.0626
 8135TIP3   OH245819   5.185   2.433   5.104  0.2152  0.3614 -0.4906
 8135TIP3    H145820   5.098   2.471   5.098 -0.0590  0.1797  1.6328
 8135TIP3    H245821   5.172   2.341   5.082  0.2172  0.6751 -1.9102
 8136TIP3   OH245822   6.093   3.228  11.866  0.5099 -0.2418 -0.0147
 8136TIP3    H145823   6.037   3.240  11.942 -0.6421  0.2455 -0.9174
 8136TIP3    H245824   6.035   3.238  11.791  1.7444 -0.0705 -0.9801
 8137TIP3   OH245825   2.037   3.731   0.382  0.0695 -0.3015 -0.4109
 8137TIP3    H145826   2.049   3.637   0.366  0.5548 -0.2850 -0.1611
 8137TIP3    H245827   2.039   3.740   0.477 -2.6646 -0.3790 -0.2791
 8138TIP3   OH245828   4.825   1.745   5.179 -0.6202  0.8311  0.0647
 8138TIP3    H145829   4.789   1.743   5.268  0.3495  0.4691  0.4613
 8138TIP3    H245830   4.787   1.823   5.139  0.5557  2.2108  1.5094
 8139TIP3   OH245831   5.175   3.908  12.629  0.0225 -0.0957  0.4323
 8139TIP3    H145832   5.175   3.815  12.652 -1.4833 -0.1783  0.1606
 8139TIP3    H245833   5.133   3.951  12.703 -0.0613  0.2633  0.1791
 8140TIP3   OH245834   6.371   5.186   3.431 -0.9853 -0.2727  0.1521
 8140TIP3    H145835   6.299   5.188   3.493 -0.5703 -1.9016  0.7381
 8140TIP3    H245836   6.433   5.251   3.464 -0.8185 -1.0391  1.4151
 8141TIP3   OH245837   5.160   4.614  16.816 -0.0742  0.3541 -0.0738
 8141TIP3    H145838   5.125   4.703  16.816 -0.5406  0.1689 -0.1242
 8141TIP3    H245839   5.115   4.570  16.888  0.1806  0.1668 -0.0269
 8142TIP3   OH245840   2.640   1.360  11.940 -0.4774  0.1401  0.4568
 8142TIP3    H145841   2.608   1.276  11.972  0.7011 -0.6962 -0.4449
 8142TIP3    H245842   2.580   1.425  11.977 -1.2381 -1.0657  1.4092
 8143TIP3   OH245843   4.309   1.645   2.863  0.0449 -0.2299 -0.0806
 8143TIP3    H145844   4.388   1.685   2.826 -0.8452  0.2152 -1.5566
 8143TIP3    H245845   4.339   1.608   2.947  2.4003 -2.1649 -1.6329
 8144TIP3   OH245846   2.491   1.125  10.829  0.5018  0.3718 -0.1712
 8144TIP3    H145847   2.570   1.098  10.783 -0.6991  0.5021 -2.4772
 8144TIP3    H245848   2.427   1.139  10.759 -1.1625  1.5899  1.5140
 8145TIP3   OH245849   3.264   4.312   1.833 -0.2096 -0.2892 -0.4329
 8145TIP3    H145850   3.318   4.237   1.808 -0.0957 -0.5496  0.5457
 8145TIP3    H245851   3.177   4.274   1.849 -0.3430 -0.0865 -0.6713
 8146TIP3   OH245852   5.566   4.677  16.557  0.2105 -0.4047  0.5176
 8146TIP3    H145853   5.611   4.746  16.508  0.7604 -0.6839  0.6172
 8146TIP3    H245854   5.621   4.663  16.634 -0.3269 -0.3919  0.9106
 8147TIP3   OH245855   5.431   2.250  12.675  0.4471  0.0175 -0.2119
 8147TIP3    H145856   5.361   2.269  12.612 -0.8593 -0.3506  1.0837
 8147TIP3    H245857   5.390   2.259  12.761  1.2782 -2.8131  0.5842
 8148TIP3   OH245858   3.019   0.435   1.781 -0.3894  0.3152 -0.1419
 8148TIP3    H145859   2.953   0.485   1.733  0.1092  0.9700 -0.1702
 8148TIP3    H245860   3.072   0.502   1.825 -0.6282 -0.2665  1.0484
 8149TIP3   OH245861   0.512   4.489  15.494 -0.1775  0.2557  0.6022
 8149TIP3    H145862   0.524   4.452  15.582  0.0424 -0.6909  0.1877
 8149TIP3    H245863   0.417   4.496  15.484 -0.2355 -0.4278  0.6044
 8150TIP3   OH245864   3.524   3.060  13.560 -0.3669 -0.5433  0.7190
 8150TIP3    H145865   3.442   3.084  13.517  1.0710  1.0704 -1.3272
 8150TIP3    H245866   3.554   3.141  13.601 -0.1100 -1.2953  2.0962
 8151TIP3   OH245867   1.588   2.992   2.256 -0.2762  0.3023 -0.3509
 8151TIP3    H145868   1.605   2.920   2.196 -0.4558  0.8271 -1.0449
 8151TIP3    H245869   1.514   2.963   2.309 -1.5696  0.6995 -1.8755
 8152TIP3   OH245870   5.032   1.787   3.920  0.4321  0.7253 -0.4616
 8152TIP3    H145871   4.969   1.808   3.850 -0.6092  2.4079  0.8968
 8152TIP3    H245872   5.116   1.780   3.875 -0.3732  0.6649 -2.0384
 8153TIP3   OH245873   2.849   2.454  11.064  0.4719 -0.3974  0.4431
 8153TIP3    H145874   2.850   2.445  10.969 -1.2804  1.2041  0.2366
 8153TIP3    H245875   2.775   2.400  11.093 -0.1301  0.5569  0.7105
 8154TIP3   OH245876   1.449   2.910  16.498  0.2390 -0.2391 -0.1654
 8154TIP3    H145877   1.525   2.858  16.470 -0.2405 -1.7128  1.1524
 8154TIP3    H245878   1.487   2.988  16.538  1.2487 -2.0096  2.6213
 8155TIP3   OH245879   1.730   2.222  15.605  0.0731 -0.2674 -0.1270
 8155TIP3    H145880   1.780   2.222  15.523  1.3349  0.6267  0.5925
 8155TIP3    H245881   1.657   2.163  15.590  1.1274 -1.2900 -1.3879
 8156TIP3   OH245882   0.377   4.205   5.529  0.4210  0.2079  0.0067
 8156TIP3    H145883   0.410   4.259   5.457  0.9631  0.8265  0.7025
 8156TIP3    H245884   0.432   4.126   5.526 -0.9734 -0.7738 -1.5908
 8157TIP3   OH245885   6.570   0.780  12.180  0.1969  0.4361 -1.0474
 8157TIP3    H145886   6.549   0.775  12.273  0.0003 -1.2416 -1.1432
 8157TIP3    H245887   6.657   0.819  12.177  0.5872 -0.3078 -0.0889
 8158TIP3   OH245888   3.601   0.245  14.766 -0.5196  0.1546 -0.8234
 8158TIP3    H145889   3.646   0.186  14.826 -1.1658  2.2211  1.8674
 8158TIP3    H245890   3.669   0.271  14.703  0.9961  0.1024  0.7227
 8159TIP3   OH245891   3.100   1.029  17.235 -0.3871  0.4976 -0.3562
 8159TIP3    H145892   3.039   0.961  17.208 -0.0088  0.0140 -0.0194
 8159TIP3    H245893   3.146   1.054  17.155 -0.2080  0.0278 -0.4054
 8160TIP3   OH245894   6.192   3.701   1.341 -0.4367 -0.7823 -0.0178
 8160TIP3    H145895   6.121   3.648   1.377  0.3307 -1.6924  0.1937
 8160TIP3    H245896   6.222   3.755   1.415  0.2980 -1.7400  0.4207
 8161TIP3   OH245897   3.616   0.997   1.946 -0.4671 -0.7220  0.5787
 8161TIP3    H145898   3.591   0.937   2.016  0.4767 -2.2125 -0.3138
 8161TIP3    H245899   3.568   0.967   1.869 -0.5702  0.1627  0.2783
 8162TIP3   OH245900   1.762   3.123   5.143  0.3841 -0.2038 -0.3508
 8162TIP3    H145901   1.822   3.079   5.083  1.8313 -0.7769  1.4406
 8162TIP3    H245902   1.808   3.203   5.169 -0.4718  0.3291 -0.4188
 8163TIP3   OH245903   2.643   4.803   2.499 -0.4842 -0.0861  0.6517
 8163TIP3    H145904   2.642   4.898   2.511  0.5933 -0.0891  0.9323
 8163TIP3    H245905   2.733   4.778   2.519 -1.2025 -1.4134  2.4426
 8164TIP3   OH245906   4.375   3.360   3.927  0.2127 -0.2860 -0.2451
 8164TIP3    H145907   4.377   3.397   3.839 -0.0369  1.3399  0.3955
 8164TIP3    H245908   4.299   3.302   3.927  0.1440 -0.2070 -1.0459
 8165TIP3   OH245909   2.560   5.340  11.121 -0.5927 -0.4152  0.1135
 8165TIP3    H145910   2.532   5.365  11.209 -0.6741 -0.7514  0.1834
 8165TIP3    H245911   2.605   5.417  11.087 -0.6313 -0.2585  0.4202
 8166TIP3   OH245912   1.721   5.650   4.160 -0.0968 -0.3121  0.0608
 8166TIP3    H145913   1.679   5.568   4.184 -0.9300 -0.5289 -1.9549
 8166TIP3    H245914   1.749   5.637   4.069  4.3211 -0.1437  1.2011
 8167TIP3   OH245915   2.086   0.179  13.244 -0.3308  0.1523  0.5110
 8167TIP3    H145916   2.110   0.221  13.327 -1.5113 -0.6552  1.2908
 8167TIP3    H245917   1.991   0.182  13.242 -0.3252  2.0443 -1.8577
 8168TIP3   OH245918   5.007   5.211  13.847  0.1863  0.1328 -0.5385
 8168TIP3    H145919   4.933   5.259  13.884  1.1486  2.7242 -1.7493
 8168TIP3    H245920   4.968   5.156  13.778 -0.5015  3.2786 -2.8772
 8169TIP3   OH245921   6.089   1.815  11.143  0.3124 -0.2608  0.9117
 8169TIP3    H145922   6.127   1.736  11.181  1.1398  0.3698  1.4225
 8169TIP3    H245923   6.164   1.871  11.121 -0.2496  0.3280  0.4471
 8170TIP3   OH245924   1.912   5.564  11.326 -0.8646 -0.3308  0.3226
 8170TIP3    H145925   1.896   5.637  11.265  0.7219  0.2887  0.5824
 8170TIP3    H245926   1.913   5.605  11.412 -0.7222 -0.8001  0.5458
 8171TIP3   OH245927   5.693   0.060  15.794 -0.0349  0.5118 -0.0268
 8171TIP3    H145928   5.626  -0.003  15.820  0.4830 -0.3075 -0.6337
 8171TIP3    H245929   5.651   0.146  15.806 -1.0660  0.0242 -0.0518
 8172TIP3   OH245930   0.986   5.827   5.577  0.3384 -0.3224 -0.6700
 8172TIP3    H145931   1.076   5.816   5.545  0.5491 -0.8301  0.0590
 8172TIP3    H245932   0.933   5.773   5.519  0.0448  2.2347 -2.9680
 8173TIP3   OH245933   6.404   3.094   1.181 -0.0908 -0.7459 -0.2934
 8173TIP3    H145934   6.330   3.048   1.222 -1.6351  2.1792  0.5439
 8173TIP3    H245935   6.476   3.032   1.185 -2.1402 -3.2890  0.0759
 8174TIP3   OH245936   1.086   4.408  15.203  0.0371 -0.0128  0.1856
 8174TIP3    H145937   1.139   4.480  15.168  0.3006  0.2169  1.0427
 8174TIP3    H245938   1.146   4.360  15.260 -0.0952 -1.0165 -0.4916
 8175TIP3   OH245939   0.751   2.009   1.839 -0.6967 -0.0612  0.3006
 8175TIP3    H145940   0.744   2.049   1.753 -1.1660  0.7703  0.7143
 8175TIP3    H245941   0.811   2.066   1.887 -0.2040 -0.6842  0.4402
 8176TIP3   OH245942   3.956   2.954   4.537 -0.0076 -0.8348  0.3322
 8176TIP3    H145943   4.042   2.985   4.563 -1.0145  0.7515  1.9771
 8176TIP3    H245944   3.938   2.999   4.454  0.7139 -1.1470  0.0023
 8177TIP3   OH245945   2.636   0.125  16.866 -0.3727  0.1114  0.2014
 8177TIP3    H145946   2.681   0.055  16.913 -0.0415  0.8948  1.0761
 8177TIP3    H245947   2.647   0.102  16.773 -1.0845 -1.4730  0.4910
 8178TIP3   OH245948   2.073   0.020  15.994 -0.1382 -0.3653 -0.1161
 8178TIP3    H145949   2.060  -0.066  16.035 -1.8513 -0.5909 -0.9974
 8178TIP3    H245950   2.016   0.017  15.916 -2.7252  2.6399  1.4230
 8179TIP3   OH245951   2.052   6.126   6.019  0.1561 -0.6084  0.1308
 8179TIP3    H145952   2.076   6.158   6.106 -0.9886 -1.8990  0.9564
 8179TIP3    H245953   2.124   6.068   5.993  0.7875  0.2421 -0.0695
 8180TIP3   OH245954   1.961   2.008   2.098  0.0867 -0.1436  0.0978
 8180TIP3    H145955   1.911   1.931   2.070 -2.2934  1.5609 -0.6744
 8180TIP3    H245956   2.010   2.035   2.021 -1.8895  1.1184 -0.8019
 8181TIP3   OH245957   6.264   1.930  15.697 -0.0283 -0.2198 -0.1815
 8181TIP3    H145958   6.250   1.989  15.770 -0.8034  1.0783 -1.3357
 8181TIP3    H245959   6.360   1.919  15.693 -0.0246 -1.8276  2.1157
 8182TIP3   OH245960   5.797   1.286  12.867 -0.3694 -0.1489 -0.0282
 8182TIP3    H145961   5.777   1.380  12.858  0.2552  0.0573  0.6084
 8182TIP3    H245962   5.714   1.246  12.890 -0.1689  0.6800  2.4809
 8183TIP3   OH245963   1.653   0.313  12.328 -0.6482 -0.0230  0.1195
 8183TIP3    H145964   1.715   0.248  12.294 -0.5039 -0.1480  0.6095
 8183TIP3    H245965   1.591   0.327  12.256  0.2552  0.5114 -0.5893
 8184TIP3   OH245966   6.101   0.605  13.347 -0.1844 -0.5567  0.5877
 8184TIP3    H145967   6.041   0.619  13.419 -0.3934  1.0434  0.1501
 8184TIP3    H245968   6.091   0.683  13.292  2.2173 -0.2367  0.4681
 8185TIP3   OH245969   5.940   6.727  14.555  0.5915  0.1195 -0.1791
 8185TIP3    H145970   5.892   6.722  14.472  0.2679 -0.0201  0.0127
 8185TIP3    H245971   5.887   6.785  14.610 -0.4588 -1.6311  0.7419
 8186TIP3   OH245972   5.512   6.697  14.348  0.1581  0.1209 -0.4795
 8186TIP3    H145973   5.453   6.717  14.276  1.1268  1.7461 -0.8831
 8186TIP3    H245974   5.491   6.763  14.415  0.2353 -0.4753  0.1441
 8187TIP3   OH245975   5.799   6.571  15.403 -0.2177  0.2337  0.1273
 8187TIP3    H145976   5.787   6.641  15.339  1.0461 -2.1823 -3.0704
 8187TIP3    H245977   5.894   6.556  15.404 -0.3668 -0.7842  1.4625
 8188TIP3   OH245978   4.657   6.235  15.566  0.0477 -0.1229 -0.6869
 8188TIP3    H145979   4.578   6.188  15.591 -0.3122  0.5133 -0.6119
 8188TIP3    H245980   4.629   6.326  15.553  0.8403  0.2067 -0.2138
 8189TIP3   OH245981   3.908   3.003   2.351  0.0247 -0.1934  0.5790
 8189TIP3    H145982   3.945   3.036   2.269 -2.9519 -3.4539 -2.3724
 8189TIP3    H245983   3.820   3.040   2.355  0.0417 -0.2371  2.2885
 8190TIP3   OH245984   4.060   3.397  14.230  0.3105  0.1270  0.0335
 8190TIP3    H145985   4.138   3.351  14.262 -0.2155 -0.3035  0.7404
 8190TIP3    H245986   4.070   3.486  14.262  0.7159  0.1828 -0.2404
 8191TIP3   OH245987   3.206   1.083  16.791 -0.1310  0.0033  0.0283
 8191TIP3    H145988   3.264   1.044  16.856 -0.2245  0.2439  0.2553
 8191TIP3    H245989   3.215   1.026  16.714  0.4950  0.1054  0.0203
 8192TIP3   OH245990   4.974   5.593   4.904 -0.7737 -0.1638 -0.1993
 8192TIP3    H145991   5.070   5.596   4.902 -0.7141 -0.1113 -3.8806
 8192TIP3    H245992   4.953   5.503   4.929  0.3093 -0.6695 -1.0352
 8193TIP3   OH245993   2.373   1.085   4.696  0.1933 -0.8620 -0.4931
 8193TIP3    H145994   2.358   0.997   4.663  2.1821 -1.4426  0.0091
 8193TIP3    H245995   2.422   1.073   4.778  1.4617  0.7020 -0.9570
 8194TIP3   OH245996   6.348   4.748   5.067 -0.2292 -0.5021  0.3795
 8194TIP3    H145997   6.414   4.801   5.111  2.3276 -3.2027  0.1682
 8194TIP3    H245998   6.323   4.798   4.990  2.0663  0.4110  0.1551
 8195TIP3   OH245999   5.111   0.659  12.597  0.7522  0.0298  0.0375
 8195TIP3    H146000   5.130   0.602  12.522 -0.5929 -0.1629 -0.1699
 8195TIP3    H246001   5.104   0.747  12.560 -1.4823 -0.2630 -0.3640
 8196TIP3   OH246002   2.007   5.148  16.598 -0.1619 -0.1199  0.3275
 8196TIP3    H146003   1.958   5.101  16.666  1.3364 -1.2108  0.7112
 8196TIP3    H246004   2.045   5.223  16.643 -1.2499  0.5865  0.0863
 8197TIP3   OH246005   5.363   1.685   2.478  0.1598 -0.2977 -0.0303
 8197TIP3    H146006   5.307   1.687   2.555  0.0115  0.1305 -0.1441
 8197TIP3    H246007   5.304   1.698   2.404  0.5431  1.5939 -0.0605
 8198TIP3   OH246008   2.108   4.679  13.872 -0.3718 -0.0055 -0.0777
 8198TIP3    H146009   2.195   4.701  13.839 -0.2899  1.0197  0.7833
 8198TIP3    H246010   2.067   4.630  13.800  0.7402 -0.1099 -0.6668
 8199TIP3   OH246011   5.144   4.233   2.211  0.5643 -0.2935 -0.1828
 8199TIP3    H146012   5.130   4.199   2.299 -0.7026  2.4519  0.7889
 8199TIP3    H246013   5.097   4.172   2.154 -0.1905 -1.1005  1.2477
 8200TIP3   OH246014   5.005   2.283  17.067 -0.4721  0.8680  0.1428
 8200TIP3    H146015   4.945   2.316  17.000 -0.3008  0.6080 -0.1419
 8200TIP3    H246016   4.956   2.212  17.110  0.2575 -0.5322 -1.2587
 8201TIP3   OH246017   3.647   2.946  13.055 -0.3247  0.9386  0.1520
 8201TIP3    H146018   3.667   2.952  13.148  0.5116  0.3008  0.0249
 8201TIP3    H246019   3.717   2.995  13.012 -0.7341  1.2718 -0.1404
 8202TIP3   OH246020   4.103   6.155   1.389  0.1422  0.5227 -0.3669
 8202TIP3    H146021   4.035   6.208   1.346  0.5921  0.7184 -0.8626
 8202TIP3    H246022   4.129   6.092   1.322 -0.1658 -0.1237  0.1199
 8203TIP3   OH246023   6.256   4.578  15.655  0.7124 -0.0505 -0.9348
 8203TIP3    H146024   6.295   4.496  15.622 -0.1297 -1.1454  0.6497
 8203TIP3    H246025   6.221   4.620  15.577  0.7326 -1.4450 -1.7385
 8204TIP3   OH246026   4.693   5.245  13.515  0.2934  0.5212  0.2445
 8204TIP3    H146027   4.677   5.255  13.422  0.3070  1.9974  0.3693
 8204TIP3    H246028   4.607   5.226  13.553  0.7330 -3.3790 -0.3763
 8205TIP3   OH246029   1.875   1.816   5.610 -0.0065 -0.0139  0.7053
 8205TIP3    H146030   1.846   1.742   5.665 -1.1679 -0.9273 -1.0457
 8205TIP3    H246031   1.845   1.894   5.657 -0.3689 -0.7263  1.6904
 8206TIP3   OH246032   4.703   3.435  17.172 -0.2883  0.2358 -0.4593
 8206TIP3    H146033   4.727   3.398  17.087  0.1690  0.1781 -0.3091
 8206TIP3    H246034   4.608   3.446  17.167 -0.2285  0.5353 -1.0988
 8207TIP3   OH246035   6.043   3.138  17.197  0.3160  0.0157  0.0367
 8207TIP3    H146036   5.991   3.058  17.194 -1.5305  1.1022  0.9339
 8207TIP3    H246037   6.026   3.174  17.284  0.0415  2.0164 -0.7751
 8208TIP3   OH246038   2.200   0.910   5.985  0.1900  0.0880  0.5709
 8208TIP3    H146039   2.282   0.938   5.945 -0.2227  2.2778  1.0966
 8208TIP3    H246040   2.226   0.850   6.054  1.3484  0.5238  0.5398
 8209TIP3   OH246041   6.135   6.094  16.810  0.0181 -0.0276 -0.1738
 8209TIP3    H146042   6.079   6.171  16.796 -0.9104 -0.2972  1.7383
 8209TIP3    H246043   6.221   6.130  16.829 -0.4685  0.5735  0.9733
 8210TIP3   OH246044   2.530   0.620  13.086 -0.2538  0.0589  0.0148
 8210TIP3    H146045   2.456   0.559  13.080  0.2516 -0.5131 -0.6302
 8210TIP3    H246046   2.492   0.700  13.122 -1.3525  0.0547 -1.0703
 8211TIP3   OH246047   2.379   3.705  15.222  0.0068 -0.1898  0.1107
 8211TIP3    H146048   2.326   3.625  15.220 -0.6572  0.2470 -0.5174
 8211TIP3    H246049   2.469   3.675  15.210 -0.4727 -0.6832 -3.1030
 8212TIP3   OH246050   5.719   2.508   5.417  0.3120 -0.2085 -0.2708
 8212TIP3    H146051   5.805   2.525   5.379  0.2077 -1.7834 -1.3092
 8212TIP3    H246052   5.731   2.430   5.471 -0.0018  0.8618  1.4282
 8213TIP3   OH246053   1.611   1.964   5.673 -0.1292  0.0815  0.1400
 8213TIP3    H146054   1.526   2.008   5.672  0.1040  0.5637  0.6265
 8213TIP3    H246055   1.625   1.941   5.765 -0.1696 -0.8732 -0.0862
 8214TIP3   OH246056   3.907   0.981   4.639  0.2033 -0.0096  0.8442
 8214TIP3    H146057   3.918   0.919   4.567  1.6072  0.1906  0.8565
 8214TIP3    H246058   3.855   1.052   4.601  2.9016  1.2706 -0.7825
 8215TIP3   OH246059   5.652   0.438   4.606 -0.2811 -0.2955  0.5267
 8215TIP3    H146060   5.574   0.406   4.651 -1.0473  1.4659  0.5261
 8215TIP3    H246061   5.674   0.520   4.650 -0.5365  1.0504 -1.6705
 8216TIP3   OH246062   2.116   4.718   4.645 -0.1471 -0.0081  0.0432
 8216TIP3    H146063   2.096   4.707   4.552  1.0393 -1.2595 -0.0879
 8216TIP3    H246064   2.055   4.661   4.690 -0.1953 -0.0055 -0.0192
 8217TIP3   OH246065   3.628   6.015  11.423  0.3751 -0.1378 -0.1547
 8217TIP3    H146066   3.591   5.932  11.393  3.0153 -1.4712 -0.0122
 8217TIP3    H246067   3.555   6.060  11.465 -1.2604 -2.1854 -0.6361
 8218TIP3   OH246068   4.595   0.678  17.236  0.1487 -0.0686 -0.2265
 8218TIP3    H146069   4.527   0.623  17.273  0.0978 -0.2375 -0.5642
 8218TIP3    H246070   4.647   0.619  17.181 -0.7948  0.4785 -1.7885
 8219TIP3   OH246071   5.225   1.153   5.033  0.6880  0.0888 -0.9110
 8219TIP3    H146072   5.169   1.086   4.995  0.9443  0.4319 -1.9309
 8219TIP3    H246073   5.176   1.234   5.022  1.4176  0.4118 -1.9338
 8220TIP3   OH246074   5.758   6.650   4.206  0.5700 -0.1206  0.4194
 8220TIP3    H146075   5.689   6.710   4.179  1.4967  1.2212  0.9420
 8220TIP3    H246076   5.783   6.678   4.294  2.7206  0.3616 -0.2649
 8221TIP3   OH246077   0.321   0.134   5.350 -0.3905  0.4758  0.0385
 8221TIP3    H146078   0.305   0.114   5.443 -1.6266 -0.0007 -0.2661
 8221TIP3    H246079   0.416   0.124   5.340 -0.3986 -0.8420  0.9462
 8222TIP3   OH246080   4.134   1.485  13.491 -0.1344 -0.2326  0.0202
 8222TIP3    H146081   4.208   1.499  13.550  0.9904  0.2654 -1.4626
 8222TIP3    H246082   4.110   1.393  13.505  1.4619 -0.7159 -0.2254
 8223TIP3   OH246083   4.321   4.148  17.264  0.1069 -0.0756  0.5433
 8223TIP3    H146084   4.401   4.096  17.270 -0.5107 -0.9471  1.6849
 8223TIP3    H246085   4.263   4.096  17.207  0.6935  1.0634 -1.1699
 8224TIP3   OH246086   2.029   2.674  14.757 -0.2141 -0.0962  0.1478
 8224TIP3    H146087   1.991   2.644  14.840 -1.8584 -2.0893 -1.2391
 8224TIP3    H246088   1.958   2.720  14.713  0.0315 -0.7828 -0.9958
 8225TIP3   OH246089   1.920   1.857  11.432  0.0804 -0.0225 -0.0564
 8225TIP3    H146090   1.923   1.946  11.467 -0.3880 -0.1067  0.2067
 8225TIP3    H246091   2.012   1.833  11.419  0.2402  0.1993  0.6420
 8226TIP3   OH246092   2.268   2.473  12.972  0.3052  0.0687 -0.1723
 8226TIP3    H146093   2.350   2.521  12.985  0.0137  1.2604 -2.3135
 8226TIP3    H246094   2.203   2.523  13.022  0.5200  0.2744 -0.0935
 8227TIP3   OH246095   0.772   3.250   2.480 -0.4725  0.0974  0.1679
 8227TIP3    H146096   0.714   3.280   2.410  0.1733 -1.2705 -1.0123
 8227TIP3    H246097   0.813   3.330   2.514 -2.6291  1.0316  0.6882
 8228TIP3   OH246098   2.378   0.819  12.772 -0.4385 -0.0055  0.3641
 8228TIP3    H146099   2.432   0.889  12.808 -0.6506 -0.2647  1.2238
 8228TIP3    H246100   2.302   0.816  12.830 -0.7637 -0.4865 -0.0766
 8229TIP3   OH246101   0.891   2.763  15.128 -0.4750 -0.2274 -0.5448
 8229TIP3    H146102   0.811   2.727  15.168 -0.4402  0.7794  0.4721
 8229TIP3    H246103   0.871   2.766  15.034 -1.5765 -0.1512 -0.3241
 8230TIP3   OH246104   0.430   0.578  16.905  0.0329 -0.1908  0.2545
 8230TIP3    H146105   0.474   0.652  16.865 -1.9649  1.1254  0.3607
 8230TIP3    H246106   0.447   0.587  16.999  1.5412 -1.1281  0.1159
 8231TIP3   OH246107   6.415   6.067  11.422  0.6090 -0.3735  0.1568
 8231TIP3    H146108   6.380   6.096  11.506 -1.9406  0.6244 -1.1518
 8231TIP3    H246109   6.371   5.983  11.406  0.7539 -0.3426 -0.4039
 8232TIP3   OH246110   3.062   1.108   1.121 -0.2944 -0.1868  0.1339
 8232TIP3    H146111   3.047   1.017   1.096  0.1730 -0.5136  1.0322
 8232TIP3    H246112   2.997   1.157   1.070 -0.0005 -0.9231 -1.0015
 8233TIP3   OH246113   1.700   3.791   2.683 -0.1330 -0.6483 -0.5318
 8233TIP3    H146114   1.773   3.793   2.746  0.7736 -1.0339 -1.5437
 8233TIP3    H246115   1.631   3.842   2.725 -0.4933 -2.9169  1.9082
 8234TIP3   OH246116   1.232   6.292  16.802 -0.2707 -0.8197  0.0003
 8234TIP3    H146117   1.321   6.325  16.792 -0.0580 -1.2485  0.3891
 8234TIP3    H246118   1.191   6.352  16.864 -0.4480 -0.2666 -0.6499
 8235TIP3   OH246119   6.342   0.298   1.698 -0.6198  0.2195 -0.7768
 8235TIP3    H146120   6.349   0.354   1.621 -0.4843  2.2902  0.6412
 8235TIP3    H246121   6.248   0.284   1.710 -0.6657  0.3049 -1.0332
 8236TIP3   OH246122   2.873   1.041   3.642 -0.3611  0.1739  0.1373
 8236TIP3    H146123   2.947   1.019   3.697 -0.5837  0.5446  0.5928
 8236TIP3    H246124   2.824   0.959   3.633 -0.3207  0.1101  0.4858
 8237TIP3   OH246125   4.930   5.116   1.235  0.4072  0.4579  0.4734
 8237TIP3    H146126   4.881   5.158   1.306  0.3300  1.0199  0.0975
 8237TIP3    H246127   4.943   5.186   1.171 -0.5771 -0.3431 -0.6243
 8238TIP3   OH246128   6.697   5.279   0.866 -0.0074 -0.4797 -0.3918
 8238TIP3    H146129   6.775   5.308   0.820  0.1965  0.6865  0.6466
 8238TIP3    H246130   6.625   5.303   0.809  0.3943 -2.2476 -1.7127
 8239TIP3   OH246131   6.736   0.662   1.747  0.5903 -0.2595 -0.3778
 8239TIP3    H146132   6.821   0.694   1.718  0.5607  0.6734  0.5092
 8239TIP3    H246133   6.711   0.721   1.818  0.5358 -2.2653  1.3716
 8240TIP3   OH246134   0.659   6.079  14.937  0.3405 -0.3165 -0.5019
 8240TIP3    H146135   0.742   6.087  14.984  0.6966 -2.3350 -0.7215
 8240TIP3    H246136   0.670   6.134  14.859  0.2612  1.9274  0.9645
 8241TIP3   OH246137   4.952   3.838   0.855 -0.4556 -0.2499 -0.1264
 8241TIP3    H146138   5.041   3.857   0.826 -0.1926  1.0751  1.4016
 8241TIP3    H246139   4.951   3.744   0.873  0.6687 -0.2481 -0.0274
 8242TIP3   OH246140   5.110   3.240  13.141 -0.0101 -0.3887  0.2683
 8242TIP3    H146141   5.140   3.292  13.066  0.1384  1.1833  1.3685
 8242TIP3    H246142   5.034   3.193  13.109 -0.9627  1.5301 -0.4495
 8243TIP3   OH246143   3.229   0.709   0.057 -0.3301  0.0334  0.0559
 8243TIP3    H146144   3.202   0.662  -0.022  0.8722 -2.5460  1.0810
 8243TIP3    H246145   3.279   0.645   0.107  0.9534  2.2972  1.8394
 8244TIP3   OH246146   2.223   5.542  15.470  0.1850  0.1119  0.3688
 8244TIP3    H146147   2.141   5.494  15.481  0.4889 -0.4480  0.2554
 8244TIP3    H246148   2.223   5.567  15.378  0.6609 -0.8925  0.0752
 8245TIP3   OH246149   5.362   6.060   0.730 -0.0792  0.1037  0.5278
 8245TIP3    H146150   5.327   6.028   0.647  0.3108  1.0352 -0.0108
 8245TIP3    H246151   5.456   6.065   0.716 -0.1408  1.6637  0.5142
 8246TIP3   OH246152   3.367   0.450  14.819 -0.3025 -0.7467  0.0551
 8246TIP3    H146153   3.328   0.404  14.893 -0.2407 -0.3856  0.3178
 8246TIP3    H246154   3.458   0.419  14.816  0.7056  1.6156  2.1944
 8247TIP3   OH246155   1.648   0.628  12.599 -0.3491 -0.0257 -0.1871
 8247TIP3    H146156   1.617   0.622  12.508  0.8121  2.2078 -0.8135
 8247TIP3    H246157   1.743   0.626  12.592 -0.2461  0.3453  0.9544
 8248TIP3   OH246158   0.793   4.201   3.890  0.0916  0.4158  0.1538
 8248TIP3    H146159   0.778   4.110   3.918 -0.8921  0.4972 -0.0430
 8248TIP3    H246160   0.758   4.254   3.962 -0.3249  0.6257 -0.1976
 8249TIP3   OH246161   1.738   0.959  14.379  0.2520 -0.3501  0.0725
 8249TIP3    H146162   1.751   1.053  14.387  0.4654 -0.3697 -0.0206
 8249TIP3    H246163   1.643   0.946  14.387  0.0928 -0.0038 -1.1274
 8250TIP3   OH246164   6.305   5.864   2.470 -0.3616  0.0997 -0.0516
 8250TIP3    H146165   6.378   5.842   2.412  0.2582  1.3273  0.2091
 8250TIP3    H246166   6.347   5.905   2.546 -1.3940  3.6593 -1.1944
 8251TIP3   OH246167   4.907   3.578  13.591  0.3624 -0.0911  0.3016
 8251TIP3    H146168   4.945   3.658  13.627 -0.2836  0.5789 -0.4563
 8251TIP3    H246169   4.890   3.523  13.667  1.5681  0.1366  0.7705
 8252TIP3   OH246170   5.827   1.184  17.231  0.1058  0.1605  0.0308
 8252TIP3    H146171   5.863   1.134  17.304  0.5593 -0.0815 -0.3518
 8252TIP3    H246172   5.886   1.259  17.222  1.3405 -0.9132 -1.4334
 8253TIP3   OH246173   6.090   0.087   3.657 -0.1807  0.5840 -1.0687
 8253TIP3    H146174   6.009   0.039   3.642  0.7321 -1.1065 -0.8021
 8253TIP3    H246175   6.154   0.020   3.682  1.0354  1.9959 -0.2149
 8254TIP3   OH246176   1.842   1.087   3.341  0.4578 -0.5949 -0.1283
 8254TIP3    H146177   1.835   1.130   3.255  0.5136  0.4251  0.3651
 8254TIP3    H246178   1.868   1.157   3.401  0.8192 -1.3819  0.6567
 8255TIP3   OH246179   5.628   6.269  12.289 -0.4924 -0.9976  0.0766
 8255TIP3    H146180   5.631   6.254  12.194  0.8651  0.2816 -0.1199
 8255TIP3    H246181   5.535   6.280  12.308 -0.6643  2.9459 -1.9039
 8256TIP3   OH246182   1.926   0.425  12.234 -0.4531  0.7732  0.4205
 8256TIP3    H146183   1.869   0.406  12.160  0.0054  1.5939 -0.1641
 8256TIP3    H246184   1.901   0.513  12.262 -2.0613 -0.3029  2.6110
 8257TIP3   OH246185   1.171   0.218   4.027  0.3389 -0.3136  0.3464
 8257TIP3    H146186   1.215   0.239   4.109  0.3686 -2.3205  0.9034
 8257TIP3    H246187   1.234   0.162   3.980 -0.5130 -0.9537 -0.0581
 8258TIP3   OH246188   6.696   4.633   0.702  0.6418 -0.3382  0.2807
 8258TIP3    H146189   6.630   4.597   0.761  0.4199  0.5603  0.6066
 8258TIP3    H246190   6.764   4.667   0.760  0.2733  0.8393  0.0543
 8259TIP3   OH246191   3.945   5.679  11.421  0.0488 -1.1301 -0.3087
 8259TIP3    H146192   4.034   5.658  11.451 -0.1158  0.6230  1.6003
 8259TIP3    H246193   3.888   5.651  11.493 -0.7215 -0.0203 -0.4650
 8260TIP3   OH246194   4.640   3.408  13.791 -0.1127  0.1182 -0.5510
 8260TIP3    H146195   4.615   3.406  13.883 -3.1491  0.6900 -1.2705
 8260TIP3    H246196   4.688   3.326  13.777 -0.9075 -0.6841  1.1947
 8261TIP3   OH246197   6.287   0.654  15.947 -0.4759  0.0390  0.0928
 8261TIP3    H146198   6.273   0.702  15.865  0.2874  0.5327  0.2459
 8261TIP3    H246199   6.241   0.570  15.933 -0.3130  0.0943 -0.8606
 8262TIP3   OH246200   0.505   3.611   2.236  0.4169 -0.0894  0.2171
 8262TIP3    H146201   0.565   3.608   2.311  0.3653  3.9003  0.6351
 8262TIP3    H246202   0.418   3.614   2.276  0.0004 -2.9229 -0.2962
 8263TIP3   OH246203   4.836   2.632   6.642 -0.8421  0.9853  0.8628
 8263TIP3    H146204   4.744   2.610   6.627 -0.8061  1.3849 -0.0037
 8263TIP3    H246205   4.836   2.727   6.652 -0.6676  0.8741  2.0524
 8264TIP3   OH246206   3.758   6.354   4.770 -0.5253 -0.4308  1.1429
 8264TIP3    H146207   3.786   6.377   4.859  0.9201 -1.8020  1.0866
 8264TIP3    H246208   3.769   6.435   4.720 -0.4673  0.1133  2.0040
 8265TIP3   OH246209   2.289   4.779  15.773 -0.0544 -0.0676 -0.1658
 8265TIP3    H146210   2.259   4.815  15.857  0.3035 -1.9471  0.8179
 8265TIP3    H246211   2.361   4.720  15.796 -1.0519 -1.9563 -1.5870
 8266TIP3   OH246212   5.891   5.264   2.157  0.2679  0.0958  0.7786
 8266TIP3    H146213   5.816   5.205   2.161  1.5394 -1.5154  3.3403
 8266TIP3    H246214   5.895   5.304   2.244  2.2616  0.2642  0.6690
 8267TIP3   OH246215   0.433   2.498   5.988  0.5767  0.0400 -0.1652
 8267TIP3    H146216   0.422   2.590   6.013  0.2998  0.1374 -0.6266
 8267TIP3    H246217   0.520   2.475   6.021  1.0348  0.7427 -0.8369
 8268TIP3   OH246218   3.489   0.558  16.812 -0.7929 -0.4417  0.1080
 8268TIP3    H146219   3.421   0.568  16.879 -0.3241 -3.0024  1.0637
 8268TIP3    H246220   3.569   0.587  16.855 -0.5707 -1.6392  0.5260
 8269TIP3   OH246221   6.238   6.500   0.839 -0.2475 -0.5061  1.0652
 8269TIP3    H146222   6.240   6.424   0.781  0.2697 -1.5194  2.3711
 8269TIP3    H246223   6.156   6.490   0.888 -1.3231  1.0255 -0.3218
 8270TIP3   OH246224   5.839   0.059  15.254  0.2536 -0.1852  0.4389
 8270TIP3    H146225   5.778   0.131  15.270  1.3634  0.8609  0.1002
 8270TIP3    H246226   5.911   0.074  15.314  1.3364  0.0352 -0.8594
 8271TIP3   OH246227   4.846   6.363  15.066 -0.1317 -0.1537 -0.7470
 8271TIP3    H146228   4.885   6.311  15.137  0.9749  0.4525 -0.8790
 8271TIP3    H246229   4.874   6.318  14.986  0.2890  0.2703 -0.8429
 8272TIP3   OH246230   2.905   4.957   4.522  0.5112  0.4031 -0.0466
 8272TIP3    H146231   2.879   5.049   4.531 -2.3000 -0.2118 -0.9391
 8272TIP3    H246232   2.917   4.945   4.428  1.1133 -0.1119  0.0906
 8273TIP3   OH246233   4.010   6.226  17.384  0.4882  0.7072  0.3588
 8273TIP3    H146234   3.963   6.299  17.344 -1.1760 -1.5949 -2.2871
 8273TIP3    H246235   3.951   6.196  17.453 -0.5068 -0.1700 -0.8217
 8274TIP3   OH246236   4.935   3.940  15.807  0.2332 -0.1814  0.6325
 8274TIP3    H146237   4.920   3.904  15.895 -2.5598 -1.6745 -0.3532
 8274TIP3    H246238   4.930   3.864  15.749 -1.5012  1.1738 -1.1172
 8275TIP3   OH246239   0.017   3.282   6.675 -0.1928  0.4021  0.2876
 8275TIP3    H146240  -0.067   3.326   6.658 -0.5117  0.2892  1.4656
 8275TIP3    H246241   0.050   3.259   6.589 -1.7224 -0.1728 -0.1834
 8276TIP3   OH246242   5.147   3.173   4.637 -0.2893  0.3229 -0.0642
 8276TIP3    H146243   5.072   3.195   4.581  0.0528 -0.3873 -0.8271
 8276TIP3    H246244   5.223   3.207   4.589  0.0477 -0.6725 -0.2540
 8277TIP3   OH246245   4.750   1.618   4.154  0.0422  0.1761  0.0063
 8277TIP3    H146246   4.741   1.702   4.199 -1.0612  0.7238 -1.1864
 8277TIP3    H246247   4.843   1.612   4.133  0.2038  0.8921  0.4933
 8278TIP3   OH246248   5.181   5.562   2.357 -0.4054 -0.3070  0.0486
 8278TIP3    H146249   5.221   5.638   2.400  0.3709  0.3827 -1.7670
 8278TIP3    H246250   5.099   5.596   2.321  0.5566  0.1149 -1.9142
 8279TIP3   OH246251   2.148   4.697   3.810  0.1910 -0.2608  0.2301
 8279TIP3    H146252   2.184   4.755   3.877  1.2599 -2.3082  1.5188
 8279TIP3    H246253   2.222   4.676   3.753  0.6939 -2.9321  1.7398
 8280TIP3   OH246254   5.474   0.416  11.176 -0.0487 -0.7413  0.0092
 8280TIP3    H146255   5.401   0.412  11.113 -0.7173 -2.1465  0.8019
 8280TIP3    H246256   5.440   0.469  11.248 -0.2207 -1.1729  0.2566
 8281TIP3   OH246257   2.464   1.981   3.790  0.1306  0.4312  0.0460
 8281TIP3    H146258   2.509   2.061   3.763 -1.6753  0.9788 -1.5299
 8281TIP3    H246259   2.491   1.915   3.727  0.6637  0.0828  0.6212
 8282TIP3   OH246260   4.130   4.215   1.826 -0.6044  0.1558 -0.4940
 8282TIP3    H146261   4.152   4.304   1.851 -0.6885 -0.0272  0.2601
 8282TIP3    H246262   4.162   4.206   1.736 -0.8241  1.0182 -0.6644
 8283TIP3   OH246263   5.071   3.758   3.694 -0.0008  0.0476  0.2637
 8283TIP3    H146264   5.116   3.674   3.695  2.2474  1.1349 -0.8951
 8283TIP3    H246265   5.012   3.753   3.619  0.0108 -0.5417  0.2914
 8284TIP3   OH246266   1.098   3.982  12.518 -0.3515  0.1890 -0.1630
 8284TIP3    H146267   1.120   4.034  12.595 -0.0253 -0.9922  0.5484
 8284TIP3    H246268   1.006   4.002  12.501 -0.2823  0.8431  0.2104
 8285TIP3   OH246269   1.916   5.411  12.912  0.1802  0.3436  0.2973
 8285TIP3    H146270   1.860   5.392  12.987  1.1566  0.9796  1.2238
 8285TIP3    H246271   2.003   5.428  12.950  0.8941 -0.1191 -1.0470
 8286TIP3   OH246272   2.717   2.474  16.810  0.3019  0.8577 -0.0243
 8286TIP3    H146273   2.642   2.433  16.853 -0.5649  1.7039 -0.6795
 8286TIP3    H246274   2.767   2.401  16.774 -0.2977  0.2864  0.2846
 8287TIP3   OH246275   1.107   3.977  11.600  0.3456 -0.2103 -0.6841
 8287TIP3    H146276   1.137   4.047  11.657 -1.3258  1.2018 -1.4553
 8287TIP3    H246277   1.174   3.973  11.531  1.5134 -0.8157  0.4426
 8288TIP3   OH246278   5.705   6.286  12.838  0.5201 -0.3248 -0.7009
 8288TIP3    H146279   5.782   6.335  12.866 -0.3852  1.4580 -1.1525
 8288TIP3    H246280   5.642   6.354  12.811 -0.6509 -1.7666 -1.7700
 8289TIP3   OH246281   4.328   4.296   1.158  0.2927  0.2290 -0.2780
 8289TIP3    H146282   4.288   4.287   1.244  0.5645  1.7008  0.0293
 8289TIP3    H246283   4.413   4.336   1.175  0.0995  1.1071 -1.2608
 8290TIP3   OH246284   6.486   4.520   4.550 -0.5877  0.0988 -0.4564
 8290TIP3    H146285   6.437   4.574   4.612 -2.8367 -2.6262  0.3591
 8290TIP3    H246286   6.573   4.560   4.547 -1.6874  2.9011  1.0436
 8291TIP3   OH246287   6.409   6.722  15.916 -0.0615 -0.8217  0.3110
 8291TIP3    H146288   6.420   6.640  15.964  0.7750 -0.5583  0.5809
 8291TIP3    H246289   6.459   6.787  15.965 -1.6773  0.1432  0.7679
 8292TIP3   OH246290   5.801   4.877   4.923  0.8799  0.4020  0.3523
 8292TIP3    H146291   5.760   4.807   4.873  0.4469  0.7451  0.2260
 8292TIP3    H246292   5.737   4.948   4.924  0.8885  0.4175  1.3633
 8293TIP3   OH246293   6.587   2.720   0.719 -0.1259 -0.0632  0.2666
 8293TIP3    H146294   6.528   2.695   0.648 -1.6458 -0.1750  1.5018
 8293TIP3    H246295   6.615   2.808   0.697 -0.7505 -0.0089 -0.3713
 8294TIP3   OH246296   3.882   1.412   3.324 -0.3598 -0.4259  0.2059
 8294TIP3    H146297   3.966   1.432   3.364  0.2205 -1.7323 -0.2788
 8294TIP3    H246298   3.817   1.458   3.377  0.6228  0.1944  0.8853
 8295TIP3   OH246299   6.647   5.660  16.390 -0.2762 -0.4582 -0.0706
 8295TIP3    H146300   6.671   5.753  16.390  1.2283 -0.8113 -0.8262
 8295TIP3    H246301   6.661   5.632  16.481  3.8639 -0.9465 -0.6373
 8296TIP3   OH246302   1.811   0.119   6.050  0.5310 -0.3187  0.0247
 8296TIP3    H146303   1.867   0.180   6.098  0.1347  0.0824 -0.0171
 8296TIP3    H246304   1.766   0.173   5.985 -1.2592 -0.3092  1.2140
 8297TIP3   OH246305   6.533   1.109  14.518  0.0604  0.1999 -0.4741
 8297TIP3    H146306   6.589   1.113  14.440  1.1308 -1.0160  0.1922
 8297TIP3    H246307   6.469   1.041  14.498  1.1112 -1.0163  0.1512
 8298TIP3   OH246308   6.426   2.095   1.464 -0.3020  0.1402  0.3054
 8298TIP3    H146309   6.443   2.094   1.558 -1.1912  0.1033  0.4725
 8298TIP3    H246310   6.497   2.147   1.427  0.5716 -0.6103  0.8863
 8299TIP3   OH246311   2.084   4.654  11.621  0.1151  0.4333  0.3085
 8299TIP3    H146312   2.143   4.589  11.582  1.4190  0.3260  2.3214
 8299TIP3    H246313   2.142   4.720  11.657 -0.9793  0.4262  2.2016
 8300TIP3   OH246314   0.287   3.987  14.293 -0.5392 -0.1244  0.5793
 8300TIP3    H146315   0.309   4.036  14.214  1.1846 -0.1852  0.9645
 8300TIP3    H246316   0.317   4.044  14.365 -2.7837  0.2860  1.2561
 8301TIP3   OH246317   4.540   1.302  15.858 -0.2349 -0.9422  0.5297
 8301TIP3    H146318   4.561   1.369  15.923 -1.9895 -0.6576  0.8446
 8301TIP3    H246319   4.618   1.298  15.803  0.5458  0.1802  1.4935
 8302TIP3   OH246320   1.290   0.838   3.296  0.5998  0.2440  0.0092
 8302TIP3    H146321   1.300   0.758   3.245  1.6797  0.7487 -0.6013
 8302TIP3    H246322   1.196   0.845   3.311  0.6045 -2.0644  1.6358
 8303TIP3   OH246323   1.389   6.295   4.735  0.5045 -0.3319 -0.1408
 8303TIP3    H146324   1.378   6.246   4.816 -2.5641 -0.2510 -0.3905
 8303TIP3    H246325   1.435   6.235   4.677 -0.7472 -1.9312  0.4342
 8304TIP3   OH246326   4.431   0.920   1.474  0.4669 -0.4906 -0.1332
 8304TIP3    H146327   4.487   0.869   1.533  1.7823  0.1114 -0.8309
 8304TIP3    H246328   4.389   0.985   1.531  2.3072  0.5843  0.0775
 8305TIP3   OH246329   6.444   1.760  12.384  0.0501 -0.5369 -0.2127
 8305TIP3    H146330   6.417   1.669  12.389  1.0443 -0.9341 -1.3905
 8305TIP3    H246331   6.411   1.791  12.300 -1.3511  0.5983  0.7009
 8306TIP3   OH246332   1.435   4.546   6.079  0.0997 -0.0380  0.1289
 8306TIP3    H146333   1.514   4.600   6.086 -0.4390  0.9090 -0.8318
 8306TIP3    H246334   1.424   4.532   5.985 -0.6615 -0.4971  0.2783
 8307TIP3   OH246335   1.639   5.307   1.291  0.2985  0.4937  0.2681
 8307TIP3    H146336   1.717   5.312   1.346 -0.1890 -1.2281  1.1936
 8307TIP3    H246337   1.674   5.295   1.202  1.1299 -1.1131  0.7656
 8308TIP3   OH246338   0.224   6.417   2.575 -0.2273 -0.0341 -0.1468
 8308TIP3    H146339   0.278   6.338   2.572 -0.0898  0.0327  0.3347
 8308TIP3    H246340   0.143   6.394   2.530  0.3485 -0.0172 -1.2273
 8309TIP3   OH246341   4.821   3.087  15.684  0.0405  0.0862  0.1562
 8309TIP3    H146342   4.733   3.055  15.667  1.5222 -3.0310 -3.1782
 8309TIP3    H246343   4.824   3.173  15.642 -1.5491  0.5375  0.9165
 8310TIP3   OH246344   1.726   2.764   2.532 -0.0977 -0.3078 -0.5857
 8310TIP3    H146345   1.808   2.719   2.553  0.9633  1.9135  0.3788
 8310TIP3    H246346   1.754   2.851   2.502 -2.0959  0.3629 -0.6132
 8311TIP3   OH246347   3.358   0.843  14.196  0.2933 -0.1712  0.0050
 8311TIP3    H146348   3.387   0.929  14.165  1.7819 -0.4688  0.5079
 8311TIP3    H246349   3.263   0.846  14.188  0.3654  1.2644 -0.6540
 8312TIP3   OH246350   1.083   0.469  15.587  0.1884  0.7646  0.5058
 8312TIP3    H146351   1.161   0.525  15.581  0.1942  0.7456  0.3897
 8312TIP3    H246352   1.119   0.381  15.603  0.2429  0.6057 -0.4027
 8313TIP3   OH246353   3.761   0.370   1.313 -0.7009 -0.1839  0.3926
 8313TIP3    H146354   3.744   0.369   1.407 -2.3129  0.8934  0.1675
 8313TIP3    H246355   3.769   0.278   1.289 -0.9289 -0.5077  1.4862
 8314TIP3   OH246356   3.580   1.749   3.147 -0.8338 -0.3591 -0.3667
 8314TIP3    H146357   3.661   1.748   3.198 -0.2127 -2.1997 -1.2652
 8314TIP3    H246358   3.531   1.674   3.180 -1.4127 -0.2422 -0.9529
 8315TIP3   OH246359   1.987   6.036   1.682 -0.1838 -0.0372  0.0055
 8315TIP3    H146360   2.062   6.095   1.679  0.3042 -0.6771 -0.7377
 8315TIP3    H246361   2.019   5.955   1.643 -1.1842 -0.4155 -0.0503
 8316TIP3   OH246362   4.350   3.445  11.482  0.1698  0.0694 -0.1408
 8316TIP3    H146363   4.290   3.450  11.557  1.3896  0.8095  0.8235
 8316TIP3    H246364   4.431   3.410  11.519  1.7202  2.9945 -0.4465
 8317TIP3   OH246365   1.318   3.609  13.262  0.3438  0.0966 -0.3080
 8317TIP3    H146366   1.392   3.631  13.319  0.1791  1.2207 -0.5130
 8317TIP3    H246367   1.283   3.693  13.233 -0.4830 -0.4324 -0.9154
 8318TIP3   OH246368   4.650   5.039   1.041 -0.8236  0.2386 -0.3424
 8318TIP3    H146369   4.598   4.997   1.110 -2.6023 -0.9129 -2.2668
 8318TIP3    H246370   4.724   4.980   1.028 -0.9800 -0.0298 -0.0399
 8319TIP3   OH246371   0.262   0.197   4.835 -0.7397 -0.3120  0.1356
 8319TIP3    H146372   0.202   0.255   4.883 -0.8090  0.7006 -1.1325
 8319TIP3    H246373   0.292   0.249   4.761  0.6538 -1.2828 -0.0216
 8320TIP3   OH246374   2.929   6.611  14.293 -0.3040 -0.1397  0.0017
 8320TIP3    H146375   2.907   6.535  14.239 -2.4991  1.9547 -2.3483
 8320TIP3    H246376   2.844   6.641  14.325  0.7881 -0.3061  3.4303
 8321TIP3   OH246377   1.263   0.311   1.406 -1.7699  0.0655  0.3701
 8321TIP3    H146378   1.260   0.222   1.370 -1.9166 -0.1321  0.8649
 8321TIP3    H246379   1.296   0.301   1.495  1.6619  0.8775 -0.6647
 8322TIP3   OH246380   0.737   6.593   3.635 -0.1955 -0.1458  0.1861
 8322TIP3    H146381   0.802   6.616   3.701  1.6087 -0.9453 -1.2177
 8322TIP3    H246382   0.679   6.669   3.630  0.4702  0.4961  1.6573
 8323TIP3   OH246383   0.181   5.802   6.103  1.2237  0.4553 -0.0547
 8323TIP3    H146384   0.231   5.728   6.138 -0.2185  0.2068  1.6629
 8323TIP3    H246385   0.128   5.831   6.177 -1.4410  0.4469 -1.8170
 8324TIP3   OH246386   5.694   1.882  16.400  0.1446 -0.1035 -0.5079
 8324TIP3    H146387   5.599   1.880  16.395  0.1006  1.7837 -1.1822
 8324TIP3    H246388   5.724   1.848  16.316 -0.0469  2.3650 -1.6590
 8325TIP3   OH246389   2.338   5.913  12.263 -0.1348  0.2573  0.3737
 8325TIP3    H146390   2.248   5.918  12.297 -0.0292  0.8558  0.5728
 8325TIP3    H246391   2.391   5.957  12.329  0.4384 -0.8810  0.6974
 8326TIP3   OH246392   1.583   0.198  12.575  0.1091 -0.0700  0.0176
 8326TIP3    H146393   1.628   0.219  12.493 -0.4820  0.6627 -0.1310
 8326TIP3    H246394   1.515   0.136  12.550  0.4355 -0.4605  0.0895
 8327TIP3   OH246395   3.411   3.147   3.435 -0.2516  0.0600  0.4212
 8327TIP3    H146396   3.347   3.077   3.443  0.0372 -0.0958  1.5767
 8327TIP3    H246397   3.378   3.203   3.365 -0.8478 -0.8457 -0.0324
 8328TIP3   OH246398   1.249   5.062   1.584  0.1669  0.2656 -0.3045
 8328TIP3    H146399   1.330   5.019   1.612 -0.0534  0.5699  0.8784
 8328TIP3    H246400   1.219   5.012   1.509  1.8619  0.6279 -1.2701
 8329TIP3   OH246401   5.396   1.861  13.895  0.1739  0.0023  0.4786
 8329TIP3    H146402   5.416   1.785  13.949 -0.1577 -0.7688 -0.4562
 8329TIP3    H246403   5.460   1.927  13.922  0.4290 -0.5851  1.3392
 8330TIP3   OH246404   2.818   3.300   4.211 -0.1630 -0.0112  0.1446
 8330TIP3    H146405   2.792   3.229   4.152 -0.0252  0.9007 -1.0462
 8330TIP3    H246406   2.736   3.328   4.253 -0.6795  0.9070 -1.4092
 8331TIP3   OH246407   0.628   2.551   0.400 -0.8379  0.1510  0.1146
 8331TIP3    H146408   0.669   2.547   0.313 -0.7248  2.1152  0.0420
 8331TIP3    H246409   0.685   2.608   0.451 -1.5387 -0.0315  1.1290
 8332TIP3   OH246410   3.924   5.796  13.513  0.1253  0.6039 -0.0791
 8332TIP3    H146411   3.996   5.859  13.524  0.1845  0.2455  2.1206
 8332TIP3    H246412   3.963   5.723  13.465  0.0595  2.1545 -2.6774
 8333TIP3   OH246413   4.766   6.331   5.080 -0.1912 -0.2230  0.1077
 8333TIP3    H146414   4.778   6.378   5.163  1.4650  0.3864 -0.4309
 8333TIP3    H246415   4.796   6.393   5.014  1.5579 -1.8318 -0.6835
 8334TIP3   OH246416   0.155   0.868  15.377  0.7695  0.0443 -0.7616
 8334TIP3    H146417   0.207   0.851  15.298  0.7358 -1.1114 -0.5573
 8334TIP3    H246418   0.087   0.929  15.348  1.2648  0.2975 -1.4229
 8335TIP3   OH246419   5.162   5.025  17.367 -0.7437 -0.5573  0.2757
 8335TIP3    H146420   5.137   5.075  17.289  0.4409  1.0619  0.8672
 8335TIP3    H246421   5.131   5.078  17.440 -0.4155 -1.2514  0.9310
 8336TIP3   OH246422   0.957   4.105   1.126  0.0598 -0.4541  0.5831
 8336TIP3    H146423   0.885   4.140   1.074  0.7520 -1.3892 -1.1209
 8336TIP3    H246424   0.925   4.020   1.157  0.5645 -1.1126 -0.6216
 8337TIP3   OH246425   5.833   2.329   5.583  0.3789 -0.8038  0.7088
 8337TIP3    H146426   5.828   2.304   5.675  0.6509 -3.1089  0.1484
 8337TIP3    H246427   5.914   2.289   5.551  1.5780  1.9687 -0.0261
 8338TIP3   OH246428   2.769   0.700  14.788  0.0173 -0.7390 -0.2727
 8338TIP3    H146429   2.793   0.774  14.844  2.6076 -0.0573 -2.0773
 8338TIP3    H246430   2.844   0.641  14.792 -0.0189 -1.0053 -2.3707
 8339TIP3   OH246431   1.565   4.227  15.539  0.3281 -0.0858 -0.0364
 8339TIP3    H146432   1.622   4.291  15.582  1.1404 -1.7574  1.5344
 8339TIP3    H246433   1.593   4.226  15.448  0.9539  1.0728  0.1311
 8340TIP3   OH246434   5.139   3.710   4.269  0.7599 -0.9551  0.2451
 8340TIP3    H146435   5.205   3.735   4.335  0.0976 -0.6551  0.8088
 8340TIP3    H246436   5.188   3.659   4.205  1.4238 -1.2822  0.9887
 8341TIP3   OH246437   0.889   0.763  14.910 -0.0791  0.2096  0.2293
 8341TIP3    H146438   0.944   0.712  14.969  0.6502  0.8123  0.0905
 8341TIP3    H246439   0.859   0.836  14.963 -1.1450 -0.3654  0.4363
 8342TIP3   OH246440   0.332   2.660   4.588 -0.1861 -0.0300  0.6069
 8342TIP3    H146441   0.284   2.578   4.582 -1.1193  0.4370  1.4481
 8342TIP3    H246442   0.264   2.727   4.599  0.6493  0.6222  2.0370
 8343TIP3   OH246443   5.696   4.308   4.062 -0.5537  0.0331 -0.6867
 8343TIP3    H146444   5.730   4.394   4.037 -0.6181  0.0563 -0.6948
 8343TIP3    H246445   5.771   4.249   4.052 -0.0137  0.3761  1.0180
 8344TIP3   OH246446   2.735   0.648   2.929  0.0037 -0.3410  0.3598
 8344TIP3    H146447   2.827   0.644   2.953  0.4234  0.8320 -0.9917
 8344TIP3    H246448   2.716   0.562   2.891  1.8863  0.8907 -3.8805
 8345TIP3   OH246449   3.300   1.779   1.237 -0.1108  0.1971 -0.1490
 8345TIP3    H146450   3.328   1.724   1.309 -2.2178 -2.6476 -1.3086
 8345TIP3    H246451   3.348   1.746   1.161  1.0688  2.2526 -0.3767
 8346TIP3   OH246452   4.523   6.123   0.967 -0.2074 -0.0214 -0.2641
 8346TIP3    H146453   4.548   6.143   0.877 -1.1748 -1.1838 -0.8342
 8346TIP3    H246454   4.427   6.130   0.967 -0.3108 -1.1027  0.3576
 8347TIP3   OH246455   5.712   5.829   0.077  0.3153  0.1928  0.6467
 8347TIP3    H146456   5.779   5.895   0.096  1.2166 -0.4993 -0.0638
 8347TIP3    H246457   5.685   5.797   0.163  2.5184 -1.0947  0.9289
 8348TIP3   OH246458   4.965   1.250   0.990 -0.0984 -0.2438  0.2005
 8348TIP3    H146459   4.983   1.206   1.073  0.3870  0.2533  0.3626
 8348TIP3    H246460   4.982   1.184   0.923 -0.5064 -0.6529  0.4936
 8349TIP3   OH246461   5.537   2.355   3.927  0.0381 -0.0296  0.2090
 8349TIP3    H146462   5.629   2.358   3.902  0.7871 -1.5424  2.4939
 8349TIP3    H246463   5.492   2.319   3.851  1.6965 -1.5116 -0.1164
 8350TIP3   OH246464   6.266   1.692   0.976 -0.2015 -0.5146 -0.3554
 8350TIP3    H146465   6.245   1.605   1.010  0.2391 -0.1110  1.0175
 8350TIP3    H246466   6.359   1.702   0.994 -0.2906  0.3180 -0.3533
 8351TIP3   OH246467   5.754   5.636  10.286 -0.1514 -0.6357 -0.4161
 8351TIP3    H146468   5.775   5.559  10.338  0.1282 -1.9020 -2.2807
 8351TIP3    H246469   5.668   5.616  10.248  0.5539 -0.7291 -2.0681
 8352TIP3   OH246470   3.726   6.466   0.590 -0.3653  0.0403 -0.7813
 8352TIP3    H146471   3.682   6.387   0.559 -0.4924  0.6341 -2.2338
 8352TIP3    H246472   3.756   6.509   0.509 -0.2647  1.4496 -0.0206
 8353TIP3   OH246473   4.005   0.037  11.373  0.0237  0.2903 -0.1877
 8353TIP3    H146474   3.976  -0.052  11.354  1.8407 -0.2304 -0.8061
 8353TIP3    H246475   4.077   0.026  11.436  1.0367  1.1994 -1.1334
 8354TIP3   OH246476   2.972   6.275   1.170 -0.2047 -0.1425 -0.5981
 8354TIP3    H146477   2.968   6.269   1.075  5.0743 -2.3357 -1.0278
 8354TIP3    H246478   2.988   6.368   1.188 -0.8865  0.2408 -1.8656
 8355TIP3   OH246479   0.444   1.108  11.994 -0.6651  0.4472 -0.9802
 8355TIP3    H146480   0.355   1.122  11.963 -1.2226 -0.4011  0.1599
 8355TIP3    H246481   0.498   1.162  11.936 -1.7313 -0.3416 -2.8162
 8356TIP3   OH246482   2.653   0.577   5.393  0.0895  0.1467 -0.0901
 8356TIP3    H146483   2.744   0.585   5.365  0.7852  1.7892  2.2712
 8356TIP3    H246484   2.612   0.658   5.363 -0.0990  0.2543  0.4496
 8357TIP3   OH246485   3.413   0.218  17.170  0.2067  0.1311  0.3181
 8357TIP3    H146486   3.449   0.307  17.177  0.9533 -0.2463  1.6039
 8357TIP3    H246487   3.350   0.212  17.241 -1.2148  0.2144 -0.8934
 8358TIP3   OH246488   3.056   5.283   5.129  0.1313 -0.7816  0.3410
 8358TIP3    H146489   3.025   5.362   5.174  1.8419 -0.5172  1.1194
 8358TIP3    H246490   3.144   5.269   5.163  0.2080 -2.5140 -0.4828
 8359TIP3   OH246491   6.524   0.137  13.793  0.5254  0.0342 -0.2460
 8359TIP3    H146492   6.568   0.187  13.725  0.8699  2.2362  1.4623
 8359TIP3    H246493   6.446   0.101  13.751  0.9981  0.8671 -1.9063
 8360TIP3   OH246494   5.322   3.079   1.613 -0.2353 -0.2374  0.4586
 8360TIP3    H146495   5.324   2.986   1.636  0.8171  0.1397  2.1200
 8360TIP3    H246496   5.415   3.105   1.609 -0.5205  0.9246  0.9138
 8361TIP3   OH246497   1.270   1.190  12.145 -0.7604 -0.6374  0.3850
 8361TIP3    H146498   1.239   1.100  12.160 -3.6213  0.4007  1.4780
 8361TIP3    H246499   1.203   1.228  12.087 -0.1186  1.0507  0.7016
 8362TIP3   OH246500   3.672   6.113   5.008 -0.0289 -0.0708  0.8178
 8362TIP3    H146501   3.662   6.068   5.092  0.4216  0.9106  1.4111
 8362TIP3    H246502   3.745   6.173   5.021 -0.7007  0.9341  0.1014
 8363TIP3   OH246503   0.029   5.946  11.431 -0.3428 -0.0927 -0.0438
 8363TIP3    H146504   0.008   5.920  11.342  1.1653  1.3158 -0.8660
 8363TIP3    H246505   0.024   6.042  11.430  2.7262  0.1943  0.4799
 8364TIP3   OH246506   5.315   1.583   6.325 -0.2820 -0.6102  0.2683
 8364TIP3    H146507   5.271   1.559   6.243 -1.6220  0.4654  0.6480
 8364TIP3    H246508   5.355   1.668   6.306 -1.3350  0.0657  0.9581
 8365TIP3   OH246509   5.094   2.539   4.759  0.1636  0.2334  0.1551
 8365TIP3    H146510   5.051   2.504   4.682 -0.4190 -1.6354  1.2603
 8365TIP3    H246511   5.074   2.633   4.758 -0.8423  0.0326 -1.2968
 8366TIP3   OH246512   6.740   3.824   2.574  0.0654  0.3854 -0.7987
 8366TIP3    H146513   6.753   3.919   2.583 -0.1711  0.4415 -1.0120
 8366TIP3    H246514   6.771   3.788   2.656  2.4881  0.3935 -1.6363
 8367TIP3   OH246515   5.227   2.079   3.882 -0.6996 -0.0666 -0.2473
 8367TIP3    H146516   5.132   2.069   3.875 -0.9524  2.0386 -0.5848
 8367TIP3    H246517   5.244   2.165   3.843  1.3293 -0.3399 -0.0314
 8368TIP3   OH246518   4.775   5.358  15.466 -0.1096  0.0331 -0.4040
 8368TIP3    H146519   4.727   5.441  15.472 -0.6350 -0.3491  1.0589
 8368TIP3    H246520   4.732   5.311  15.395  0.2412  1.0205 -1.3056
 8369TIP3   OH246521   0.420   6.414   3.933 -0.0986  0.1754 -0.5810
 8369TIP3    H146522   0.502   6.371   3.911 -0.5069 -0.0038 -1.8252
 8369TIP3    H246523   0.382   6.439   3.848 -1.0131  0.8397  0.0005
 8370TIP3   OH246524   0.059   6.301   3.151  0.3474 -0.3107  0.5029
 8370TIP3    H146525   0.033   6.287   3.060 -0.4669  0.7713  0.5387
 8370TIP3    H246526   0.143   6.345   3.146  0.6142 -0.8391  0.2940
 8371TIP3   OH246527   2.330   2.988  12.407 -0.1770  0.1133 -0.4954
 8371TIP3    H146528   2.325   3.016  12.316  1.0164 -1.2264 -0.9998
 8371TIP3    H246529   2.418   2.950  12.416  0.4873  1.9468  1.7238
 8372TIP3   OH246530   5.259   3.328  12.348  0.4822 -0.5201  0.3625
 8372TIP3    H146531   5.201   3.401  12.369  1.3261 -0.4252  2.6705
 8372TIP3    H246532   5.290   3.347  12.259  0.8010  2.0641  0.9424
 8373TIP3   OH246533   4.031   1.211  10.984 -0.3778 -0.4390  0.3446
 8373TIP3    H146534   4.011   1.297  11.022  0.1185 -0.3725  0.4632
 8373TIP3    H246535   3.964   1.197  10.918 -0.1763  0.2598 -0.0130
 8374TIP3   OH246536   5.439   4.948  15.516  0.1688 -0.0571  0.1511
 8374TIP3    H146537   5.486   4.894  15.580 -2.3775 -0.7431  1.6001
 8374TIP3    H246538   5.503   4.964  15.446  2.3020 -1.4030  1.6721
 8375TIP3   OH246539   3.425   3.315   5.769 -0.0546  0.2845  0.2959
 8375TIP3    H146540   3.390   3.391   5.722 -1.4907  1.1300  2.5519
 8375TIP3    H246541   3.513   3.340   5.796 -0.3830  1.0204  0.6999
 8376TIP3   OH246542   4.276   5.498   5.784  0.5036  0.0687  0.2141
 8376TIP3    H146543   4.222   5.425   5.753  0.3194  0.6298 -0.8425
 8376TIP3    H246544   4.240   5.521   5.869  1.1593 -1.6687  1.0119
 8377TIP3   OH246545   5.407   3.842   3.937 -0.1221  0.1554  0.1098
 8377TIP3    H146546   5.400   3.750   3.910 -1.3012  0.5557 -0.9889
 8377TIP3    H246547   5.498   3.865   3.916 -0.0481 -0.5237 -0.3681
 8378TIP3   OH246548   6.669   4.875  15.745 -0.3752  0.0450 -0.1593
 8378TIP3    H146549   6.751   4.828  15.728 -0.4421  0.4447 -1.7409
 8378TIP3    H246550   6.604   4.806  15.760  0.0573 -0.2881  0.2384
 8379TIP3   OH246551   4.026   0.907  13.738 -1.0356 -0.2625  0.2421
 8379TIP3    H146552   4.109   0.894  13.693 -1.0804 -1.2654  0.4272
 8379TIP3    H246553   3.975   0.961  13.679 -0.3080  0.2433  0.0634
 8380TIP3   OH246554   2.555   1.852  13.353 -0.6463 -0.0385 -0.1902
 8380TIP3    H146555   2.535   1.934  13.308 -0.3160 -0.8383 -1.8756
 8380TIP3    H246556   2.637   1.823  13.312 -1.8035 -2.2095 -1.1125
 8381TIP3   OH246557   5.027   0.065  13.115 -0.5195 -0.5235 -0.1243
 8381TIP3    H146558   5.118   0.063  13.086 -0.7032 -2.6586 -0.7552
 8381TIP3    H246559   4.976   0.086  13.037 -0.6294 -0.1582  0.0421
 8382TIP3   OH246560   3.595   0.813   4.061  0.9468  0.0388  0.2261
 8382TIP3    H146561   3.530   0.865   4.014 -0.2370 -0.1022  1.6145
 8382TIP3    H246562   3.612   0.863   4.141  1.8753 -0.3750  0.2985
 8383TIP3   OH246563   1.479   3.869  14.282  0.8343 -0.0536  0.3299
 8383TIP3    H146564   1.464   3.927  14.207 -0.4322 -1.4637 -0.5681
 8383TIP3    H246565   1.479   3.927  14.358  1.8884  1.3861 -0.7099
 8384TIP3   OH246566   3.274   4.548  16.038 -0.5494  0.0251 -0.0953
 8384TIP3    H146567   3.261   4.457  16.012 -0.1527  0.2002 -0.9719
 8384TIP3    H246568   3.364   4.568  16.012 -0.7073  0.7328 -0.1422
 8385TIP3   OH246569   0.696   4.938  12.434  0.4883  0.1761  0.9088
 8385TIP3    H146570   0.649   4.862  12.401  0.9582  0.1195  0.3485
 8385TIP3    H246571   0.716   4.917  12.525 -1.7697  0.7780  1.5961
 8386TIP3   OH246572   0.340   1.792   2.969  0.0899 -0.1791  0.0971
 8386TIP3    H146573   0.276   1.733   3.007  0.3962  0.2348  1.2837
 8386TIP3    H246574   0.292   1.874   2.954 -0.0771 -0.3968 -0.6109
 8387TIP3   OH246575   3.146   1.909  12.874  0.3001  0.0179  0.1383
 8387TIP3    H146576   3.122   1.989  12.921  0.1662  0.7207 -1.0798
 8387TIP3    H246577   3.064   1.858  12.870  0.4118 -0.2443  1.0092
 8388TIP3   OH246578   6.633   4.286  14.571  0.4390 -0.2446  0.2524
 8388TIP3    H146579   6.645   4.230  14.495 -1.3825  0.2379 -0.4517
 8388TIP3    H246580   6.708   4.346  14.569  0.5013 -0.3340 -1.0824
 8389TIP3   OH246581   3.048   3.654  13.705  0.0619  0.0674  0.3068
 8389TIP3    H146582   3.118   3.715  13.731  0.5655  0.6259 -2.1021
 8389TIP3    H246583   2.969   3.708  13.704 -0.0278 -0.0426  0.9496
 8390TIP3   OH246584   1.156   0.899  13.692  0.8164  0.2199  0.3357
 8390TIP3    H146585   1.116   0.959  13.755  1.0694  0.9137 -0.1545
 8390TIP3    H246586   1.245   0.886  13.724  0.5718 -0.4006  0.7856
 8391TIP3   OH246587   2.179   1.350   3.233 -0.2934  0.1015  0.4928
 8391TIP3    H146588   2.195   1.330   3.141  0.5944  1.3045  0.3607
 8391TIP3    H246589   2.120   1.425   3.232 -2.6194 -1.6242  0.9618
 8392TIP3   OH246590   2.297   5.612   1.397  0.7478 -0.6541 -0.0481
 8392TIP3    H146591   2.306   5.518   1.415 -0.4214 -0.4858  1.6797
 8392TIP3    H246592   2.231   5.642   1.460 -1.8821  0.5978 -3.1374
 8393TIP3   OH246593   3.393   5.785  11.645  0.1796 -0.5558  0.3255
 8393TIP3    H146594   3.478   5.792  11.602  1.7905 -1.8319  3.0395
 8393TIP3    H246595   3.376   5.873  11.678  0.1265 -0.1639 -0.6961
 8394TIP3   OH246596   6.648   4.857  16.560 -0.1556  0.3006 -0.3399
 8394TIP3    H146597   6.647   4.951  16.579  1.9376  0.9574 -2.9734
 8394TIP3    H246598   6.628   4.851  16.467  0.8313 -1.7781 -0.4641
 8395TIP3   OH246599   0.945   3.848   1.735 -0.2605 -0.2708  0.0241
 8395TIP3    H146600   0.975   3.937   1.716 -1.2297  0.1045  0.2018
 8395TIP3    H246601   0.891   3.824   1.660 -0.0391 -0.6964 -0.0036
 8396TIP3   OH246602   4.139   3.211   3.851  0.1835  0.3994 -0.3491
 8396TIP3    H146603   4.073   3.273   3.821 -2.2270 -1.4440  0.8439
 8396TIP3    H246604   4.143   3.145   3.782  0.5561  0.3159 -0.2518
 8397TIP3   OH246605   2.872   6.262   5.161  0.3638 -0.2554 -0.1503
 8397TIP3    H146606   2.932   6.319   5.209 -0.8060  1.8680 -1.1003
 8397TIP3    H246607   2.808   6.321   5.122 -1.0107 -2.2485 -1.0854
 8398TIP3   OH246608   2.872   3.773   2.513  0.3702 -0.0417 -0.4299
 8398TIP3    H146609   2.885   3.731   2.598  1.9752  0.7740 -0.2425
 8398TIP3    H246610   2.942   3.838   2.507  0.7889 -0.6118 -2.7211
 8399TIP3   OH246611   2.159   4.008   1.890  0.3207  0.2356  0.2223
 8399TIP3    H146612   2.079   4.033   1.844  0.0906  1.1998  1.1054
 8399TIP3    H246613   2.132   3.936   1.947  0.6620 -1.1344 -1.2693
 8400TIP3   OH246614   5.168   2.828  16.373  0.3539  0.0612 -0.3652
 8400TIP3    H146615   5.220   2.774  16.314  0.8284  0.7624 -0.6133
 8400TIP3    H246616   5.121   2.888  16.314 -1.3279 -1.0299 -0.2050
 8401TIP3   OH246617   2.585   4.301   4.258  0.4042  0.3550  0.2826
 8401TIP3    H146618   2.639   4.222   4.264 -0.3290 -0.1480  0.4539
 8401TIP3    H246619   2.496   4.270   4.276  0.2354  1.3837  1.3099
 8402TIP3   OH246620   0.989   1.011  15.683 -0.6758 -0.0464 -0.3043
 8402TIP3    H146621   1.050   1.085  15.673  0.4245 -1.1065 -2.0978
 8402TIP3    H246622   0.913   1.036  15.631 -0.9036  0.3853  0.2219
 8403TIP3   OH246623   2.882   1.565  12.367 -0.4055  0.2839  0.2208
 8403TIP3    H146624   2.902   1.653  12.336 -0.4766 -0.2245 -1.3605
 8403TIP3    H246625   2.929   1.558  12.450  2.5286  0.6195 -1.2782
 8404TIP3   OH246626   2.653   6.597  14.652 -0.1925  0.1187 -0.8449
 8404TIP3    H146627   2.678   6.683  14.686  2.0396 -0.3533 -1.1557
 8404TIP3    H246628   2.576   6.615  14.597 -1.8630  1.3665  1.6849
 8405TIP3   OH246629   4.734   6.629   6.102  0.4461 -0.1542 -0.4192
 8405TIP3    H146630   4.716   6.723   6.103  0.3101 -0.1812 -0.1912
 8405TIP3    H246631   4.807   6.618   6.162 -0.2741 -0.3335  0.4578
 8406TIP3   OH246632   0.360   1.298  12.368  0.1721 -0.0981  0.1891
 8406TIP3    H146633   0.358   1.318  12.462  2.8604  2.2112 -0.1158
 8406TIP3    H246634   0.422   1.226  12.360 -0.3819 -0.5869  0.1708
 8407TIP3   OH246635   0.920   1.297  10.744 -0.4107  0.1258 -0.0688
 8407TIP3    H146636   0.847   1.354  10.718 -0.8742  0.1938  1.2641
 8407TIP3    H246637   0.962   1.344  10.816  0.8057 -0.0408 -0.6467
 8408TIP3   OH246638   4.119   3.215  12.944 -0.0484  0.0045 -0.3315
 8408TIP3    H146639   4.190   3.174  12.894  0.1134 -0.0297 -0.0817
 8408TIP3    H246640   4.161   3.240  13.027  0.3290  2.3336 -1.1496
 8409TIP3   OH246641   6.625   1.157   4.124 -0.0221  0.2094  0.0903
 8409TIP3    H146642   6.549   1.124   4.075  1.4751 -3.1404 -0.2229
 8409TIP3    H246643   6.700   1.117   4.081  1.7975  1.6674  1.7527
 8410TIP3   OH246644   4.843   5.894   0.382  0.0469 -0.0485  0.0640
 8410TIP3    H146645   4.874   5.913   0.471  0.4905  0.8630 -0.2833
 8410TIP3    H246646   4.860   5.973   0.332  2.1237 -1.3688 -1.4812
 8411TIP3   OH246647   1.432   2.513  16.499  0.0243 -0.2563 -0.0763
 8411TIP3    H146648   1.517   2.511  16.543 -0.0821  0.5182  0.1819
 8411TIP3    H246649   1.452   2.496  16.407  0.1518 -2.8838  0.3477
 8412TIP3   OH246650   4.369   5.965   3.078 -0.0314 -0.1105 -0.0842
 8412TIP3    H146651   4.316   5.891   3.045 -0.9032  0.3711  0.2044
 8412TIP3    H246652   4.364   5.957   3.173  2.4854 -1.4981  0.0166
 8413TIP3   OH246653   1.574   3.635   1.940  0.0672 -0.1837 -0.6892
 8413TIP3    H146654   1.639   3.665   1.875 -0.9770  0.5352 -1.4441
 8413TIP3    H246655   1.599   3.679   2.021 -0.9742  2.2863 -1.5915
 8414TIP3   OH246656   3.791   0.786  16.775 -0.2302  0.0187  0.1175
 8414TIP3    H146657   3.733   0.767  16.701 -1.7994  3.6265  0.2087
 8414TIP3    H246658   3.827   0.872  16.756  1.4911 -0.1342  2.3028
 8415TIP3   OH246659   5.059   0.977   1.902  0.3942 -0.4919  0.1850
 8415TIP3    H146660   5.078   0.984   1.995  0.1377  1.5007  0.1442
 8415TIP3    H246661   5.009   1.057   1.882 -0.1735 -1.2182 -1.5089
 8416TIP3   OH246662   0.623   1.853   5.790 -1.2271 -0.0762  0.1878
 8416TIP3    H146663   0.614   1.941   5.828  1.4338  0.8116 -0.9445
 8416TIP3    H246664   0.537   1.834   5.752 -1.5499  2.6660 -0.7209
 8417TIP3   OH246665   0.419   1.493  13.026  1.3165  0.3018 -0.0838
 8417TIP3    H146666   0.390   1.462  12.940  1.3512  1.0117 -0.3537
 8417TIP3    H246667   0.514   1.486  13.024  1.3922  1.2728 -0.4863
 8418TIP3   OH246668   5.087   6.568  12.853  0.4067 -0.3216  0.0915
 8418TIP3    H146669   5.152   6.553  12.922  0.2221 -0.1960  0.2936
 8418TIP3    H246670   5.015   6.509  12.875  0.3769 -0.3304 -0.0331
 8419TIP3   OH246671   6.008   3.949  15.842  0.0315  0.2172  0.9473
 8419TIP3    H146672   6.011   4.021  15.905  2.9869  0.4437  0.6857
 8419TIP3    H246673   5.948   3.980  15.774 -2.2531  0.4788  2.9487
 8420TIP3   OH246674   1.584   4.388   5.254  0.0841 -0.1851  0.2308
 8420TIP3    H146675   1.610   4.301   5.285 -1.6108 -0.7303  0.2818
 8420TIP3    H246676   1.604   4.387   5.160 -0.3556 -0.8266  0.1346
 8421TIP3   OH246677   6.139   6.243  11.484  0.0653 -0.3350  0.8126
 8421TIP3    H146678   6.231   6.269  11.487 -0.2490  1.2618 -1.3708
 8421TIP3    H246679   6.091   6.325  11.487 -1.2002 -0.9983 -0.2938
 8422TIP3   OH246680   2.445   0.107   4.621  0.4828 -1.0150 -0.7467
 8422TIP3    H146681   2.509   0.177   4.611  0.4301 -1.0643 -1.4253
 8422TIP3    H246682   2.485   0.047   4.685  0.1214  0.0963  0.5717
 8423TIP3   OH246683   0.147   6.740  14.080 -0.3183 -0.0605  0.5915
 8423TIP3    H146684   0.106   6.812  14.127 -0.2294  0.5160 -0.1900
 8423TIP3    H246685   0.210   6.783  14.021 -0.2109 -0.7797  0.1699
 8424TIP3   OH246686   3.200   4.421   2.985 -0.1884  0.6116 -0.0369
 8424TIP3    H146687   3.226   4.340   2.942 -0.9632 -0.7673  1.9323
 8424TIP3    H246688   3.174   4.479   2.914  0.1137 -0.9777 -1.4966
 8425TIP3   OH246689   1.891   4.115   0.749 -0.8194  0.1325  0.2694
 8425TIP3    H146690   1.871   4.071   0.831  0.7956 -1.7755 -0.2792
 8425TIP3    H246691   1.986   4.127   0.750 -0.9032  1.1481 -0.8180
 8426TIP3   OH246692   1.257   0.862   1.376 -0.0700 -0.4106 -0.3478
 8426TIP3    H146693   1.349   0.877   1.353 -0.1500 -0.5191 -0.7584
 8426TIP3    H246694   1.246   0.903   1.462  0.3533 -0.3696 -0.3124
 8427TIP3   OH246695   6.601   3.505   1.381 -0.3539  0.2448 -0.1073
 8427TIP3    H146696   6.612   3.520   1.287  0.1372 -0.5806 -0.1968
 8427TIP3    H246697   6.573   3.413   1.387 -0.6953  0.3863  0.5370
 8428TIP3   OH246698   1.426   3.564   4.960 -0.1990 -0.5525  0.2458
 8428TIP3    H146699   1.351   3.553   5.018  1.6743 -1.4576  2.6523
 8428TIP3    H246700   1.443   3.659   4.962 -1.0401 -0.3819 -0.0636
 8429TIP3   OH246701   0.522   6.293  12.436  0.1413 -0.0392 -0.2765
 8429TIP3    H146702   0.576   6.365  12.468 -1.3358  0.0602  2.1367
 8429TIP3    H246703   0.481   6.328  12.356  0.8423  1.1295 -0.1538
 8430TIP3   OH246704   1.809   1.587  13.378 -0.1257  0.3407  0.4932
 8430TIP3    H146705   1.735   1.538  13.344 -0.5262  1.0826  0.2671
 8430TIP3    H246706   1.826   1.548  13.464 -1.6921  1.0418  1.1810
 8431TIP3   OH246707   0.683   0.626  11.977 -0.1099 -0.0570  0.3617
 8431TIP3    H146708   0.591   0.638  11.997  0.1285  1.3456  0.7157
 8431TIP3    H246709   0.708   0.705  11.928  0.4070 -1.3697 -1.6025
 8432TIP3   OH246710   5.010   1.962   4.460  0.3940  0.0507 -0.2012
 8432TIP3    H146711   4.994   1.876   4.499  2.2365  0.6798  2.1721
 8432TIP3    H246712   5.097   1.954   4.420  0.2392  0.5816 -0.6515
 8433TIP3   OH246713   2.932   3.636   0.360 -0.1928  0.5265 -0.1691
 8433TIP3    H146714   3.002   3.699   0.378  0.4612 -0.4166  0.7361
 8433TIP3    H246715   2.952   3.601   0.273  1.3167 -0.7554  0.6396
 8434TIP3   OH246716   4.363   5.687   4.775  0.3234 -0.3846  0.1645
 8434TIP3    H146717   4.360   5.591   4.774 -0.6288 -0.3653  0.1836
 8434TIP3    H246718   4.345   5.712   4.685  0.4437 -0.2144  0.1876
 8435TIP3   OH246719   0.704   5.491  12.240  0.9615  0.2168 -0.0045
 8435TIP3    H146720   0.766   5.473  12.170  0.2365  0.3629 -0.7025
 8435TIP3    H246721   0.619   5.498  12.196  0.7137  1.9432  0.6699
 8436TIP3   OH246722   0.379   0.226  14.745 -0.2991  0.2908 -0.5949
 8436TIP3    H146723   0.429   0.189  14.817 -0.2496  1.2135 -0.1414
 8436TIP3    H246724   0.316   0.157  14.721  1.2915 -0.9686 -1.3135
 8437TIP3   OH246725   0.667   6.255   1.064  0.2123  0.6195 -0.4234
 8437TIP3    H146726   0.673   6.258   1.160  0.0446  1.2342 -0.4311
 8437TIP3    H246727   0.699   6.340   1.035 -3.2163  1.9443 -0.7319
 8438TIP3   OH246728   0.911   3.867   1.214  0.2956 -0.2886  0.1711
 8438TIP3    H146729   0.887   3.877   1.306 -1.7601  0.4156 -0.3848
 8438TIP3    H246730   0.890   3.776   1.194 -1.8661  0.2252 -0.2174
 8439TIP3   OH246731   2.974   5.614   1.134  0.0218  0.0722  0.3080
 8439TIP3    H146732   2.997   5.550   1.201 -0.8867 -1.2340 -0.5910
 8439TIP3    H246733   2.982   5.567   1.051 -1.8734  0.7362 -0.3005
 8440TIP3   OH246734   1.077   5.076  11.093 -0.2269 -0.5895 -0.2561
 8440TIP3    H146735   1.028   5.042  11.018 -0.8079  0.4430 -0.3732
 8440TIP3    H246736   1.169   5.064  11.070 -0.3964 -0.1693 -1.2045
 8441TIP3   OH246737   0.380   4.121   1.861  0.0599 -0.0673  0.0530
 8441TIP3    H146738   0.358   4.211   1.885  1.1269 -0.4560  2.8244
 8441TIP3    H246739   0.295   4.075   1.859 -0.3814  0.7451 -0.3352
 8442TIP3   OH246740   3.440   0.117   4.198  0.2577 -0.4705  0.0507
 8442TIP3    H146741   3.461   0.118   4.291 -2.4072  0.5900  0.7150
 8442TIP3    H246742   3.525   0.129   4.155  1.3020  1.4807  2.4044
 8443TIP3   OH246743   2.770   3.775   0.813  0.0369 -0.0306  0.5901
 8443TIP3    H146744   2.803   3.757   0.901 -0.9585  2.8675  1.6694
 8443TIP3    H246745   2.682   3.737   0.812  0.3108 -0.6708  0.5867
 8444TIP3   OH246746   5.979   1.346   2.191 -0.4931 -0.3800  0.5028
 8444TIP3    H146747   6.032   1.321   2.266 -0.7058 -1.5275  0.2915
 8444TIP3    H246748   5.918   1.412   2.225 -0.4250 -0.7033  1.2693
 8445TIP3   OH246749   5.821   3.874   3.557  0.3166  0.4508  0.1721
 8445TIP3    H146750   5.905   3.865   3.604  0.2341  0.4092  0.3131
 8445TIP3    H246751   5.833   3.821   3.478  1.4308  2.6565 -1.2265
 8446TIP3   OH246752   2.862   3.871  15.555  0.4954  0.6647 -0.1665
 8446TIP3    H146753   2.917   3.849  15.480  0.4851  0.8678 -0.2337
 8446TIP3    H246754   2.828   3.787  15.585  1.4644  0.4492  0.3677
 8447TIP3   OH246755   6.607   1.169  14.772 -0.3583  0.3482 -0.3497
 8447TIP3    H146756   6.596   1.113  14.696 -0.4256 -0.0674 -0.0331
 8447TIP3    H246757   6.548   1.243  14.756  0.5963  0.9257 -1.3222
 8448TIP3   OH246758   6.118   2.624  10.844  0.3212 -0.2782 -0.7399
 8448TIP3    H146759   6.088   2.706  10.883  1.5748  0.0784 -0.4696
 8448TIP3    H246760   6.040   2.587  10.803 -0.3278  0.9107 -0.6333
 8449TIP3   OH246761   6.033   1.631  16.167  0.0253  0.0077  0.1159
 8449TIP3    H146762   6.124   1.651  16.147 -0.3080  0.6252 -0.8809
 8449TIP3    H246763   6.026   1.536  16.152  0.4530 -0.0081  0.0058
 8450TIP3   OH246764   5.318   6.332  13.421 -0.3906  0.2688 -0.1075
 8450TIP3    H146765   5.249   6.384  13.462 -1.2041 -0.3017 -0.7224
 8450TIP3    H246766   5.348   6.385  13.348  0.9286  1.2034  1.0652
 8451TIP3   OH246767   1.077   3.291   2.563 -0.7085  1.3142  0.0510
 8451TIP3    H146768   1.079   3.365   2.624  0.9542  0.3258  1.2775
 8451TIP3    H246769   1.118   3.219   2.611 -0.2568  0.2060 -1.8746
 8452TIP3   OH246770   4.878   1.501   1.080  0.5376 -0.4872  0.5235
 8452TIP3    H146771   4.915   1.420   1.046  0.8624 -0.9534  1.9518
 8452TIP3    H246772   4.784   1.494   1.061  0.5831 -1.1463  0.5212
 8453TIP3   OH246773   0.016   0.005  15.530 -0.0769  0.1229 -0.2678
 8453TIP3    H146774   0.032   0.094  15.498  1.4395 -0.0507 -0.0409
 8453TIP3    H246775  -0.018   0.018  15.619 -0.0140  0.4714 -0.2918
 8454TIP3   OH246776   0.559   1.864  15.004 -0.1937  0.3695 -0.1569
 8454TIP3    H146777   0.499   1.833  14.936 -1.4289  0.7420  0.7276
 8454TIP3    H246778   0.567   1.958  14.987 -0.4373  0.4477  0.1451
 8455TIP3   OH246779   4.361   6.479  10.826 -0.3462  0.0863 -0.3322
 8455TIP3    H146780   4.394   6.394  10.856  1.6810  0.6932 -0.6865
 8455TIP3    H246781   4.286   6.496  10.882 -0.6949 -1.8609 -0.1481
 8456TIP3   OH246782   4.234   0.400   5.623  0.0723 -0.7791 -0.5843
 8456TIP3    H146783   4.329   0.399   5.630  0.0346  0.3144  0.4745
 8456TIP3    H246784   4.202   0.390   5.713 -0.7359  1.1131 -0.5959
 8457TIP3   OH246785   6.634   0.745  12.813 -0.1912  0.6647 -0.1553
 8457TIP3    H146786   6.692   0.696  12.871 -1.6006 -1.2647 -0.3016
 8457TIP3    H246787   6.558   0.766  12.866  0.3291  2.7241 -0.1220
 8458TIP3   OH246788   1.239   4.737   1.727  0.1050  0.1593 -0.4239
 8458TIP3    H146789   1.314   4.794   1.707 -0.4484  0.6843 -1.0071
 8458TIP3    H246790   1.259   4.655   1.682 -0.2640  0.7218 -1.6352
 8459TIP3   OH246791   6.721   3.824  12.715 -0.1929  0.4330  0.4108
 8459TIP3    H146792   6.732   3.738  12.755 -1.4829  0.0047 -0.1069
 8459TIP3    H246793   6.792   3.829  12.650 -0.8581 -0.7901 -0.4545
 8460TIP3   OH246794   2.289   0.925  11.487 -0.1483 -0.5425  0.0700
 8460TIP3    H146795   2.200   0.900  11.464 -0.0730 -0.6482 -0.1092
 8460TIP3    H246796   2.301   1.011  11.446 -0.4568 -0.1403  0.8109
 8461TIP3   OH246797   1.176   5.790  13.140 -0.1228 -0.4196  0.3516
 8461TIP3    H146798   1.117   5.839  13.083 -0.8599 -0.4150  1.1010
 8461TIP3    H246799   1.224   5.857  13.189  0.0326 -0.4284  0.2103
 8462TIP3   OH246800   2.985   0.225   6.413  0.1179 -0.4056 -0.7535
 8462TIP3    H146801   3.031   0.287   6.470  1.2302 -1.0914 -0.8642
 8462TIP3    H246802   3.006   0.139   6.449  0.7011 -0.8480 -2.0731
 8463TIP3   OH246803   3.722   5.844   5.725  0.5240  0.1406 -1.0298
 8463TIP3    H146804   3.803   5.848   5.776 -0.0071  0.4251 -0.1904
 8463TIP3    H246805   3.727   5.918   5.665  2.0726 -1.3204 -2.8439
 8464TIP3   OH246806   5.592   6.619   4.906  0.1736 -0.0059  0.2657
 8464TIP3    H146807   5.513   6.672   4.919  0.8531  0.7933  1.3657
 8464TIP3    H246808   5.625   6.604   4.995  0.7732 -1.0914 -0.1205
 8465TIP3   OH246809   5.892   1.382   5.015  0.2912  0.2041 -0.1616
 8465TIP3    H146810   5.832   1.454   4.998 -1.9845 -1.7741 -1.1622
 8465TIP3    H246811   5.938   1.370   4.932  0.0425  0.0039 -0.2747
 8466TIP3   OH246812   2.684   2.312   3.390 -0.1428  0.7228  0.3613
 8466TIP3    H146813   2.652   2.389   3.437 -0.6437 -0.1320  1.4569
 8466TIP3    H246814   2.701   2.344   3.301 -0.7264  1.9964  0.6811
 8467TIP3   OH246815   4.576   4.077   0.093  0.5054 -0.1224 -0.9580
 8467TIP3    H146816   4.527   4.159   0.088  0.9068  0.4626  2.3076
 8467TIP3    H246817   4.667   4.104   0.101  0.5518 -0.7324  1.2577
 8468TIP3   OH246818   4.913   2.456   5.175  0.2899  0.1537  0.3424
 8468TIP3    H146819   4.854   2.438   5.102  0.2079  1.0400  0.1804
 8468TIP3    H246820   4.949   2.370   5.198 -1.2045 -0.4409  0.5824
 8469TIP3   OH246821   6.617   4.894   0.711  0.2504 -0.6960 -0.2553
 8469TIP3    H146822   6.651   4.804   0.709 -1.3788 -1.3497 -0.7826
 8469TIP3    H246823   6.522   4.883   0.720  0.0145  0.9803 -0.4352
 8470TIP3   OH246824   2.637   4.610  15.421  0.2131 -0.7647 -0.1344
 8470TIP3    H146825   2.633   4.514  15.421  0.1100 -0.7600  0.0400
 8470TIP3    H246826   2.545   4.637  15.416  0.1760 -0.6737  0.8157
 8471TIP3   OH246827   1.490   1.546   4.658  0.2364  0.1385 -0.0796
 8471TIP3    H146828   1.567   1.558   4.714  0.7331 -1.6369 -0.2930
 8471TIP3    H246829   1.515   1.586   4.575  1.2083 -0.9042 -0.3271
 8472TIP3   OH246830   4.581   3.486  11.027 -0.3570 -0.4221  0.0979
 8472TIP3    H146831   4.543   3.562  10.982  0.1682 -0.5877 -0.6390
 8472TIP3    H246832   4.552   3.496  11.118  0.8549  1.4445  0.3379
 8473TIP3   OH246833   1.674   5.980  14.158  0.2685  0.5003 -0.1455
 8473TIP3    H146834   1.656   6.008  14.068  4.1350 -0.4763 -1.4050
 8473TIP3    H246835   1.710   6.058  14.200 -0.4906  0.6472  0.2518
 8474TIP3   OH246836   1.095   4.980  16.431 -0.2478 -0.0517 -0.4908
 8474TIP3    H146837   1.148   4.901  16.428  1.3858  1.0036 -2.7043
 8474TIP3    H246838   1.039   4.975  16.353 -2.0039 -0.1672  0.7115
 8475TIP3   OH246839   4.422   4.920   2.090 -0.0633  0.1862 -1.0606
 8475TIP3    H146840   4.328   4.906   2.095 -0.0661  0.2473 -0.9360
 8475TIP3    H246841   4.446   4.890   2.002  0.0645 -1.4567 -0.4966
 8476TIP3   OH246842   1.585   3.899  11.124  0.4017 -0.0036  0.0199
 8476TIP3    H146843   1.574   3.845  11.046  2.6896 -1.0320  0.3234
 8476TIP3    H246844   1.574   3.989  11.094  1.9409 -0.3240 -1.6796
 8477TIP3   OH246845   4.174   4.333   6.460  0.5621 -0.1360  0.7102
 8477TIP3    H146846   4.245   4.359   6.520  1.4893 -1.3450  0.1749
 8477TIP3    H246847   4.094   4.356   6.507  1.2528 -1.1622  2.4994
 8478TIP3   OH246848   5.650   1.843   1.853  0.5686 -0.2354  0.2622
 8478TIP3    H146849   5.726   1.850   1.910  0.8753 -1.2392 -0.0032
 8478TIP3    H246850   5.620   1.933   1.841  0.1038 -0.0222  2.5320
 8479TIP3   OH246851   4.659   4.468   0.601 -0.2888 -0.4492  0.0151
 8479TIP3    H146852   4.620   4.491   0.517 -1.3750 -1.1132  0.3152
 8479TIP3    H246853   4.655   4.372   0.604  0.3632 -0.4720  0.5390
 8480TIP3   OH246854   6.430   4.279   4.597 -0.1688  0.3046 -0.1641
 8480TIP3    H146855   6.341   4.282   4.562 -0.2410 -0.3650 -0.0505
 8480TIP3    H246856   6.456   4.371   4.606 -0.2726  0.5074 -1.6698
 8481TIP3   OH246857   1.979   6.398  11.641  0.1960  0.1474 -0.6715
 8481TIP3    H146858   1.908   6.430  11.586  1.2665  0.3053 -2.0047
 8481TIP3    H246859   1.958   6.431  11.729 -0.8321  1.0465 -1.2330
 8482TIP3   OH246860   0.501   1.618  11.750  0.4916 -0.0136  0.1186
 8482TIP3    H146861   0.499   1.711  11.726  0.1845 -0.3313 -1.1400
 8482TIP3    H246862   0.456   1.615  11.835 -0.5527  0.8381 -0.3701
 8483TIP3   OH246863   4.367   3.885  13.468 -0.1149 -0.2685 -0.2712
 8483TIP3    H146864   4.334   3.796  13.481 -1.8259  0.6921  3.0163
 8483TIP3    H246865   4.298   3.942  13.501  0.3486  2.4699 -3.4251
 8484TIP3   OH246866   2.065   3.152   3.927 -0.3045  0.4920 -0.0097
 8484TIP3    H146867   2.141   3.211   3.922 -0.6526  0.8778 -1.1500
 8484TIP3    H246868   2.011   3.177   3.852 -1.3998 -0.0060  0.5980
 8485TIP3   OH246869   2.647   6.365  17.251 -0.2060 -0.4816 -0.0654
 8485TIP3    H146870   2.697   6.284  17.238 -0.5368 -0.7881  0.5434
 8485TIP3    H246871   2.579   6.362  17.184 -0.0744 -0.5940 -0.1959
 8486TIP3   OH246872   1.280   2.173   5.502 -0.2509 -0.3018  0.3187
 8486TIP3    H146873   1.235   2.092   5.480 -0.6966 -0.0951  0.4553
 8486TIP3    H246874   1.333   2.193   5.424 -1.1227 -0.0519 -0.2224
 8487TIP3   OH246875   1.782   0.958  15.225  0.4557 -0.6667  0.1761
 8487TIP3    H146876   1.776   0.964  15.130  0.8354 -1.5617  0.0864
 8487TIP3    H246877   1.716   0.893  15.249  1.6043 -1.7964  0.3370
 8488TIP3   OH246878   3.623   3.016   4.219  0.6601 -0.8506 -0.4070
 8488TIP3    H146879   3.698   2.974   4.262 -0.0286  0.4580  2.2757
 8488TIP3    H246880   3.556   3.022   4.288  0.0628  2.8791 -1.0855
 8489TIP3   OH246881   3.695   2.883  15.646  0.4949  0.4511  0.3960
 8489TIP3    H146882   3.609   2.860  15.681 -0.1462  1.7860 -0.2056
 8489TIP3    H246883   3.734   2.800  15.622 -0.0173 -0.3161  2.0159
 8490TIP3   OH246884   3.350   5.255   1.756  0.4049  0.3457  0.1043
 8490TIP3    H146885   3.419   5.317   1.730  0.4646 -0.0759 -0.7616
 8490TIP3    H246886   3.394   5.170   1.759  0.1914  0.2545  0.7359
 8491TIP3   OH246887   5.650   4.775  15.577  0.7245  0.1186 -0.3337
 8491TIP3    H146888   5.688   4.825  15.650  0.5529 -0.2427  0.0053
 8491TIP3    H246889   5.703   4.800  15.501 -0.4990  2.2519 -0.5680
 8492TIP3   OH246890   4.659   5.682  16.377  0.0242  0.5938 -0.3393
 8492TIP3    H146891   4.707   5.731  16.444  0.0369 -0.6643  0.6036
 8492TIP3    H246892   4.706   5.701  16.295  1.7129 -0.0140  0.4483
 8493TIP3   OH246893   3.043   4.211   3.095 -0.0436 -0.1618 -0.1356
 8493TIP3    H146894   2.979   4.266   3.049 -0.1222  0.3145  0.5145
 8493TIP3    H246895   3.128   4.240   3.062 -0.1367 -0.3895 -0.5758
 8494TIP3   OH246896   1.512   5.701  11.327  0.0382  0.6072 -0.2395
 8494TIP3    H146897   1.424   5.720  11.293  0.0516  0.5147 -0.3270
 8494TIP3    H246898   1.566   5.773  11.295  0.7275 -1.0036 -3.0711
 8495TIP3   OH246899   0.949   4.573   4.407  0.3256 -0.0179  0.6299
 8495TIP3    H146900   0.932   4.626   4.330 -1.6543  0.3820  1.2686
 8495TIP3    H246901   0.935   4.483   4.378  1.4088 -0.0176  0.0946
 8496TIP3   OH246902   2.073   1.870  15.504 -0.1588  0.1346  0.4327
 8496TIP3    H146903   2.017   1.884  15.428 -0.7695 -0.0852  0.8275
 8496TIP3    H246904   2.062   1.949  15.557 -0.6941 -0.2165  0.8672
 8497TIP3   OH246905   4.128   6.552  12.909  0.4464  0.4601 -0.0693
 8497TIP3    H146906   4.148   6.563  13.002  0.2274 -2.6934  0.4412
 8497TIP3    H246907   4.199   6.597  12.864  1.6860  0.3117  1.6399
 8498TIP3   OH246908   6.248   4.498   3.143 -0.2023  0.1662  0.4823
 8498TIP3    H146909   6.343   4.503   3.151 -0.3780  3.2334  2.2412
 8498TIP3    H246910   6.224   4.418   3.190  1.4624 -0.8564 -0.3035
 8499TIP3   OH246911   4.817   5.909  12.312 -0.2984 -0.3881 -0.7681
 8499TIP3    H146912   4.869   5.959  12.249 -1.0398  0.3337 -0.8253
 8499TIP3    H246913   4.824   5.819  12.283  1.7910 -0.4639 -0.1671
 8500TIP3   OH246914   4.212   0.179   0.971  0.5410 -0.1753  0.1315
 8500TIP3    H146915   4.232   0.250   0.910  0.4940  0.5637  0.9527
 8500TIP3    H246916   4.117   0.183   0.983  0.5613 -0.2526  0.3245
 8501TIP3   OH246917   0.415   1.769  14.790  0.1081  0.5220  0.4716
 8501TIP3    H146918   0.354   1.819  14.734  0.3513 -0.6725 -0.9218
 8501TIP3    H246919   0.358   1.723  14.852 -0.6543 -1.6653 -1.6684
 8502TIP3   OH246920   2.682   3.408   6.302  0.0900  0.3039 -0.2874
 8502TIP3    H146921   2.703   3.321   6.268 -0.8478  0.7520 -2.1632
 8502TIP3    H246922   2.634   3.391   6.383  1.6098 -0.8472  0.4168
 8503TIP3   OH246923   5.706   2.596   1.902 -0.2533  0.1873 -0.3136
 8503TIP3    H146924   5.649   2.653   1.954 -2.4733  1.8288 -4.1029
 8503TIP3    H246925   5.657   2.514   1.896 -1.5981  1.0693 -2.2690
 8504TIP3   OH246926   4.948   6.707  16.972  0.6163  0.0513 -0.2183
 8504TIP3    H146927   4.937   6.661  16.889 -0.1167  1.1296 -0.7452
 8504TIP3    H246928   5.031   6.755  16.962  0.0871  0.8837 -0.6873
 8505TIP3   OH246929   6.557   1.505  15.316 -0.2912 -0.4135 -0.3923
 8505TIP3    H146930   6.533   1.571  15.381  1.1772 -0.4774  0.2447
 8505TIP3    H246931   6.634   1.461  15.353  2.2594  1.2432 -3.2871
 8506TIP3   OH246932   4.225   1.080  10.811 -0.4218  0.3784 -0.5438
 8506TIP3    H146933   4.141   1.105  10.851  0.1514  0.2113  0.8315
 8506TIP3    H246934   4.282   1.155  10.827 -0.0392  0.0983 -0.5856
 8507TIP3   OH246935   1.188   0.597  12.127  1.0154  0.5123  0.0758
 8507TIP3    H146936   1.160   0.514  12.088 -0.6325  1.8541 -1.8087
 8507TIP3    H246937   1.192   0.580  12.221  1.4975 -1.8776 -0.3274
 8508TIP3   OH246938   3.019   5.556  10.845  0.4600  0.1710 -0.2528
 8508TIP3    H146939   3.038   5.645  10.876 -0.6722  0.2298  0.3309
 8508TIP3    H246940   2.957   5.569  10.773 -0.0150 -0.1407  0.0865
 8509TIP3   OH246941   1.872   6.501  11.302 -0.2260 -0.5932 -0.2796
 8509TIP3    H146942   1.811   6.560  11.348 -2.4351 -3.0481  0.1808
 8509TIP3    H246943   1.923   6.559  11.246 -1.7976  1.8268  0.6126
 8510TIP3   OH246944   3.366   3.431   2.887 -0.1823  0.3551 -0.2700
 8510TIP3    H146945   3.438   3.433   2.950 -0.4832  1.1182  0.0567
 8510TIP3    H246946   3.396   3.371   2.819  0.0394 -0.7117  0.7309
 8511TIP3   OH246947   6.691   6.492   0.192  0.3514 -0.2345  0.0264
 8511TIP3    H146948   6.758   6.453   0.137  1.1882  0.1765  0.7334
 8511TIP3    H246949   6.722   6.480   0.281  0.9525  2.4987  0.2802
 8512TIP3   OH246950   3.852   4.903  11.239  0.3671  1.4637  0.8612
 8512TIP3    H146951   3.870   4.902  11.145  0.1692  1.4125  0.8232
 8512TIP3    H246952   3.937   4.886  11.280 -0.0415 -1.6486  0.6295
 8513TIP3   OH246953   2.491   5.849   2.343 -0.1880  0.2104  0.4343
 8513TIP3    H146954   2.474   5.921   2.404  0.4352  0.0752  0.7789
 8513TIP3    H246955   2.411   5.797   2.345 -1.2112  1.6451 -0.8983
 8514TIP3   OH246956   5.722   1.872  16.791  0.5157  0.1142 -0.1487
 8514TIP3    H146957   5.653   1.925  16.832  0.1971 -0.3902 -0.0185
 8514TIP3    H246958   5.693   1.782  16.805  2.0246 -0.1755  1.3682
 8515TIP3   OH246959   5.346   2.519  11.280  0.3661 -0.1505  0.0481
 8515TIP3    H146960   5.371   2.444  11.226  0.3756 -0.4871  0.5151
 8515TIP3    H246961   5.358   2.488  11.370  0.1735  0.3458  0.2416
 8516TIP3   OH246962   6.610   3.656  16.883 -0.1129 -0.0842  0.4777
 8516TIP3    H146963   6.662   3.587  16.923 -0.0157 -1.9937 -2.6536
 8516TIP3    H246964   6.520   3.623  16.883 -0.0402 -0.3644 -1.2001
 8517TIP3   OH246965   4.042   0.920  13.465 -0.0074  0.1891  0.2140
 8517TIP3    H146966   4.137   0.916  13.455  0.6165  0.7136  4.1547
 8517TIP3    H246967   4.013   0.831  13.446  1.1803  0.0798 -1.3005
 8518TIP3   OH246968   1.941   2.049   4.155 -0.6490 -0.0745 -0.0524
 8518TIP3    H146969   1.941   2.132   4.108 -1.0305  0.7613  1.4018
 8518TIP3    H246970   1.973   1.986   4.090 -1.3287  1.0046 -1.4823
 8519TIP3   OH246971   0.570   2.977  15.107  0.1835 -0.3611 -0.3450
 8519TIP3    H146972   0.630   3.046  15.135 -0.8918  0.4109  0.0966
 8519TIP3    H246973   0.616   2.895  15.129  1.6387  0.1689 -1.2253
 8520TIP3   OH246974   6.241   6.539   2.121  0.0957 -0.1443 -0.1309
 8520TIP3    H146975   6.218   6.482   2.194 -2.3236  2.0327  0.9511
 8520TIP3    H246976   6.318   6.588   2.152 -1.1230  1.0184  1.1957
 8521TIP3   OH246977   0.442   3.636   1.938  0.3386 -0.8610  0.1856
 8521TIP3    H146978   0.447   3.709   1.876  2.2088 -1.0626  0.0491
 8521TIP3    H246979   0.496   3.664   2.012 -2.4716 -0.2793  2.1925
 8522TIP3   OH246980   4.593   2.688   5.491  0.3930  0.3377  0.1548
 8522TIP3    H146981   4.526   2.621   5.483  1.3152 -0.6702  0.5634
 8522TIP3    H246982   4.676   2.639   5.490  1.2018  1.6309 -1.6573
 8523TIP3   OH246983   2.224   4.987   0.777 -0.0717 -0.0506  0.3818
 8523TIP3    H146984   2.204   4.996   0.871  3.0824 -1.4484  1.3334
 8523TIP3    H246985   2.219   4.893   0.760 -0.2207  0.1579 -0.7746
 8524TIP3   OH246986   2.728   0.379   3.918 -0.3096 -0.3745 -0.3955
 8524TIP3    H146987   2.803   0.320   3.927  1.8720  2.1555 -0.9290
 8524TIP3    H246988   2.708   0.407   4.007  1.8660  1.7615 -0.5000
 8525TIP3   OH246989   4.479   4.447  16.682  0.0381 -0.1077  0.4075
 8525TIP3    H146990   4.484   4.361  16.722  0.3484  0.6738  2.1327
 8525TIP3    H246991   4.433   4.501  16.746 -2.1880  0.5299 -1.5580
 8526TIP3   OH246992   3.003   3.382  14.537  0.2533  0.3044  0.3719
 8526TIP3    H146993   2.935   3.434  14.578 -0.1353 -0.0312  0.1661
 8526TIP3    H246994   2.998   3.297  14.581 -0.2018 -0.0748 -0.3870
 8527TIP3   OH246995   5.585   2.386   4.512 -0.1090 -0.3340  0.6769
 8527TIP3    H146996   5.502   2.396   4.466  0.5465 -0.5423 -0.6124
 8527TIP3    H246997   5.595   2.466   4.564 -1.7478 -0.9073  1.9538
 8528TIP3   OH246998   2.445   1.595  12.987  0.4667 -0.1839  0.1829
 8528TIP3    H146999   2.373   1.648  13.021 -0.3739 -1.4020  0.3612
 8528TIP3    H247000   2.498   1.575  13.064 -0.6383 -1.7265  0.5821
 8529TIP3   OH247001   4.793   2.642  16.963 -0.1485 -0.1427  0.0286
 8529TIP3    H147002   4.765   2.656  16.873  0.6330  2.8578  0.1629
 8529TIP3    H247003   4.718   2.597  17.004 -3.0772  3.5759 -0.7178
 8530TIP3   OH247004   1.699   5.134   4.292  0.9068 -0.0336 -0.4149
 8530TIP3    H147005   1.641   5.139   4.368 -1.9996  1.2187 -2.5211
 8530TIP3    H247006   1.667   5.058   4.243  0.7354  0.9288 -1.8369
 8531TIP3   OH247007   3.043   6.157  12.630 -0.2619 -0.1113  0.1042
 8531TIP3    H147008   3.084   6.071  12.630  0.7228  0.2531 -2.6043
 8531TIP3    H247009   3.096   6.209  12.569 -2.6611  1.4694 -0.7679
 8532TIP3   OH247010   5.151   3.282   6.202  0.0660 -0.8269 -0.2517
 8532TIP3    H147011   5.191   3.235   6.276 -1.2604 -1.7985 -0.1122
 8532TIP3    H247012   5.058   3.284   6.222 -0.1744 -0.0368 -1.3370
 8533TIP3   OH247013   5.982   1.063   6.607 -0.1846 -0.2297 -0.7355
 8533TIP3    H147014   6.073   1.034   6.607 -0.4532 -1.0778 -0.6677
 8533TIP3    H247015   5.933   0.990   6.570 -0.7997  0.3624 -1.1066
 8534TIP3   OH247016   3.716   1.028  11.803  0.0456 -0.4073 -0.5440
 8534TIP3    H147017   3.657   1.045  11.730  0.1390 -1.8585 -1.0061
 8534TIP3    H247018   3.739   0.935  11.793 -0.8953 -0.9927  2.0308
 8535TIP3   OH247019   3.786   4.619  11.740  0.2620  0.3181  0.0727
 8535TIP3    H147020   3.755   4.596  11.828  1.2305 -0.2130  0.2841
 8535TIP3    H247021   3.706   4.632  11.689 -0.3171  0.7693  1.0614
 8536TIP3   OH247022   3.000   0.147   2.140  0.5812  0.2176  0.7207
 8536TIP3    H147023   2.999   0.167   2.047  2.0247  2.6713  1.1429
 8536TIP3    H247024   2.909   0.155   2.168  0.3778  1.2970 -0.1766
 8537TIP3   OH247025   0.052   3.339  14.392 -0.5288  0.2852 -0.5335
 8537TIP3    H147026   0.068   3.413  14.451  0.1926  0.3412 -0.7830
 8537TIP3    H247027   0.129   3.283  14.404  0.3306  0.9761 -2.4225
 8538TIP3   OH247028   0.439   5.583  13.014 -0.1971 -0.3517 -0.2416
 8538TIP3    H147029   0.521   5.630  13.000  0.2611 -0.9183  0.4476
 8538TIP3    H247030   0.457   5.525  13.088 -0.6584 -1.8171 -1.2259
 8539TIP3   OH247031   3.886   5.993  12.005 -0.2487  0.3777  0.3330
 8539TIP3    H147032   3.878   5.903  11.972 -1.5384  0.5623  0.0814
 8539TIP3    H247033   3.972   6.022  11.975  0.7505 -1.1971  1.5351
 8540TIP3   OH247034   2.979   1.993  15.538 -0.4078 -0.4668  0.0421
 8540TIP3    H147035   2.952   1.962  15.624 -0.2634 -0.2738  0.1591
 8540TIP3    H247036   3.075   1.998  15.544 -0.3990 -0.4418 -0.1249
 8541TIP3   OH247037   4.839   5.141   0.395  0.7899 -0.0957 -0.0098
 8541TIP3    H147038   4.825   5.127   0.302 -2.1849 -2.3755  0.6262
 8541TIP3    H247039   4.761   5.188   0.424  1.7369  0.7286  1.3497
 8542TIP3   OH247040   2.504   0.496   2.681  0.1758 -0.4498 -0.2609
 8542TIP3    H147041   2.564   0.465   2.613  2.3624  2.5460  0.1095
 8542TIP3    H247042   2.438   0.546   2.634  2.1548  2.3273 -0.2787
 8543TIP3   OH247043   3.737   4.743  13.359  0.5142  0.5924  0.1070
 8543TIP3    H147044   3.669   4.773  13.419 -0.4030 -0.0382 -0.5920
 8543TIP3    H247045   3.813   4.726  13.415 -0.4517 -0.4340  1.1667
 8544TIP3   OH247046   1.186   2.524   5.055  0.2067 -0.1116 -0.1847
 8544TIP3    H147047   1.170   2.614   5.027  0.2476 -0.0476 -0.0009
 8544TIP3    H247048   1.271   2.502   5.016 -1.0082 -1.0019 -2.5279
 8545TIP3   OH247049   5.492   6.225  13.882 -0.0137 -0.1496  0.3039
 8545TIP3    H147050   5.429   6.294  13.861  0.0417  0.1254  1.0151
 8545TIP3    H247051   5.529   6.251  13.967  0.8709 -0.4367  0.0227
 8546TIP3   OH247052   6.721   4.339   1.382  0.0134 -0.4135 -0.1955
 8546TIP3    H147053   6.715   4.359   1.289 -0.6709 -0.1493 -0.0990
 8546TIP3    H247054   6.752   4.420   1.423  0.3109 -0.5286 -0.1908
 8547TIP3   OH247055   5.264   2.692   3.013 -0.1546 -0.5377  0.7353
 8547TIP3    H147056   5.269   2.712   2.920  0.8277 -0.4347  0.8038
 8547TIP3    H247057   5.320   2.757   3.055  0.0076 -1.0443  1.3229
 8548TIP3   OH247058   3.659   0.128  15.668 -0.0107 -0.0453 -0.1930
 8548TIP3    H147059   3.670   0.124  15.573  0.0736 -2.5285 -0.1470
 8548TIP3    H247060   3.570   0.163  15.680 -0.4472 -0.7296 -1.2523
 8549TIP3   OH247061   4.887   2.982   2.322  0.6060 -0.1736  0.2976
 8549TIP3    H147062   4.958   2.975   2.386  0.8318  0.7626  0.1752
 8549TIP3    H247063   4.864   3.075   2.324 -1.0802 -0.5809  0.8156
 8550TIP3   OH247064   4.392   4.165  12.702 -0.5919  0.3335  0.0410
 8550TIP3    H147065   4.444   4.154  12.623 -0.8223  0.7749 -0.1749
 8550TIP3    H247066   4.456   4.186  12.770 -0.2678 -1.1383  0.2243
 8551TIP3   OH247067   6.472   1.936  12.624  0.7080 -0.5925  0.2720
 8551TIP3    H147068   6.410   1.941  12.697  0.2066  1.0172 -0.2367
 8551TIP3    H247069   6.432   1.874  12.563 -1.2925  1.6156 -0.8060
 8552TIP3   OH247070   0.858   2.368  17.300  0.6586  0.0521 -0.1760
 8552TIP3    H147071   0.921   2.432  17.266  2.1247 -1.3541 -0.2483
 8552TIP3    H247072   0.782   2.376  17.242 -0.1131  3.1412  1.0685
 8553TIP3   OH247073   4.301   0.138   5.157  0.0303  0.0019 -0.1870
 8553TIP3    H147074   4.385   0.126   5.112  1.4338  1.7943  1.7756
 8553TIP3    H247075   4.303   0.075   5.229  0.3549  1.0112  0.7067
 8554TIP3   OH247076   5.489   0.098   0.773  0.2182  0.0594 -0.1828
 8554TIP3    H147077   5.563   0.156   0.788  0.0080  0.1990  0.3476
 8554TIP3    H247078   5.467   0.110   0.681 -0.3394  1.4398  0.1168
 8555TIP3   OH247079   4.153   2.876  16.046  0.0129 -0.3346  0.2931
 8555TIP3    H147080   4.160   2.809  16.115 -0.6275 -0.1773  0.5111
 8555TIP3    H247081   4.187   2.956  16.087  0.9130 -0.5421 -0.0129
 8556TIP3   OH247082   1.062   0.131  17.227  0.2059 -0.1218  0.1215
 8556TIP3    H147083   0.967   0.119  17.232 -0.0433  1.3028 -0.6375
 8556TIP3    H247084   1.078   0.213  17.274  1.1729 -0.7376  0.8993
 8557TIP3   OH247085   2.624   3.266   2.315  0.2105 -0.3949  0.2211
 8557TIP3    H147086   2.595   3.236   2.401  0.0203 -0.7892  0.0258
 8557TIP3    H247087   2.598   3.196   2.255 -0.9845  0.5035 -0.3688
 8558TIP3   OH247088   5.799   4.010   5.682  0.4360 -0.0996 -0.6554
 8558TIP3    H147089   5.837   4.075   5.623  0.3859  0.3046 -0.2466
 8558TIP3    H247090   5.795   4.054   5.766 -0.6456 -0.2586 -0.6208
 8559TIP3   OH247091   0.689   3.462   4.170  0.3650 -0.2128  0.6048
 8559TIP3    H147092   0.747   3.386   4.179 -0.3989 -1.2292 -2.1818
 8559TIP3    H247093   0.732   3.518   4.105 -0.6539  0.1255  0.2049
 8560TIP3   OH247094   4.969   1.069   2.412 -0.0687 -0.0577 -0.0664
 8560TIP3    H147095   4.960   1.014   2.490 -2.1007  0.9450  0.4922
 8560TIP3    H247096   5.023   1.142   2.440 -1.1893  0.5471  0.5906
 8561TIP3   OH247097   4.202   1.476  11.078  0.2939  0.1357 -0.0541
 8561TIP3    H147098   4.111   1.476  11.048  0.4788  1.1996 -0.6740
 8561TIP3    H247099   4.196   1.470  11.173 -0.4784  1.3380 -0.0084
 8562TIP3   OH247100   1.798   3.586   3.282 -0.5645  1.0226 -0.4358
 8562TIP3    H147101   1.703   3.597   3.279 -0.5688  0.7487 -1.7156
 8562TIP3    H247102   1.833   3.662   3.237 -0.1376  1.3989  0.5062
 8563TIP3   OH247103   6.349   1.480   5.224  0.0645  0.1868 -0.6539
 8563TIP3    H147104   6.343   1.460   5.317 -2.2847 -0.3060 -0.8710
 8563TIP3    H247105   6.363   1.395   5.182  1.7258  0.4731 -0.7497
 8564TIP3   OH247106   2.567   1.378   1.941 -0.0743  0.2496 -0.0382
 8564TIP3    H147107   2.572   1.287   1.969  1.0589  0.1355 -0.5866
 8564TIP3    H247108   2.504   1.376   1.868 -0.8942  0.1015  0.6550
 8565TIP3   OH247109   0.335   2.102  15.089 -0.2546 -0.3081  0.3921
 8565TIP3    H147110   0.348   2.141  15.002 -0.0853  1.7506  1.2840
 8565TIP3    H247111   0.421   2.107  15.130 -0.8495  1.0577  1.5438
 8566TIP3   OH247112   3.879   6.449  17.232  0.6828 -0.4802 -0.1346
 8566TIP3    H147113   3.925   6.530  17.254  0.5599 -0.2870 -0.5647
 8566TIP3    H247114   3.812   6.440  17.300  0.4668 -0.0292 -0.2772
 8567TIP3   OH247115   5.472   5.124   0.982 -0.6383 -0.2424 -0.1130
 8567TIP3    H147116   5.494   5.101   0.891 -2.3581 -0.0692 -0.6060
 8567TIP3    H247117   5.440   5.043   1.020 -0.9581 -0.0661 -0.0016
 8568TIP3   OH247118   3.242   2.625   2.712 -0.5292 -0.9494 -0.6648
 8568TIP3    H147119   3.258   2.559   2.645  2.5434 -0.3002 -0.6982
 8568TIP3    H247120   3.188   2.691   2.669  1.3615 -0.5559 -2.6022
 8569TIP3   OH247121   0.781   3.772   3.143 -0.3879  0.6749 -0.8472
 8569TIP3    H147122   0.869   3.777   3.178 -0.0468  1.5483 -1.7911
 8569TIP3    H247123   0.736   3.710   3.200  0.5241  1.0253  0.2861
 8570TIP3   OH247124   1.772   6.338  10.894  0.3583 -0.0146 -0.2073
 8570TIP3    H147125   1.861   6.342  10.860  0.8138  1.6721  1.0654
 8570TIP3    H247126   1.735   6.424  10.875  0.3663  0.7482  2.7159
 8571TIP3   OH247127   3.420   3.578   0.625  0.0673 -0.1301  0.1697
 8571TIP3    H147128   3.381   3.665   0.627 -1.0978 -0.6284 -0.1916
 8571TIP3    H247129   3.456   3.566   0.713 -1.3268  0.0360  0.7839
 8572TIP3   OH247130   3.760   0.101   1.274 -0.0402 -0.2201 -0.1264
 8572TIP3    H147131   3.699   0.047   1.324  0.3971 -2.1608 -1.5870
 8572TIP3    H247132   3.780   0.049   1.196  0.4861  2.0318 -1.5884
 8573TIP3   OH247133   5.018   0.028   4.676  0.4562  0.1188 -0.3276
 8573TIP3    H147134   5.040  -0.026   4.752  0.1547 -0.8171 -0.8772
 8573TIP3    H247135   5.011  -0.035   4.604  1.4673  1.0601 -1.2928
 8574TIP3   OH247136   1.933   0.235   6.330  0.0937 -0.1370 -0.1497
 8574TIP3    H147137   1.846   0.208   6.359  0.0356  0.3954  0.1898
 8574TIP3    H247138   1.992   0.171   6.368 -0.0213  0.3285  0.8429
 8575TIP3   OH247139   4.518   5.924  14.567 -0.3463  0.0689 -0.3288
 8575TIP3    H147140   4.440   5.930  14.512 -1.6652  1.6706  1.5763
 8575TIP3    H247141   4.486   5.892  14.651  1.5066 -1.7078 -0.2264
 8576TIP3   OH247142   5.247   0.118  15.728 -0.0212  0.2139  0.0711
 8576TIP3    H147143   5.197   0.135  15.648 -0.6818 -0.4397  0.3409
 8576TIP3    H247144   5.335   0.095  15.696 -0.0202  0.8701 -0.4233
 8577TIP3   OH247145   0.313   4.951  13.038  0.0185 -0.5558 -0.1291
 8577TIP3    H147146   0.402   4.930  13.067  0.2661  1.7140  1.0014
 8577TIP3    H247147   0.320   4.961  12.943  1.0653 -0.0660 -0.0142
 8578TIP3   OH247148   0.640   2.968   1.277 -0.6800 -0.2763 -0.0462
 8578TIP3    H147149   0.579   2.893   1.272 -0.6730 -0.2350 -0.7509
 8578TIP3    H247150   0.711   2.945   1.218  0.1524 -0.4499  0.9788
 8579TIP3   OH247151   0.948   0.993   5.214 -0.2397 -0.5083 -0.0428
 8579TIP3    H147152   0.886   1.036   5.272  0.8426 -0.9230  1.4835
 8579TIP3    H247153   0.962   0.907   5.252  1.2202 -0.4473 -0.3702
 8580TIP3   OH247154   3.582   0.773  11.995 -0.5612  0.1789 -0.2705
 8580TIP3    H147155   3.659   0.715  11.998 -2.3215 -2.3503 -0.4556
 8580TIP3    H247156   3.617   0.858  11.967  1.8985 -1.4265 -2.6291
 8581TIP3   OH247157   2.738   6.283   0.590 -0.4828 -0.1096 -0.4004
 8581TIP3    H147158   2.666   6.325   0.636  0.2263 -1.0830  1.7219
 8581TIP3    H247159   2.699   6.207   0.549 -0.6124 -1.0104  1.3002
 8582TIP3   OH247160   4.135   1.445   2.875 -0.4400 -0.0114  0.2016
 8582TIP3    H147161   4.084   1.515   2.835 -0.1854 -0.2664 -0.5748
 8582TIP3    H247162   4.211   1.489   2.913  0.1051  0.0537 -0.9345
 8583TIP3   OH247163   3.656   5.700   1.047  0.6768  0.0471 -0.1879
 8583TIP3    H147164   3.616   5.642   1.112  0.1276  0.2504 -0.3337
 8583TIP3    H247165   3.716   5.644   0.998 -0.8328 -0.7494 -1.2097
 8584TIP3   OH247166   0.538   6.458  14.912 -0.4281 -0.4998  0.1656
 8584TIP3    H147167   0.520   6.378  14.863 -0.8231 -0.8751  0.9082
 8584TIP3    H247168   0.622   6.442  14.955 -0.4257 -0.4493  0.1803
 8585TIP3   OH247169   5.873   4.263   1.956  0.2182 -0.5370  0.1914
 8585TIP3    H147170   5.934   4.231   2.022  0.1990  0.3053  0.6295
 8585TIP3    H247171   5.840   4.346   1.992 -0.8077 -0.7385 -0.2640
 8586TIP3   OH247172   0.559   5.277  14.561 -0.0054  0.0178 -0.1837
 8586TIP3    H147173   0.651   5.292  14.537  0.2950  1.7898  1.7650
 8586TIP3    H247174   0.535   5.196  14.516  3.1901 -1.7276  0.9120
 8587TIP3   OH247175   4.781   2.435   3.307 -0.2289  0.0656 -0.2937
 8587TIP3    H147176   4.699   2.483   3.318  0.5208  1.7010 -1.3436
 8587TIP3    H247177   4.755   2.344   3.297 -1.7866  0.3314  0.8915
 8588TIP3   OH247178   6.315   5.103  10.895  0.2737  0.2216  0.4088
 8588TIP3    H147179   6.243   5.157  10.864 -0.6458 -0.6870  0.8880
 8588TIP3    H247180   6.289   5.013  10.873  0.2829 -0.3134  2.3809
 8589TIP3   OH247181   2.253   1.048  14.537  0.1949 -0.1009 -0.0883
 8589TIP3    H147182   2.269   0.960  14.569  1.4160  0.0545 -0.2383
 8589TIP3    H247183   2.266   1.104  14.613  0.0216  0.0016 -0.1337
 8590TIP3   OH247184   4.257   4.705   6.376  0.1143 -0.0784 -0.4527
 8590TIP3    H147185   4.222   4.617   6.369  0.3582 -0.3081  0.9395
 8590TIP3    H247186   4.179   4.761   6.382 -0.0732 -0.0255 -2.6374
 8591TIP3   OH247187   5.411   1.716  15.460  0.6911  0.1702 -0.1217
 8591TIP3    H147188   5.389   1.790  15.517 -0.0290  0.5956 -0.9320
 8591TIP3    H247189   5.326   1.681  15.433  0.9538 -2.0586  1.5959
 8592TIP3   OH247190   3.835   0.258  14.576 -0.3046  0.3553 -0.2780
 8592TIP3    H147191   3.806   0.167  14.579  0.8281 -0.1082 -1.9950
 8592TIP3    H247192   3.833   0.280  14.483  2.0646  1.1980 -0.1780
 8593TIP3   OH247193   5.178   2.527  16.661 -0.4704 -0.6612  0.7145
 8593TIP3    H147194   5.158   2.522  16.568  1.3776 -0.9604  0.2934
 8593TIP3    H247195   5.135   2.450  16.699 -2.0307 -0.0390  0.3142
 8594TIP3   OH247196   5.966   3.439   3.550  0.3143 -0.1017  0.4163
 8594TIP3    H147197   5.974   3.499   3.623 -0.8519  1.0631 -0.3696
 8594TIP3    H247198   5.963   3.495   3.472  0.3061 -1.2259 -0.4210
 8595TIP3   OH247199   5.008   0.838  15.034 -0.0700  0.1171  0.3034
 8595TIP3    H147200   5.046   0.838  14.946  0.6368 -1.3020  0.5800
 8595TIP3    H247201   4.945   0.766  15.032 -2.4323  2.0878  0.0251
 8596TIP3   OH247202   5.623   1.089  13.368 -0.2279 -0.5320 -0.3285
 8596TIP3    H147203   5.540   1.069  13.325 -0.8363  1.6943 -0.3171
 8596TIP3    H247204   5.597   1.117  13.456  0.7214 -1.6098  0.3250
 8597TIP3   OH247205   4.125   1.349  11.668  0.5563 -0.0396 -0.2653
 8597TIP3    H147206   4.104   1.256  11.674 -1.2355  0.4222  2.1208
 8597TIP3    H247207   4.220   1.353  11.678  0.7049 -1.5973 -0.7837
 8598TIP3   OH247208   1.214   3.169   1.480  0.2194  0.5324 -0.0825
 8598TIP3    H147209   1.130   3.210   1.458 -0.3016 -0.8349 -0.7471
 8598TIP3    H247210   1.279   3.218   1.430 -0.4726  0.1277 -1.4216
 8599TIP3   OH247211   4.661   4.437  16.949 -0.6816 -0.4066 -0.7598
 8599TIP3    H147212   4.657   4.396  17.036 -1.2038  0.1504 -0.5132
 8599TIP3    H247213   4.678   4.529  16.966 -2.6323  0.0704 -1.1247
 8600TIP3   OH247214   1.034   0.449   2.732  0.0948  0.8099 -0.5576
 8600TIP3    H147215   1.090   0.466   2.657  0.6522  0.5470 -0.2104
 8600TIP3    H247216   0.949   0.487   2.709  0.4525  1.3283 -1.0361
 8601TIP3   OH247217   5.905   3.414  13.965 -0.0908  0.1765  0.2713
 8601TIP3    H147218   5.991   3.453  13.948  1.3680 -2.8549  0.0067
 8601TIP3    H247219   5.919   3.358  14.042 -1.8812 -0.2335  0.3423
 8602TIP3   OH247220   6.271   4.707  12.072  0.6072  0.3209  0.1580
 8602TIP3    H147221   6.201   4.672  12.127  1.7162 -0.1516  1.3092
 8602TIP3    H247222   6.256   4.802  12.073  0.1088  0.2454  0.5757
 8603TIP3   OH247223   5.096   4.978   5.764 -0.1457  0.1245 -0.1787
 8603TIP3    H147224   5.117   5.022   5.846  1.1416 -0.2895 -0.2598
 8603TIP3    H247225   5.181   4.956   5.726 -0.7248 -1.5234 -0.6298
 8604TIP3   OH247226   6.694   3.510   5.387  0.3391  0.2775 -0.4988
 8604TIP3    H147227   6.775   3.479   5.347  1.0700 -1.4479  2.0803
 8604TIP3    H247228   6.713   3.513   5.480 -2.4437  0.2199  0.1647
 8605TIP3   OH247229   0.329   1.887  15.712 -0.6058  0.3311 -0.0773
 8605TIP3    H147230   0.258   1.917  15.655 -0.0195  0.1791 -0.9053
 8605TIP3    H247231   0.409   1.903  15.662  0.0236  1.2372  1.1540
 8606TIP3   OH247232   0.939   2.512   6.009 -0.0421 -0.4868 -0.0407
 8606TIP3    H147233   0.928   2.464   5.927  0.2033  0.9763 -0.9663
 8606TIP3    H247234   1.033   2.514   6.024  0.0367  0.6055 -0.5909
 8607TIP3   OH247235   0.069   1.923  13.370 -0.2753  0.0986  0.0235
 8607TIP3    H147236   0.093   1.830  13.377  0.6948  0.1585 -1.8105
 8607TIP3    H247237  -0.002   1.934  13.434 -0.1826 -1.8143  0.5355
 8608TIP3   OH247238   6.088   0.534  11.821  0.1481 -0.8468 -0.6599
 8608TIP3    H147239   6.073   0.526  11.727 -1.0192 -0.7573 -0.4967
 8608TIP3    H247240   6.002   0.518  11.860  0.5528 -0.5527  0.3743
 8609TIP3   OH247241   3.087   4.491  15.558  0.2029 -0.1370  0.4514
 8609TIP3    H147242   3.095   4.582  15.530 -1.5786 -0.1353 -0.1869
 8609TIP3    H247243   3.030   4.495  15.635 -0.8366 -0.7764 -0.2500
 8610TIP3   OH247244   0.825   5.908   1.933  0.0726  0.6145  0.1401
 8610TIP3    H147245   0.774   5.864   1.866  1.9765 -0.6709 -0.5412
 8610TIP3    H247246   0.763   5.921   2.006 -1.2922 -0.4992 -0.7765
 8611TIP3   OH247247   1.656   4.575   0.376  0.0916 -0.2973  0.4720
 8611TIP3    H147248   1.570   4.614   0.361 -0.3237 -1.3304  0.0668
 8611TIP3    H247249   1.664   4.568   0.471  0.5437  1.5220  0.6138
 8612TIP3   OH247250   0.577   0.728  17.236  0.2366  0.5254 -0.2628
 8612TIP3    H147251   0.644   0.796  17.229 -0.3656  1.6143  2.8814
 8612TIP3    H247252   0.495   0.775  17.222 -0.1028  0.1087  0.3345
 8613TIP3   OH247253   5.014   3.211   3.922 -0.2897 -0.6306  0.1368
 8613TIP3    H147254   5.016   3.235   4.014  0.5688 -0.7204  0.1571
 8613TIP3    H247255   5.074   3.136   3.915 -1.9998 -2.0389 -0.1297
 8614TIP3   OH247256   0.999   1.635  16.185 -0.3023  0.4748 -0.0110
 8614TIP3    H147257   1.085   1.651  16.223 -0.1869 -1.0343  0.4581
 8614TIP3    H247258   0.940   1.692  16.235  0.0867 -0.2801  1.3842
 8615TIP3   OH247259   0.035   6.722  11.719 -0.2255  0.3789 -0.5833
 8615TIP3    H147260   0.056   6.791  11.782  1.2030  1.0325 -1.7004
 8615TIP3    H247261  -0.019   6.765  11.653 -1.0953 -0.1119 -0.1974
 8616TIP3   OH247262   0.547   4.208  11.597  0.7607  0.0143  0.4581
 8616TIP3    H147263   0.626   4.205  11.651  0.2004  0.9400  1.3562
 8616TIP3    H247264   0.556   4.289  11.546  0.3623  0.1626  0.6189
 8617TIP3   OH247265   4.193   0.779  10.910 -0.8061  0.1603  0.3521
 8617TIP3    H147266   4.260   0.795  10.977 -0.0699 -2.1038  0.2369
 8617TIP3    H247267   4.221   0.833  10.836  0.2039  0.1850  0.7271
 8618TIP3   OH247268   2.900   0.657   5.984 -0.1003  0.1123  0.0632
 8618TIP3    H147269   2.973   0.598   5.968  0.4273  0.8425 -0.3013
 8618TIP3    H247270   2.823   0.610   5.953  0.5398  0.3376 -2.0551
 8619TIP3   OH247271   6.201   1.270  16.723 -0.2495  0.1558 -0.2649
 8619TIP3    H147272   6.258   1.235  16.655  0.8497  2.4362 -0.6089
 8619TIP3    H247273   6.222   1.364  16.727 -1.7682  0.4939  1.7695
 8620TIP3   OH247274   4.055   0.705  15.778 -0.8580 -0.2549  0.3981
 8620TIP3    H147275   4.064   0.665  15.692  2.9052 -2.0890  1.4019
 8620TIP3    H247276   4.071   0.633  15.840  1.7471  1.8245  2.3995
 8621TIP3   OH247277   6.580   5.505   0.047 -0.4339  0.4518  0.1685
 8621TIP3    H147278   6.581   5.523  -0.047 -1.5100  0.9377  0.2433
 8621TIP3    H247279   6.638   5.429   0.056  1.9770  2.0723 -0.4901
 8622TIP3   OH247280   6.501   6.338   1.701  0.2436  0.0971  0.1704
 8622TIP3    H147281   6.452   6.303   1.626 -0.1865 -0.1001  0.5431
 8622TIP3    H247282   6.446   6.320   1.777 -0.7936  3.0107  0.2310
 8623TIP3   OH247283   6.425   5.726   5.391  0.4992  0.6417  0.6999
 8623TIP3    H147284   6.409   5.817   5.418 -0.2194  1.3103 -1.7724
 8623TIP3    H247285   6.441   5.731   5.297  0.5565 -1.8044  0.5137
 8624TIP3   OH247286   5.775   0.583   4.397 -0.2585 -0.8042  0.4791
 8624TIP3    H147287   5.736   0.532   4.468 -0.7942 -1.5439 -0.3377
 8624TIP3    H247288   5.870   0.578   4.413 -0.3832 -0.7647  1.2669
 8625TIP3   OH247289   3.674   5.861   3.404  0.3315  0.2043 -0.2132
 8625TIP3    H147290   3.586   5.874   3.369  1.2586  0.7372 -2.5971
 8625TIP3    H247291   3.693   5.768   3.388  1.3347  0.7686 -2.8564
 8626TIP3   OH247292   2.593   5.624  12.510 -0.0168  0.8415  0.8120
 8626TIP3    H147293   2.608   5.637  12.604 -0.4104  1.8619  0.7450
 8626TIP3    H247294   2.680   5.607  12.474  0.2415  1.2041  1.2530
 8627TIP3   OH247295   4.558   5.542   0.318  0.0953 -0.8158 -0.0306
 8627TIP3    H147296   4.590   5.630   0.301 -2.5034  1.4863  4.9317
 8627TIP3    H247297   4.480   5.533   0.263 -1.0630  1.1432  1.1989
 8628TIP3   OH247298   2.444   0.834  11.678  0.0272  0.3360 -0.0547
 8628TIP3    H147299   2.509   0.888  11.633  0.4167 -0.9113 -1.0596
 8628TIP3    H247300   2.365   0.841  11.624 -0.2630  0.7692  0.4188
 8629TIP3   OH247301   3.319   1.465   2.341 -0.1551  0.3146 -0.3063
 8629TIP3    H147302   3.344   1.510   2.260  1.4673 -0.1773 -0.1210
 8629TIP3    H247303   3.346   1.374   2.328 -2.4382 -0.4441 -0.2738
 8630TIP3   OH247304   6.372   2.179   5.787 -0.7393  0.1976 -0.0252
 8630TIP3    H147305   6.384   2.239   5.862 -0.4378 -0.1528  0.2123
 8630TIP3    H247306   6.445   2.200   5.729 -0.9613  0.4545 -0.2168
 8631TIP3   OH247307   4.912   3.068  13.060  0.1016 -0.0610  0.0597
 8631TIP3    H147308   4.825   3.033  13.078 -0.3808  0.8947 -0.3262
 8631TIP3    H247309   4.940   3.023  12.980 -0.6737  0.6817 -0.6513
 8632TIP3   OH247310   0.559   1.435   2.283  0.1583  0.3303 -0.4631
 8632TIP3    H147311   0.505   1.402   2.355  1.2899  0.3566  0.4201
 8632TIP3    H247312   0.516   1.517   2.258 -1.3308 -0.5901 -1.1224
 8633TIP3   OH247313   5.502   4.226  15.802 -0.4145 -0.5272 -0.2099
 8633TIP3    H147314   5.414   4.249  15.834  0.1736 -0.1363  1.2123
 8633TIP3    H247315   5.492   4.138  15.766 -1.4913 -0.2960 -0.5174
 8634TIP3   OH247316   5.059   3.852   4.864  0.5520  0.6980 -0.2678
 8634TIP3    H147317   5.024   3.900   4.939 -0.3236  1.6893 -1.2730
 8634TIP3    H247318   4.988   3.795   4.837  1.1290 -0.2121  0.0906
 8635TIP3   OH247319   2.061   5.398   0.042  0.0576  0.2966  0.0679
 8635TIP3    H147320   2.119   5.353   0.104 -0.8473  0.8596  1.3627
 8635TIP3    H247321   2.018   5.465   0.095 -2.0732 -0.3479 -0.7438
 8636TIP3   OH247322   3.479   6.207  17.136 -0.2071 -0.7835  0.7481
 8636TIP3    H147323   3.455   6.152  17.062 -1.6429  0.7539 -0.0109
 8636TIP3    H247324   3.555   6.257  17.105  0.1650 -1.2623  0.8878
 8637TIP3   OH247325   4.733   4.920   3.612 -0.4877  0.1604  0.5071
 8637TIP3    H147326   4.696   5.003   3.583  0.3327  1.1321  2.0566
 8637TIP3    H247327   4.815   4.944   3.655 -0.0466 -1.4986  0.6820
 8638TIP3   OH247328   4.370   5.793   0.171 -0.5866 -0.0539  0.6035
 8638TIP3    H147329   4.464   5.776   0.175 -0.2944  1.5847  1.5133
 8638TIP3    H247330   4.330   5.706   0.166  0.9917 -0.7649 -0.6063
 8639TIP3   OH247331   1.954   4.995   4.774 -0.3859 -0.2307 -0.2311
 8639TIP3    H147332   2.046   4.992   4.798 -0.6173 -2.7089  0.5475
 8639TIP3    H247333   1.910   5.028   4.852 -0.3713 -1.2089  0.2020
 8640TIP3   OH247334   4.366   5.040   4.234 -0.0189  0.0365 -0.2514
 8640TIP3    H147335   4.287   5.063   4.184 -0.2516  0.5157  0.3292
 8640TIP3    H247336   4.439   5.065   4.176 -0.2746  1.6414  0.0822
 8641TIP3   OH247337   2.203   0.103   1.411 -0.8841  0.2006 -0.0509
 8641TIP3    H147338   2.282   0.156   1.399 -2.4267  2.9309  0.7285
 8641TIP3    H247339   2.213   0.030   1.350  2.8028 -0.3840  0.9959
 8642TIP3   OH247340   6.079   1.652   0.286 -0.3171 -0.5204 -0.1584
 8642TIP3    H147341   5.984   1.648   0.272 -0.6727 -1.7376  2.1920
 8642TIP3    H247342   6.089   1.664   0.380  1.8924 -1.0705 -0.2702
 8643TIP3   OH247343   3.291   6.693   4.029  0.7181 -0.2841  0.1733
 8643TIP3    H147344   3.275   6.620   4.088 -2.4565  0.6092  0.5601
 8643TIP3    H247345   3.341   6.756   4.081  0.7066 -0.8350  0.8591
 8644TIP3   OH247346   3.641   4.968  13.045 -0.2214 -0.4935  0.5120
 8644TIP3    H147347   3.598   5.011  12.971  0.3195  0.2970  0.6443
 8644TIP3    H247348   3.577   4.973  13.116  0.1783  0.9959  0.8136
 8645TIP3   OH247349   5.247   3.053  14.337  0.2522  0.7027  0.0338
 8645TIP3    H147350   5.281   2.964  14.330 -0.3841  0.3460  1.1219
 8645TIP3    H247351   5.294   3.090  14.411 -0.1209  0.9592  0.1455
 8646TIP3   OH247352   1.846   6.249   1.468  0.5541 -0.5631  0.1765
 8646TIP3    H147353   1.807   6.266   1.553 -0.5427  0.1430 -0.4416
 8646TIP3    H247354   1.881   6.161   1.474 -1.9750 -1.6264  0.4940
 8647TIP3   OH247355   2.888   3.319   6.048  0.5828  0.1272 -0.2282
 8647TIP3    H147356   2.979   3.347   6.053  0.8691 -0.9022  0.7234
 8647TIP3    H247357   2.866   3.292   6.137 -0.4280 -0.3026 -0.5904
 8648TIP3   OH247358   6.292   5.314  12.416  0.1766  0.5115 -0.7062
 8648TIP3    H147359   6.323   5.381  12.476  0.8261  0.0298 -0.4870
 8648TIP3    H247360   6.267   5.241  12.473 -0.1397  0.4212 -0.9602
 8649TIP3   OH247361   4.840   0.773  14.073 -0.1486  0.5967 -0.1232
 8649TIP3    H147362   4.879   0.720  14.142 -2.8739 -0.1602  0.9511
 8649TIP3    H247363   4.854   0.863  14.100  1.2648  0.3689 -0.0542
 8650TIP3   OH247364   0.361   0.276   0.325 -0.5151 -0.1098 -0.2616
 8650TIP3    H147365   0.439   0.329   0.310 -0.4834  0.2746  1.1716
 8650TIP3    H247366   0.291   0.339   0.338 -0.7215 -0.4319  0.1936
 8651TIP3   OH247367   6.439   1.079  15.842 -0.2644 -0.7588  0.4535
 8651TIP3    H147368   6.485   1.161  15.823 -2.1037  0.8539  2.3636
 8651TIP3    H247369   6.470   1.054  15.929 -0.8793 -1.2066  0.5512
 8652TIP3   OH247370   3.395   2.065  12.917 -0.1307  0.2180 -0.3071
 8652TIP3    H147371   3.323   2.006  12.893 -0.6303  1.0161 -0.8049
 8652TIP3    H247372   3.378   2.087  13.009 -0.3663  0.1725 -0.3376
 8653TIP3   OH247373   6.752   6.001   3.166 -0.2737  0.5195  0.1118
 8653TIP3    H147374   6.794   5.941   3.104 -0.2034  1.1543 -0.4651
 8653TIP3    H247375   6.719   6.072   3.112 -1.9953  0.1118  0.5612
 8654TIP3   OH247376   5.286   3.096  14.608  0.0847  0.1531  0.4107
 8654TIP3    H147377   5.233   3.134  14.678 -0.3789 -0.7941  0.5912
 8654TIP3    H247378   5.376   3.101  14.640 -0.0300  0.5928  0.6641
 8655TIP3   OH247379   2.367   5.658  11.271 -0.5957 -0.1366 -0.0656
 8655TIP3    H147380   2.318   5.580  11.298 -0.1305 -0.5274 -0.3334
 8655TIP3    H247381   2.399   5.637  11.183  2.0466 -0.8665  0.9979
 8656TIP3   OH247382   6.046   5.555  16.747 -0.3194 -0.2607 -0.1922
 8656TIP3    H147383   6.066   5.614  16.820  0.9916 -2.7961  1.6590
 8656TIP3    H247384   5.953   5.569  16.730 -0.5488  0.8202  1.6294
 8657TIP3   OH247385   2.567   6.346   3.412  0.3516  0.5433 -0.2304
 8657TIP3    H147386   2.554   6.438   3.437  0.5202  0.3686  0.5258
 8657TIP3    H247387   2.492   6.300   3.450 -0.1530  0.4724 -1.2716
 8658TIP3   OH247388   6.461   5.381   0.757  0.4461 -0.3224 -0.1095
 8658TIP3    H147389   6.389   5.441   0.738  0.6428 -0.1956 -0.4670
 8658TIP3    H247390   6.426   5.294   0.737 -0.1392 -0.4323  1.2699
 8659TIP3   OH247391   0.801   4.863   5.583  0.1909  0.3192  0.2601
 8659TIP3    H147392   0.826   4.784   5.631 -1.2981  0.0737  0.7060
 8659TIP3    H247393   0.761   4.830   5.502  0.5127  0.6520 -0.0357
 8660TIP3   OH247394   6.574   2.867   1.128 -0.5645  0.3296  0.2214
 8660TIP3    H147395   6.639   2.831   1.067  0.8114  2.3459  0.4024
 8660TIP3    H247396   6.615   2.859   1.214 -0.2588  2.0765  0.2804
 8661TIP3   OH247397   6.130   0.788  12.993  0.5552 -0.1930  0.1882
 8661TIP3    H147398   6.187   0.718  13.025  1.0568 -0.4962 -1.2522
 8661TIP3    H247399   6.087   0.823  13.071  0.7292 -1.7204  1.0036
 8662TIP3   OH247400   6.745   0.362  10.903 -0.0790 -0.4112  1.0976
 8662TIP3    H147401   6.676   0.295  10.904  0.7903 -1.3764 -0.3701
 8662TIP3    H247402   6.814   0.325  10.959  0.9455 -1.4153 -0.7354
 8663TIP3   OH247403   4.922   3.773   5.099  0.4801  0.3513  0.3369
 8663TIP3    H147404   4.845   3.826   5.118  1.3256  1.3172  1.1382
 8663TIP3    H247405   4.905   3.737   5.012 -0.3985  1.3932  0.0589
 8664TIP3   OH247406   0.645   4.431  13.503 -0.1623 -0.0379 -0.1304
 8664TIP3    H147407   0.665   4.359  13.564  1.6687 -1.1513 -1.9297
 8664TIP3    H247408   0.560   4.407  13.465 -0.8637  0.1868  1.1974
 8665TIP3   OH247409   0.417   2.523   3.576 -1.3303  0.2808  0.2111
 8665TIP3    H147410   0.341   2.484   3.620 -1.1581  1.1711  1.3732
 8665TIP3    H247411   0.451   2.454   3.520 -2.1772 -0.5881  0.7358
 8666TIP3   OH247412   3.508   6.355  15.144 -0.2457  0.2316 -0.0411
 8666TIP3    H147413   3.420   6.353  15.105 -1.1590 -0.6780  1.8699
 8666TIP3    H247414   3.556   6.287  15.097 -0.4109  1.0122 -1.3880
 8667TIP3   OH247415   2.809   0.789  12.758 -0.0273  0.0217 -0.1008
 8667TIP3    H147416   2.735   0.798  12.818  0.2143 -2.5893  0.7258
 8667TIP3    H247417   2.771   0.806  12.671 -0.8937  1.6228  0.5669
 8668TIP3   OH247418   1.587   1.545   6.165 -0.3316 -0.0217  0.2411
 8668TIP3    H147419   1.517   1.527   6.102  0.4808  0.6917 -0.9066
 8668TIP3    H247420   1.548   1.604   6.229 -0.6313  0.8827 -0.7431
 8669TIP3   OH247421   1.817   0.949  14.005  0.2975 -0.7163 -0.4593
 8669TIP3    H147422   1.838   0.875  14.062 -0.3775 -0.8493 -0.3774
 8669TIP3    H247423   1.877   0.939  13.931 -0.5330 -1.9919 -0.9911
 8670TIP3   OH247424   3.989   2.591  15.148  0.0771 -0.2721 -0.2594
 8670TIP3    H147425   3.902   2.570  15.182  0.3283 -3.0162 -1.0531
 8670TIP3    H247426   4.037   2.625  15.223 -0.9177 -1.2428  0.8517
 8671TIP3   OH247427   6.371   0.924  14.662 -0.0922 -0.4129 -0.4931
 8671TIP3    H147428   6.314   0.916  14.739  0.0658 -0.5428 -0.3887
 8671TIP3    H247429   6.314   0.961  14.594  0.2037  1.3453  0.1713
 8672TIP3   OH247430   5.531   4.360   4.274 -0.4532 -0.1488  0.8413
 8672TIP3    H147431   5.595   4.335   4.208  1.4768 -1.0297  2.9163
 8672TIP3    H247432   5.457   4.394   4.224  0.9871 -0.5386 -1.7246
 8673TIP3   OH247433   2.449   4.570   0.206  0.3674  0.1906 -0.4441
 8673TIP3    H147434   2.388   4.627   0.158  2.3436  1.8790 -1.0837
 8673TIP3    H247435   2.418   4.573   0.296 -0.1658  1.4857 -0.6474
 8674TIP3   OH247436   6.293   4.023  14.159 -0.2875 -0.2757  0.2851
 8674TIP3    H147437   6.203   4.053  14.149 -1.2051 -2.0510  2.3800
 8674TIP3    H247438   6.318   4.050  14.248  0.8739 -0.7204  0.1135
 8675TIP3   OH247439   6.296   5.141   0.691  0.4274 -0.1626  0.1348
 8675TIP3    H147440   6.228   5.130   0.757 -1.0332  0.7325 -1.1567
 8675TIP3    H247441   6.286   5.065   0.634  0.7329 -0.1941  0.1200
 8676TIP3   OH247442   3.441   2.261   4.504  0.1082  0.1489 -0.3019
 8676TIP3    H147443   3.377   2.317   4.460 -0.1337  0.5975  0.6071
 8676TIP3    H247444   3.522   2.275   4.455 -0.6750 -1.1820 -2.0844
 8677TIP3   OH247445   2.451   5.250  12.198 -0.4069  0.0971 -0.0100
 8677TIP3    H147446   2.469   5.179  12.259  1.4258  1.1855  0.8128
 8677TIP3    H247447   2.403   5.208  12.126 -0.4381 -1.7119  1.0063
 8678TIP3   OH247448   3.611   0.493  15.743  0.4989 -0.2221  0.0715
 8678TIP3    H147449   3.551   0.419  15.749  0.3041 -0.0644  0.0533
 8678TIP3    H247450   3.609   0.533  15.830  1.3171 -0.7916  0.3713
 8679TIP3   OH247451   2.167   5.513  16.543  0.1045  0.3081 -0.3876
 8679TIP3    H147452   2.126   5.580  16.597  1.9053 -0.9538  2.8493
 8679TIP3    H247453   2.257   5.544  16.530  0.4523 -0.6618 -0.3671
 8680TIP3   OH247454   0.918   1.283   3.132 -0.7088 -0.0862 -0.3592
 8680TIP3    H147455   0.823   1.274   3.127 -0.8991  0.8738  0.8631
 8680TIP3    H247456   0.941   1.338   3.058 -0.9760 -1.0090 -1.1529
 8681TIP3   OH247457   0.929   1.926   5.085 -0.4244 -0.1868 -0.7747
 8681TIP3    H147458   0.951   2.000   5.141 -0.4792 -0.3797 -0.4948
 8681TIP3    H247459   1.006   1.916   5.028  0.6575 -1.4229  0.8069
 8682TIP3   OH247460   3.382   4.212  13.729 -0.4389  0.1597 -0.4033
 8682TIP3    H147461   3.399   4.230  13.636  0.4798 -0.5462 -0.3941
 8682TIP3    H247462   3.426   4.284  13.775  1.5523 -0.9599 -0.4351
 8683TIP3   OH247463   0.460   1.050  17.145  0.2106  0.8327 -0.7720
 8683TIP3    H147464   0.533   1.081  17.198 -0.1889 -0.3211  0.5302
 8683TIP3    H247465   0.501   1.013  17.066  0.8926  1.6675 -0.8235
 8684TIP3   OH247466   3.073   5.333   4.779  0.4422 -0.1652  0.1960
 8684TIP3    H147467   3.116   5.384   4.847  0.0331 -1.2640  1.3171
 8684TIP3    H247468   2.990   5.378   4.764  0.6023  0.1726  0.3024
 8685TIP3   OH247469   0.237   4.704  17.115 -0.0931 -0.3205 -0.2060
 8685TIP3    H147470   0.205   4.762  17.046 -0.8291  0.0492  0.4303
 8685TIP3    H247471   0.240   4.618  17.073  0.7952  0.1222 -1.0916
 8686TIP3   OH247472   5.820   5.505  10.577 -0.0267 -0.0754 -0.2225
 8686TIP3    H147473   5.760   5.449  10.529 -1.5801  1.6228 -0.3564
 8686TIP3    H247474   5.825   5.467  10.664 -1.3965 -0.1859 -0.1797
 8687TIP3   OH247475   5.372   5.793   2.195  0.0356  0.3048  0.3699
 8687TIP3    H147476   5.372   5.701   2.168 -0.6157  0.1080  0.9965
 8687TIP3    H247477   5.367   5.790   2.291  1.6299  0.9894  0.4924
 8688TIP3   OH247478   5.737   2.342   0.165 -0.0035  0.7359  0.7045
 8688TIP3    H147479   5.717   2.291   0.086 -2.4641  0.5968  1.3393
 8688TIP3    H247480   5.736   2.433   0.135  1.1307  0.5950  0.2002
 8689TIP3   OH247481   0.775   5.319   0.208 -0.4600  0.0020  0.4494
 8689TIP3    H147482   0.770   5.243   0.150 -2.7525 -0.0975  0.6710
 8689TIP3    H247483   0.720   5.295   0.283  0.8818  0.8807  1.7703
 8690TIP3   OH247484   4.987   1.649  16.230 -0.3039 -0.2457 -0.8380
 8690TIP3    H147485   5.079   1.623  16.238 -0.1464  0.5075 -0.0227
 8690TIP3    H247486   4.979   1.725  16.287 -1.2621  0.1590 -1.5004
 8691TIP3   OH247487   2.799   5.370   3.623 -0.0424 -0.6509  0.2343
 8691TIP3    H147488   2.765   5.423   3.551 -0.2841 -1.0068  0.0830
 8691TIP3    H247489   2.887   5.404   3.639 -0.1102 -0.3566 -0.0131
 8692TIP3   OH247490   5.586   4.083   4.749  0.2792 -0.8106  0.1428
 8692TIP3    H147491   5.541   4.111   4.670  1.8426 -1.3990 -1.0178
 8692TIP3    H247492   5.609   3.992   4.732  0.0994 -1.1303  1.5436
 8693TIP3   OH247493   0.677   6.009  12.051  0.2094 -0.3854 -0.1191
 8693TIP3    H147494   0.677   5.925  12.097 -0.7052 -0.4178 -0.1693
 8693TIP3    H247495   0.706   6.073  12.117 -1.4483 -0.3690  0.6443
 8694TIP3   OH247496   0.541   5.370   4.170  0.2508  0.0022 -0.0918
 8694TIP3    H147497   0.584   5.394   4.253 -1.6724 -1.0083  1.2945
 8694TIP3    H247498   0.540   5.451   4.120  1.1479  0.7478  1.0211
 8695TIP3   OH247499   4.665   1.902   4.508 -0.4176  0.5001 -0.0152
 8695TIP3    H147500   4.574   1.924   4.490 -0.9707 -0.0245  1.9200
 8695TIP3    H247501   4.661   1.829   4.569  1.3273  0.0455 -0.3749
 8696TIP3   OH247502   1.558   6.236   2.543 -0.5897  0.3720  0.0297
 8696TIP3    H147503   1.546   6.327   2.517 -2.0077 -0.1855 -1.5477
 8696TIP3    H247504   1.585   6.192   2.462 -0.1985 -0.6555  0.6995
 8697TIP3   OH247505   4.481   4.347   1.637 -0.2691  0.1464 -0.4163
 8697TIP3    H147506   4.565   4.324   1.677 -1.5923 -1.0355  1.8936
 8697TIP3    H247507   4.470   4.440   1.654  0.1449  0.0940  0.1620
 8698TIP3   OH247508   2.039   1.923  16.866  0.0979 -0.0054  0.4648
 8698TIP3    H147509   2.079   1.841  16.897  1.3932  0.4152 -0.0070
 8698TIP3    H247510   2.024   1.908  16.773 -3.1410 -1.0126  1.0300
 8699TIP3   OH247511   1.394   0.443  15.477 -0.0745  0.3884 -0.0742
 8699TIP3    H147512   1.319   0.390  15.504  0.6446 -1.6190 -1.6773
 8699TIP3    H247513   1.459   0.378  15.447  1.9870  2.0777  0.4957
 8700TIP3   OH247514   5.516   5.435  16.469  0.4117 -0.1206  0.1848
 8700TIP3    H147515   5.531   5.350  16.429 -1.6824 -0.7161  0.5181
 8700TIP3    H247516   5.589   5.489  16.440  2.5246 -2.3535  1.0020
 8701TIP3   OH247517   4.131   0.344  16.734  0.1605  0.2255  0.3157
 8701TIP3    H147518   4.194   0.276  16.711 -1.0684 -1.3005  1.2049
 8701TIP3    H247519   4.175   0.426  16.714  1.7025 -0.8231 -0.8191
 8702TIP3   OH247520   4.546   1.924  14.330  0.1077 -0.8713 -0.3271
 8702TIP3    H147521   4.509   1.836  14.319 -0.3966 -0.5570 -1.2596
 8702TIP3    H247522   4.629   1.921  14.281 -0.2626 -0.6267 -0.9903
 8703TIP3   OH247523   4.906   0.372  16.826 -0.4632 -0.0666  0.0315
 8703TIP3    H147524   4.917   0.455  16.781 -0.5960 -0.6102 -1.0421
 8703TIP3    H247525   4.992   0.354  16.864 -0.4353  0.5572  0.2593
 8704TIP3   OH247526   5.804   0.646   4.726 -0.2827 -0.0642 -0.0073
 8704TIP3    H147527   5.849   0.702   4.661 -0.5459 -0.7099 -0.7606
 8704TIP3    H247528   5.873   0.618   4.785  0.2646 -0.7865 -0.9680
 8705TIP3   OH247529   2.664   5.753   0.079 -0.0240  0.2890 -0.0620
 8705TIP3    H147530   2.649   5.758   0.174  1.3236 -0.1056  0.1853
 8705TIP3    H247531   2.714   5.673   0.067 -0.1191  0.3812 -1.1111
 8706TIP3   OH247532   4.248   2.733   3.757 -0.0137  0.3342  0.1633
 8706TIP3    H147533   4.265   2.715   3.850  0.5566 -2.8330 -0.4658
 8706TIP3    H247534   4.321   2.693   3.711 -0.8184  0.9581 -1.7416
 8707TIP3   OH247535   2.967   1.873  14.681  0.1689  0.2383 -0.1445
 8707TIP3    H147536   3.013   1.951  14.710  1.3209  0.1839 -1.7305
 8707TIP3    H247537   2.900   1.859  14.748  0.5570  2.0112  0.6751
 8708TIP3   OH247538   4.227   2.512   0.845  0.7770  0.6018  0.1508
 8708TIP3    H147539   4.172   2.559   0.782  1.2424  0.1719 -0.5871
 8708TIP3    H247540   4.292   2.467   0.792  0.9555 -0.0710  0.9111
 8709TIP3   OH247541   0.137   1.639  11.499 -0.0269 -0.4251  0.0903
 8709TIP3    H147542   0.072   1.643  11.429 -0.1833 -1.0371  0.1925
 8709TIP3    H247543   0.128   1.723  11.544 -0.4571 -0.3336 -0.1534
 8710TIP3   OH247544   6.458   2.536   1.392  1.1127 -0.0800  0.1608
 8710TIP3    H147545   6.383   2.561   1.339  1.1544 -0.5723 -0.1436
 8710TIP3    H247546   6.507   2.617   1.405 -0.6552  0.7664  2.3387
 8711TIP3   OH247547   2.429   5.234  13.191  0.1050  0.1807  0.2263
 8711TIP3    H147548   2.334   5.226  13.191  0.2966 -3.0938 -0.0657
 8711TIP3    H247549   2.454   5.230  13.098  0.5682  0.7776  0.3158
 8712TIP3   OH247550   0.335   0.009  15.903 -0.2231  0.1994  0.7034
 8712TIP3    H147551   0.312  -0.023  15.816 -2.6446 -0.7401  1.5926
 8712TIP3    H247552   0.421  -0.030  15.921  1.2773  1.9565 -1.9269
 8713TIP3   OH247553   4.142   3.143  16.660 -0.4209  0.3687  0.0858
 8713TIP3    H147554   4.102   3.141  16.573 -2.0368 -0.1701  0.7990
 8713TIP3    H247555   4.067   3.150  16.720  0.7058  1.8623  1.3987
 8714TIP3   OH247556   2.894   5.366  11.295  0.1325 -0.6234  0.2575
 8714TIP3    H147557   2.973   5.412  11.321 -0.0075 -1.8067  3.1696
 8714TIP3    H247558   2.864   5.412  11.216  1.6023  2.2922  1.2595
 8715TIP3   OH247559   1.645   2.122   4.176  0.0606 -0.2982  0.3469
 8715TIP3    H147560   1.593   2.202   4.180 -0.8940 -0.8746  0.0005
 8715TIP3    H247561   1.736   2.151   4.172 -0.2649  0.7505  0.3947
 8716TIP3   OH247562   1.817   6.398   0.079  0.2317  0.4330  0.7520
 8716TIP3    H147563   1.803   6.491   0.064  0.9328  0.7973  2.1633
 8716TIP3    H247564   1.811   6.387   0.174  0.6117 -0.8731  0.6534
 8717TIP3   OH247565   1.100   6.298  14.935 -0.1881 -0.2221  0.0938
 8717TIP3    H147566   1.157   6.318  14.861  0.5709  1.1252  0.9924
 8717TIP3    H247567   1.108   6.203  14.947  1.0373 -0.2109 -0.4836
 8718TIP3   OH247568   5.624   5.856  15.607 -0.0595  0.2752 -0.0369
 8718TIP3    H147569   5.590   5.938  15.572  0.5654  0.5044 -0.1246
 8718TIP3    H247570   5.572   5.788  15.565 -1.8693  0.6560  1.4234
 8719TIP3   OH247571   6.164   5.273  11.558 -0.1877 -0.0286  0.0675
 8719TIP3    H147572   6.245   5.223  11.571 -0.8542 -0.8288  1.3754
 8719TIP3    H247573   6.094   5.210  11.572 -1.0545  0.9399  0.2411
 8720TIP3   OH247574   6.458   2.112   5.252  0.3294  0.5079  0.0487
 8720TIP3    H147575   6.521   2.074   5.315  0.3263 -0.8780 -0.7424
 8720TIP3    H247576   6.389   2.149   5.307  0.6565 -0.0856  0.8886
 8721TIP3   OH247577   1.472   4.883   1.684  0.3800  0.8864  0.3143
 8721TIP3    H147578   1.473   4.888   1.780  0.3361  1.2192  0.2999
 8721TIP3    H247579   1.561   4.855   1.662  0.5700  1.3732  0.4305
 8722TIP3   OH247580   5.670   5.985   0.680 -0.2535 -0.2461 -0.0608
 8722TIP3    H147581   5.684   6.012   0.589  2.0770  1.8690  0.7804
 8722TIP3    H247582   5.674   5.890   0.678  2.2006 -0.2156 -1.9269
 8723TIP3   OH247583   0.635   3.669   5.900  0.2634 -0.3531  0.2572
 8723TIP3    H147584   0.645   3.729   5.974  0.0201 -0.7127  0.5878
 8723TIP3    H247585   0.712   3.684   5.846 -0.1015  0.6919  0.0145
 8724TIP3   OH247586   3.091   0.510   5.674 -0.0081  0.1721 -0.0672
 8724TIP3    H147587   3.105   0.426   5.630  0.7123 -0.2718  0.9568
 8724TIP3    H247588   3.085   0.488   5.766  1.3001  1.3459  0.3403
 8725TIP3   OH247589   6.568   4.927  15.245 -0.0982  0.1324  0.0254
 8725TIP3    H147590   6.631   4.856  15.240 -0.4975 -0.2577  0.3341
 8725TIP3    H247591   6.533   4.935  15.157  1.4306  1.3546 -0.5147
 8726TIP3   OH247592   4.782   3.925  16.742  0.1326  0.0598  0.1626
 8726TIP3    H147593   4.865   3.967  16.721  0.4026 -0.4281  0.2251
 8726TIP3    H247594   4.807   3.836  16.769 -0.3364  0.1557  0.9593
 8727TIP3   OH247595   1.878   0.698  14.452  0.4674 -0.2653 -0.6506
 8727TIP3    H147596   1.813   0.636  14.419  1.5327 -1.2507 -0.9847
 8727TIP3    H247597   1.858   0.781  14.408  1.6090 -1.4396 -3.5936
 8728TIP3   OH247598   4.626   6.688  14.327  0.0411 -0.6462 -0.3763
 8728TIP3    H147599   4.627   6.662  14.235 -0.1480 -1.1153 -0.2493
 8728TIP3    H247600   4.581   6.616  14.372 -1.6981  0.4802 -0.1979
 8729TIP3   OH247601   4.850   4.963   6.109 -0.3169  0.1176  0.1049
 8729TIP3    H147602   4.811   5.000   6.029  2.8732  2.0024 -0.7597
 8729TIP3    H247603   4.869   4.872   6.087 -0.2516  0.3889 -1.0054
 8730TIP3   OH247604   1.612   4.504  12.679  0.1040 -0.4634 -0.1823
 8730TIP3    H147605   1.602   4.507  12.584  0.7198  2.0716 -0.2383
 8730TIP3    H247606   1.528   4.469  12.710 -1.4191  1.6842 -1.5489
 8731TIP3   OH247607   1.614   6.232  14.002 -0.3812  0.6653  0.1189
 8731TIP3    H147608   1.521   6.211  13.995 -0.4580  0.7639  0.8295
 8731TIP3    H247609   1.646   6.231  13.911 -0.6347 -1.2677  0.0274
 8732TIP3   OH247610   4.901   5.105  16.947 -0.0474 -0.4308 -0.1139
 8732TIP3    H147611   4.826   5.138  16.899  1.4549  0.8574 -1.6957
 8732TIP3    H247612   4.877   5.016  16.973 -1.7062 -0.4010 -1.4474
 8733TIP3   OH247613   0.000   2.350  15.772  0.7952 -0.4636 -0.0452
 8733TIP3    H147614  -0.030   2.418  15.712 -1.3516 -1.5632 -0.3289
 8733TIP3    H247615   0.034   2.398  15.848  0.6862  0.9080 -0.8233
 8734TIP3   OH247616   4.412   4.190   0.906 -0.2340  0.0495  0.3547
 8734TIP3    H147617   4.344   4.151   0.851 -0.1540  0.5292 -0.0941
 8734TIP3    H247618   4.365   4.225   0.982 -0.5783  0.8641 -0.2103
 8735TIP3   OH247619   6.117   4.416  16.627  0.2168  0.3948  0.2013
 8735TIP3    H147620   6.038   4.435  16.678 -1.4806 -0.4489 -1.9836
 8735TIP3    H247621   6.138   4.325  16.649 -0.3105  0.1411 -0.3363
 8736TIP3   OH247622   5.797   0.351  14.429 -0.1545  0.2243 -0.0099
 8736TIP3    H147623   5.874   0.403  14.403 -0.1731  1.8407  2.7813
 8736TIP3    H247624   5.800   0.351  14.524 -3.0183 -0.6357  0.1464
 8737TIP3   OH247625   5.905   4.332  17.151 -0.1317 -0.0269 -0.4665
 8737TIP3    H147626   5.889   4.253  17.202  1.7495  0.5800  1.1672
 8737TIP3    H247627   5.818   4.358  17.119 -1.1016 -1.4602  0.8837
 8738TIP3   OH247628   4.408   5.604  13.597 -0.8030  0.2994  0.0178
 8738TIP3    H147629   4.452   5.523  13.624 -1.7473 -0.5528 -0.8999
 8738TIP3    H247630   4.466   5.674  13.626 -0.0443 -0.7016  0.9843
 8739TIP3   OH247631   2.711   1.645   3.280  0.2396 -0.0768 -0.9951
 8739TIP3    H147632   2.675   1.608   3.360 -1.2682 -0.0958 -1.6378
 8739TIP3    H247633   2.782   1.586   3.255 -0.1565 -0.8186 -0.3889
 8740TIP3   OH247634   4.360   1.608  13.310 -0.2894  0.0763  0.1154
 8740TIP3    H147635   4.419   1.649  13.373  0.3799 -0.5907 -0.0658
 8740TIP3    H247636   4.282   1.587  13.362  0.9294 -2.0952  1.2296
 8741TIP3   OH247637   6.284   1.938   5.104 -0.5479 -0.0167  0.5259
 8741TIP3    H147638   6.226   1.902   5.170  2.0305 -0.9121  2.4545
 8741TIP3    H247639   6.330   2.010   5.148  1.8383 -1.1743  0.0616
 8742TIP3   OH247640   0.937   4.866  15.667 -0.5408  0.4960 -0.2042
 8742TIP3    H147641   1.028   4.836  15.661 -1.7878 -3.5645 -2.1129
 8742TIP3    H247642   0.908   4.836  15.753  0.1315  3.0143  1.0122
 8743TIP3   OH247643   3.866   6.654  13.208 -0.1177  0.0840  0.0597
 8743TIP3    H147644   3.914   6.676  13.289 -0.4058 -1.1853  0.6003
 8743TIP3    H247645   3.799   6.592  13.236 -0.6063  0.0776 -1.0771
 8744TIP3   OH247646   4.345   4.869  12.562  0.4972  0.5249  0.9784
 8744TIP3    H147647   4.275   4.868  12.628  0.3909  0.4881  0.8662
 8744TIP3    H247648   4.379   4.958  12.564 -0.2032  0.8125  0.3529
 8745TIP3   OH247649   5.926   0.547  12.846 -0.2191  0.0710 -0.2576
 8745TIP3    H147650   5.948   0.629  12.890 -1.4386 -0.7685  2.1501
 8745TIP3    H247651   5.848   0.567  12.795 -0.1017  0.5664 -0.2471
 8746TIP3   OH247652   2.039   3.975  15.699 -0.6907  0.5716 -0.4548
 8746TIP3    H147653   2.063   3.886  15.672 -0.5898  0.5077 -0.1599
 8746TIP3    H247654   2.110   4.030  15.668 -1.3937  0.7461 -1.8276
 8747TIP3   OH247655   2.476   6.051   5.161 -0.4902 -0.8694  0.1825
 8747TIP3    H147656   2.468   6.120   5.095  0.5356  0.6852  1.5959
 8747TIP3    H247657   2.533   5.986   5.121 -0.3141 -0.2126 -0.6636
 8748TIP3   OH247658   1.038   1.242   1.169 -0.0419  0.5737  0.0748
 8748TIP3    H147659   0.960   1.270   1.121 -1.5059 -1.4110  1.0970
 8748TIP3    H247660   1.011   1.245   1.261 -0.1897 -3.2346  0.3269
 8749TIP3   OH247661   0.219   1.080  11.158  0.4747 -0.1631 -0.6431
 8749TIP3    H147662   0.181   1.088  11.070  0.4841 -0.9588 -0.7272
 8749TIP3    H247663   0.214   0.986  11.178  0.0749  0.0657  0.3845
 8750TIP3   OH247664   3.799   2.844   3.129 -0.1538  0.1167 -0.1937
 8750TIP3    H147665   3.778   2.929   3.167  1.9453  0.7465 -0.3107
 8750TIP3    H247666   3.759   2.780   3.188 -0.9503  1.1432  0.4167
 8751TIP3   OH247667   3.229   4.796  12.993  0.3451  0.4083 -0.4682
 8751TIP3    H147668   3.181   4.716  13.013  1.2443 -0.5117 -1.8680
 8751TIP3    H247669   3.192   4.827  12.911  0.6786  0.8847 -0.4454
 8752TIP3   OH247670   2.014   6.150  15.564  0.0037  0.5922 -0.2512
 8752TIP3    H147671   1.946   6.129  15.500 -2.1399  1.5399  1.5864
 8752TIP3    H247672   1.974   6.132  15.649  2.3961  0.3494  0.9219
 8753TIP3   OH247673   6.628   2.264  15.168  0.1206 -0.0091  0.2541
 8753TIP3    H147674   6.704   2.239  15.116  0.3329  1.0641  0.0145
 8753TIP3    H247675   6.555   2.261  15.106  0.6038  2.7624 -0.6037
 8754TIP3   OH247676   0.842   4.679  12.974 -0.5267  0.5739  0.4653
 8754TIP3    H147677   0.897   4.756  12.985 -0.7315  0.6044  1.3468
 8754TIP3    H247678   0.902   4.605  12.974 -0.2307  0.7681 -1.3307
 8755TIP3   OH247679   6.369   1.448   2.724  0.0661 -0.4554 -0.5221
 8755TIP3    H147680   6.453   1.470   2.684  1.0695 -1.6269  0.8296
 8755TIP3    H247681   6.389   1.438   2.818 -1.2925 -2.0343 -0.3574
 8756TIP3   OH247682   6.333   1.851   2.990 -0.4001 -0.6724 -0.3845
 8756TIP3    H147683   6.328   1.906   3.069  1.1529 -0.6728 -0.2502
 8756TIP3    H247684   6.251   1.868   2.944 -1.1753 -0.3761  1.0346
 8757TIP3   OH247685   5.119   4.927  12.093 -1.0116 -0.0461  0.5169
 8757TIP3    H147686   5.140   5.008  12.140  0.5149  0.8860 -1.6167
 8757TIP3    H247687   5.180   4.862  12.127  1.2152  1.0383 -1.1847
 8758TIP3   OH247688   5.857   5.976   2.881 -0.0856  0.1065  0.1776
 8758TIP3    H147689   5.918   5.905   2.861 -0.6040 -0.4195  0.4411
 8758TIP3    H247690   5.787   5.935   2.932  1.1107  1.3360  3.0449
 8759TIP3   OH247691   1.326   1.492  11.347  0.0341 -0.2817  0.3706
 8759TIP3    H147692   1.308   1.408  11.306 -0.0028 -0.9055  1.6109
 8759TIP3    H247693   1.276   1.490  11.429 -0.1000  1.0180  0.3495
 8760TIP3   OH247694   4.684   2.095   6.337  0.3030  0.2024  0.4821
 8760TIP3    H147695   4.683   2.179   6.291 -2.2868 -0.0232 -0.0176
 8760TIP3    H247696   4.714   2.032   6.271  0.3033  0.4512  0.2409
 8761TIP3   OH247697   5.423   2.031  17.262 -0.2798  0.1321 -0.3886
 8761TIP3    H147698   5.358   2.027  17.191 -0.5764 -0.3734 -0.0862
 8761TIP3    H247699   5.487   2.096  17.231 -0.2911 -0.2377 -1.2192
 8762TIP3   OH247700   6.457   1.396   3.510 -0.2221  0.2278 -0.2462
 8762TIP3    H147701   6.546   1.364   3.529 -1.0903 -1.9077  0.5170
 8762TIP3    H247702   6.401   1.346   3.569 -1.8840  2.2031 -0.0499
 8763TIP3   OH247703   0.017   0.585  11.713 -0.1224 -0.3944  0.0559
 8763TIP3    H147704  -0.021   0.672  11.724 -1.5370 -0.9484 -0.2947
 8763TIP3    H247705   0.050   0.562  11.800 -0.1446  0.3011  0.2548
 8764TIP3   OH247706   0.390   4.341  11.986 -0.0264  0.0980  0.0756
 8764TIP3    H147707   0.328   4.269  11.968 -0.9594  0.8423  0.2277
 8764TIP3    H247708   0.421   4.367  11.899  2.3939 -2.2090  0.1327
 8765TIP3   OH247709   2.704   2.071   4.739  0.4160  0.0509 -0.2021
 8765TIP3    H147710   2.639   2.117   4.687 -2.1857 -3.2452 -0.1602
 8765TIP3    H247711   2.668   2.070   4.828  0.8285 -1.2441 -0.0241
 8766TIP3   OH247712   5.487   2.869  16.772 -0.4083  0.7322  0.6205
 8766TIP3    H147713   5.463   2.783  16.736  1.0016  0.8234 -0.6324
 8766TIP3    H247714   5.563   2.851  16.827 -1.6468  0.8335  2.4753
 8767TIP3   OH247715   4.994   0.346  12.346 -0.1514  0.4147 -0.2907
 8767TIP3    H147716   5.059   0.373  12.282  1.8432  0.2946  1.5655
 8767TIP3    H247717   4.997   0.250  12.345  1.0017  0.4009  0.9565
 8768TIP3   OH247718   4.633   4.563   4.712 -0.4187  0.3562  0.2167
 8768TIP3    H147719   4.672   4.583   4.626 -0.0695 -1.6703 -0.1360
 8768TIP3    H247720   4.578   4.639   4.731  0.3114  1.3214 -1.3061
 8769TIP3   OH247721   0.651   1.371   6.296 -1.0827 -0.0124 -0.2154
 8769TIP3    H147722   0.725   1.311   6.289  0.3558  1.7448 -0.7934
 8769TIP3    H247723   0.639   1.383   6.390 -0.9254 -0.6242 -0.1097
 8770TIP3   OH247724   0.467   5.842   1.883  0.4275  0.1047 -0.2697
 8770TIP3    H147725   0.519   5.919   1.859  0.7025  0.2045  0.6206
 8770TIP3    H247726   0.429   5.864   1.968  0.1935 -0.5967 -0.1869
 8771TIP3   OH247727   4.596   1.904  13.792 -0.3256 -0.4455  0.6334
 8771TIP3    H147728   4.564   1.843  13.858 -0.9439 -0.5368  0.2539
 8771TIP3    H247729   4.531   1.974  13.790 -0.6218 -0.7291 -0.2832
 8772TIP3   OH247730   2.705   5.113  11.367  0.0283 -0.3921  0.4579
 8772TIP3    H147731   2.624   5.087  11.325 -0.8899  1.8319  0.7187
 8772TIP3    H247732   2.699   5.208  11.374  3.6528  0.1759 -1.6058
 8773TIP3   OH247733   4.056   2.237   2.242 -0.4876 -0.3339  1.1564
 8773TIP3    H147734   4.099   2.182   2.177 -1.4792  1.0498 -0.7635
 8773TIP3    H247735   4.096   2.212   2.325 -0.4934 -3.5112  0.3317
 8774TIP3   OH247736   0.606   2.224  12.588  0.1376 -0.5114  0.4855
 8774TIP3    H147737   0.605   2.261  12.676  1.6077  0.5811  0.0845
 8774TIP3    H247738   0.695   2.242  12.555  0.1063 -2.2553 -0.6528
 8775TIP3   OH247739   4.700   5.288  16.380 -0.1383  0.0575  0.0885
 8775TIP3    H147740   4.672   5.221  16.319 -0.9106 -0.2824  0.7978
 8775TIP3    H247741   4.669   5.371  16.342  2.8151  0.3734 -1.9972
 8776TIP3   OH247742   1.945   0.577   4.241  0.0563 -0.5365 -0.6356
 8776TIP3    H147743   1.919   0.666   4.263 -0.0005 -0.4407 -1.0805
 8776TIP3    H247744   1.961   0.535   4.325 -2.4978 -0.8956 -0.2458
 8777TIP3   OH247745   5.291   6.604  13.390  0.2470  0.4796 -0.1840
 8777TIP3    H147746   5.331   6.648  13.465  0.0837 -0.8515  0.7151
 8777TIP3    H247747   5.203   6.641  13.384 -0.8490 -1.4253  2.1762
 8778TIP3   OH247748   3.331   3.786   5.490 -0.1892 -0.0768 -0.4447
 8778TIP3    H147749   3.417   3.748   5.508 -0.1702 -0.0401 -0.4579
 8778TIP3    H247750   3.306   3.749   5.405 -1.1192 -1.7518  0.5153
 8779TIP3   OH247751   1.205   4.152  14.072 -0.0642  0.3505  0.1143
 8779TIP3    H147752   1.181   4.243  14.089 -2.4931 -0.4892  1.7009
 8779TIP3    H247753   1.261   4.128  14.146 -0.1995  0.2888  0.1967
 8780TIP3   OH247754   5.043   5.811   4.329  0.6148  0.1351  0.0346
 8780TIP3    H147755   5.116   5.801   4.269  0.6652  2.1028 -0.2949
 8780TIP3    H247756   5.082   5.848   4.408  0.0685  0.6938  0.0483
 8781TIP3   OH247757   5.752   1.071   3.731  0.1997 -0.3130 -0.0635
 8781TIP3    H147758   5.759   1.152   3.782 -0.5092 -1.5261  2.0971
 8781TIP3    H247759   5.663   1.072   3.697  0.7049  0.5465 -1.4355
 8782TIP3   OH247760   5.731   0.905   6.355  0.6179 -0.1959  0.6328
 8782TIP3    H147761   5.791   0.914   6.282 -0.2147  0.9614  0.0493
 8782TIP3    H247762   5.693   0.818   6.346 -1.9435  1.0512 -2.3287
 8783TIP3   OH247763   1.178   3.059  16.022 -0.4737  0.3203  0.3049
 8783TIP3    H147764   1.195   3.141  16.069  2.5822  0.6676 -1.1980
 8783TIP3    H247765   1.259   3.040  15.976 -0.0811 -4.9571  2.4912
 8784TIP3   OH247766   3.224   2.318  11.570 -0.5984 -0.1985  0.6752
 8784TIP3    H147767   3.299   2.372  11.546 -1.2619 -0.4755 -2.3773
 8784TIP3    H247768   3.153   2.348  11.515 -2.0814 -1.6101  1.7000
 8785TIP3   OH247769   3.700   4.011   5.359 -0.2385  0.1940  0.3937
 8785TIP3    H147770   3.660   3.938   5.311 -0.9547 -1.0621  2.7411
 8785TIP3    H247771   3.789   3.981   5.377  0.2534  0.9542 -0.6922
 8786TIP3   OH247772   3.026   1.879  17.236 -0.0787  0.1356 -0.2987
 8786TIP3    H147773   3.047   1.921  17.319 -2.4078  0.6824  0.0969
 8786TIP3    H247774   3.083   1.802  17.234  0.5374  0.4788  1.4642
 8787TIP3   OH247775   4.387   5.163  15.779 -0.3290 -0.1207 -0.3602
 8787TIP3    H147776   4.428   5.079  15.754  0.2835  0.5259 -1.6413
 8787TIP3    H247777   4.436   5.191  15.856 -1.2191 -1.4232  0.7123
 8788TIP3   OH247778   3.329   3.202  13.296  0.2093 -0.4741  0.8624
 8788TIP3    H147779   3.411   3.208  13.248  0.1211 -0.9263  0.6521
 8788TIP3    H247780   3.277   3.137  13.248  0.1808 -1.0526  1.6433
 8789TIP3   OH247781   4.248   2.544  14.258  0.3577  0.1133  0.5767
 8789TIP3    H147782   4.283   2.467  14.303  1.3000  1.3524  2.0856
 8789TIP3    H247783   4.244   2.519  14.166  0.6018 -1.7362  1.0366
 8790TIP3   OH247784   6.276   2.909  15.819  0.0171 -0.4168  0.1606
 8790TIP3    H147785   6.368   2.906  15.792 -0.1623 -1.1082 -0.3975
 8790TIP3    H247786   6.260   2.824  15.859 -0.3755 -0.2960  0.2663
 8791TIP3   OH247787   6.067   3.617   5.713  1.0808  0.0718 -0.0479
 8791TIP3    H147788   5.984   3.649   5.680  1.9551  1.8371 -0.6272
 8791TIP3    H247789   6.047   3.585   5.801 -0.4043 -0.6016 -0.5941
 8792TIP3   OH247790   6.323   0.382   5.878  0.0381 -0.2269 -0.2189
 8792TIP3    H147791   6.300   0.475   5.877  1.0480  0.0328 -1.0510
 8792TIP3    H247792   6.240   0.337   5.896 -0.7646  0.7656 -1.2591
 8793TIP3   OH247793   3.609   0.020   2.766  0.9950  0.2883  0.4400
 8793TIP3    H147794   3.534   0.028   2.707  1.8607 -1.1501 -0.9319
 8793TIP3    H247795   3.610  -0.072   2.792  2.2823  0.2767  0.4310
 8794TIP3   OH247796   4.320   4.181  15.538  0.1827 -0.2028  0.0991
 8794TIP3    H147797   4.245   4.215  15.490 -0.8562 -1.3760  0.8333
 8794TIP3    H247798   4.381   4.255  15.544  0.2719  0.0883 -2.7841
 8795TIP3   OH247799   2.107   3.846   0.121  0.5847 -0.3578  0.2303
 8795TIP3    H147800   2.046   3.816   0.188  1.9468 -3.1606  0.3318
 8795TIP3    H247801   2.054   3.853   0.041 -0.5997  1.0087  1.0680
 8796TIP3   OH247802   0.449   1.316  16.513 -0.2139 -0.6561  0.1501
 8796TIP3    H147803   0.408   1.267  16.584 -0.1370 -0.6101  0.2263
 8796TIP3    H247804   0.509   1.254  16.472 -0.5643 -0.8093 -0.1390
 8797TIP3   OH247805   5.722   0.074   5.360  0.0807  0.4300 -0.1290
 8797TIP3    H147806   5.660   0.100   5.293 -1.0983 -0.6933  0.4742
 8797TIP3    H247807   5.667   0.045   5.433  1.2457 -2.5972 -0.3286
 8798TIP3   OH247808   2.318   6.743  17.170  0.2227 -0.0330 -0.2943
 8798TIP3    H147809   2.269   6.686  17.112 -0.5325 -0.3504  0.6293
 8798TIP3    H247810   2.410   6.727  17.149 -0.0212 -0.7546 -0.8093
 8799TIP3   OH247811   1.254   4.943  11.253  0.0969  0.0198  0.4602
 8799TIP3    H147812   1.266   4.848  11.260 -1.9456 -0.2835  0.2455
 8799TIP3    H247813   1.286   4.964  11.165 -1.2197 -0.8043 -0.2486
 8800TIP3   OH247814   3.854   3.111   3.297  0.4188  0.0723  0.7202
 8800TIP3    H147815   3.761   3.100   3.315 -0.5992  1.9870 -2.5273
 8800TIP3    H247816   3.866   3.206   3.286  2.3416 -0.2696 -0.7079
 8801TIP3   OH247817   0.320   1.598  11.984 -0.0838  0.3227  0.2271
 8801TIP3    H147818   0.324   1.690  11.957  2.1477  0.1624 -0.1763
 8801TIP3    H247819   0.359   1.597  12.072 -1.2999 -0.0855  0.7888
 8802TIP3   OH247820   4.550   0.803  13.683  0.1934 -0.6729  0.1178
 8802TIP3    H147821   4.533   0.743  13.610 -0.0429 -2.1540  1.3578
 8802TIP3    H247822   4.646   0.807  13.688  0.2395 -2.2435  1.0263
 8803TIP3   OH247823   4.957   3.135   0.672  0.4663  0.4066  0.9999
 8803TIP3    H147824   4.864   3.140   0.695 -0.0109  4.2564 -1.0150
 8803TIP3    H247825   4.973   3.041   0.659 -2.9678 -0.4514  1.8776
 8804TIP3   OH247826   5.704   3.167  13.909 -0.2105 -0.1743 -0.1074
 8804TIP3    H147827   5.667   3.081  13.928 -2.0992  0.0725 -2.2805
 8804TIP3    H247828   5.790   3.147  13.871  0.0594 -0.9817  0.8643
 8805TIP3   OH247829   5.491   1.623  14.815 -0.1964  0.3690 -0.1250
 8805TIP3    H147830   5.504   1.600  14.722 -2.0749 -0.7791 -0.1554
 8805TIP3    H247831   5.425   1.691  14.814 -1.0845 -0.4608  0.4000
 8806TIP3   OH247832   1.022   1.257  11.317  0.2665  0.4966 -0.1215
 8806TIP3    H147833   0.929   1.280  11.321  0.1681 -0.1131  2.2769
 8806TIP3    H247834   1.065   1.337  11.284 -0.8096  1.7770  1.4233
 8807TIP3   OH247835   4.300   2.240   4.073 -0.2983  0.0022  0.2075
 8807TIP3    H147836   4.355   2.201   4.141 -0.9127 -0.8459  0.2421
 8807TIP3    H247837   4.229   2.282   4.121  0.3584  1.1987  0.1692
 8808TIP3   OH247838   3.476   2.302  15.618  0.6850 -0.0772  0.5096
 8808TIP3    H147839   3.405   2.365  15.628  0.7504  0.5147 -2.1358
 8808TIP3    H247840   3.455   2.232  15.680 -1.5986  0.6005  0.5767
 8809TIP3   OH247841   5.571   3.445   5.450 -0.3663 -0.4755 -0.5896
 8809TIP3    H147842   5.665   3.434   5.441 -0.4730 -2.2581  0.1283
 8809TIP3    H247843   5.548   3.399   5.530 -1.7955  0.3527 -0.4735
 8810TIP3   OH247844   2.422   4.229  12.634 -0.2281 -0.6660 -0.3342
 8810TIP3    H147845   2.382   4.303  12.589  0.1563  0.4460  1.0589
 8810TIP3    H247846   2.513   4.256  12.649  0.2715 -1.9473 -0.8901
 8811TIP3   OH247847   1.881   3.393  14.268  0.2468 -0.7188 -0.5395
 8811TIP3    H147848   1.859   3.482  14.244  0.5066 -0.5808 -0.2722
 8811TIP3    H247849   1.810   3.365  14.327  0.8875 -0.1924  0.5121
 8812TIP3   OH247850   3.945   6.722  15.917  0.0215  0.2861  0.3097
 8812TIP3    H147851   3.993   6.750  15.994  0.1410  1.4309 -0.1655
 8812TIP3    H247852   3.879   6.790  15.903  2.1594  2.0095 -2.5496
 8813TIP3   OH247853   3.629   4.605   1.467 -0.4936  0.4480 -0.4935
 8813TIP3    H147854   3.578   4.607   1.548 -0.4632 -0.7413 -0.4179
 8813TIP3    H247855   3.719   4.586   1.496 -0.8024 -1.9646 -0.8716
 8814TIP3   OH247856   1.454   4.742  12.444 -0.1361 -0.1253  0.4722
 8814TIP3    H147857   1.368   4.773  12.416 -0.1445  0.8138  1.4836
 8814TIP3    H247858   1.442   4.649  12.460 -1.0373  0.0391  0.8307
 8815TIP3   OH247859   5.719   6.275  13.729 -0.0997 -0.1865  0.1118
 8815TIP3    H147860   5.654   6.211  13.759  0.7376 -2.0954 -1.8344
 8815TIP3    H247861   5.681   6.314  13.651  0.0047  0.6546  0.4722
 8816TIP3   OH247862   1.736   3.991   4.927  0.3220  0.1802  0.5508
 8816TIP3    H147863   1.776   3.966   5.010  1.3117  1.3996  0.4780
 8816TIP3    H247864   1.667   4.053   4.951 -1.0206 -1.2751  0.6102
 8817TIP3   OH247865   3.846   2.575   1.891  0.0132  0.3818  0.3259
 8817TIP3    H147866   3.870   2.532   1.809 -0.6460 -1.8509  1.2060
 8817TIP3    H247867   3.914   2.641   1.905  0.7582  0.0287 -1.4390
 8818TIP3   OH247868   2.830   4.966  12.082  0.0910  0.2814 -0.0805
 8818TIP3    H147869   2.846   5.009  11.998  0.8905 -0.8319 -0.5296
 8818TIP3    H247870   2.913   4.922  12.102 -1.0010 -1.9908 -0.2392
 8819TIP3   OH247871   5.619   0.067   2.780  0.6818  0.7036  0.2524
 8819TIP3    H147872   5.704   0.109   2.768  0.9506  0.4390  1.1519
 8819TIP3    H247873   5.576   0.075   2.695  2.1369 -0.3583 -0.6253
 8820TIP3   OH247874   0.593   4.480  11.524 -0.1182 -0.5040  0.0665
 8820TIP3    H147875   0.519   4.477  11.464 -1.7364  1.0480  1.8509
 8820TIP3    H247876   0.663   4.521  11.474 -0.2203 -2.4541 -1.8288
 8821TIP3   OH247877   2.022   2.006   0.183 -0.0524 -0.6711  0.2662
 8821TIP3    H147878   2.112   2.038   0.172  0.2460 -1.6068 -0.1356
 8821TIP3    H247879   2.032   1.924   0.232 -0.7908 -0.2327  1.1808
 8822TIP3   OH247880   3.798   2.023  15.526 -0.2753  0.4811 -0.1620
 8822TIP3    H147881   3.846   1.993  15.449  0.8254 -0.0669  0.7051
 8822TIP3    H247882   3.851   1.992  15.600 -0.3207  2.5689  0.8053
 8823TIP3   OH247883   3.626   5.831  16.001 -0.6204  0.1500 -0.2203
 8823TIP3    H147884   3.537   5.856  16.025 -0.6601  0.5917 -0.8023
 8823TIP3    H247885   3.680   5.864  16.073 -0.9687 -0.5600  0.3799
 8824TIP3   OH247886   4.749   5.923  11.639  0.2165 -0.0759  0.0045
 8824TIP3    H147887   4.842   5.933  11.657  0.6111 -1.9597 -0.7690
 8824TIP3    H247888   4.738   5.830  11.621 -1.2958  0.5434 -2.7607
 8825TIP3   OH247889   4.753   2.258  15.774  0.0091  0.3374 -0.2303
 8825TIP3    H147890   4.740   2.256  15.680  0.5632 -1.0698 -0.3038
 8825TIP3    H247891   4.846   2.274  15.785 -0.2157  1.4802  0.1107
 8826TIP3   OH247892   4.415   3.441   5.823 -0.2055 -0.2547 -0.2260
 8826TIP3    H147893   4.401   3.526   5.864 -0.7962 -0.4299 -0.0494
 8826TIP3    H247894   4.338   3.389   5.848 -0.0349 -0.7185 -0.6375
 8827TIP3   OH247895   1.262   3.828  17.191  0.3950  0.3686 -0.1929
 8827TIP3    H147896   1.313   3.799  17.266 -1.2132  1.8621  1.5941
 8827TIP3    H247897   1.318   3.891  17.145  1.7630 -1.2896 -0.8852
 8828TIP3   OH247898   1.384   4.759   3.184  0.5656 -0.2490  0.4949
 8828TIP3    H147899   1.322   4.811   3.132 -1.2596 -1.3887  1.4023
 8828TIP3    H247900   1.376   4.795   3.273  1.9795  0.2204  0.4499
 8829TIP3   OH247901   3.718   4.547   1.168 -0.6135  0.0825  0.4618
 8829TIP3    H147902   3.796   4.496   1.189 -0.0929  0.4897 -0.4077
 8829TIP3    H247903   3.751   4.626   1.126 -1.5047 -0.1547 -0.7699
 8830TIP3   OH247904   2.954   2.421  13.369 -0.2698  0.1759 -0.1717
 8830TIP3    H147905   2.957   2.494  13.431  1.1713  0.3546 -0.4189
 8830TIP3    H247906   2.952   2.462  13.283 -3.2932 -0.0540 -0.2946
 8831TIP3   OH247907   0.929   4.272   5.581 -0.0859  0.4666 -0.1179
 8831TIP3    H147908   0.960   4.182   5.593  1.0790  0.9244  0.4907
 8831TIP3    H247909   1.006   4.327   5.600 -1.0857  1.6394  0.7085
 8832TIP3   OH247910   0.010   4.811  11.568 -0.0678  0.4588  0.1061
 8832TIP3    H147911   0.028   4.723  11.535  1.3582  0.9342 -0.4185
 8832TIP3    H247912  -0.066   4.799  11.626 -0.9744 -0.8225 -1.2665
 8833TIP3   OH247913   1.357   2.143  16.332  0.1233  0.5580 -0.0249
 8833TIP3    H147914   1.341   2.169  16.423 -1.1573 -2.2108  0.6542
 8833TIP3    H247915   1.270   2.147  16.291  0.6528  1.5549 -1.1118
 8834TIP3   OH247916   2.349   5.832   5.562 -0.6988 -0.0850  0.2995
 8834TIP3    H147917   2.293   5.768   5.518 -0.7706  0.3985 -0.3278
 8834TIP3    H247918   2.415   5.855   5.496 -0.5482  0.3275  0.5945
 8835TIP3   OH247919   4.741   4.498  13.354 -0.0793 -0.0724 -0.0627
 8835TIP3    H147920   4.759   4.517  13.262 -0.1315 -0.3025 -0.1189
 8835TIP3    H247921   4.648   4.522  13.365  0.2128  1.0278  0.2067
 8836TIP3   OH247922   5.927   3.920   3.823  0.8383 -0.4321 -0.1584
 8836TIP3    H147923   5.850   3.891   3.872  0.3318 -0.6366 -1.0396
 8836TIP3    H247924   6.001   3.883   3.870  0.4749  0.5704  1.2588
 8837TIP3   OH247925   4.378   1.423   5.230 -0.4038 -0.2506  0.5816
 8837TIP3    H147926   4.343   1.511   5.217 -1.8070 -0.9394 -0.5910
 8837TIP3    H247927   4.457   1.436   5.282 -0.8602  1.6466  0.8706
 8838TIP3   OH247928   0.012   6.551  15.839 -0.1169 -0.0486  0.0947
 8838TIP3    H147929   0.053   6.494  15.904  2.0235 -0.2131 -1.3034
 8838TIP3    H247930  -0.029   6.492  15.776 -0.8196  0.0665  0.4369
 8839TIP3   OH247931   1.922   3.191   0.458  0.4724 -0.6241 -0.3207
 8839TIP3    H147932   1.848   3.133   0.441 -1.1636  1.7523 -2.0433
 8839TIP3    H247933   1.922   3.203   0.553 -2.4829  0.5654 -0.3696
 8840TIP3   OH247934   1.616   6.375   3.084 -0.2148 -0.0810 -0.5887
 8840TIP3    H147935   1.623   6.300   3.144  0.5042  1.0021  0.7312
 8840TIP3    H247936   1.582   6.337   3.003 -2.4761 -1.4159  0.8763
 8841TIP3   OH247937   2.247   5.345  13.527  0.0862  0.3410 -0.5083
 8841TIP3    H147938   2.227   5.439  13.526 -0.1675  0.2880 -1.8390
 8841TIP3    H247939   2.190   5.309  13.595 -0.4462  1.0233 -0.5844
 8842TIP3   OH247940   4.179   6.659   2.461  0.3371 -0.1381 -0.0944
 8842TIP3    H147941   4.161   6.672   2.554  0.1655  1.6148 -0.3372
 8842TIP3    H247942   4.223   6.574   2.457  1.3690  0.2520  1.7238
 8843TIP3   OH247943   2.263   2.527  16.051  0.1998  0.1717 -0.2916
 8843TIP3    H147944   2.213   2.602  16.082  0.9487  0.5906 -0.0916
 8843TIP3    H247945   2.303   2.490  16.130  2.4263  1.4690 -0.7181
 8844TIP3   OH247946   4.869   1.640  15.359  0.5320  0.3826 -0.5782
 8844TIP3    H147947   4.778   1.635  15.389  0.5914  0.9111 -0.3033
 8844TIP3    H247948   4.901   1.723  15.393  0.7848  0.7159 -1.6009
 8845TIP3   OH247949   5.168   5.686  16.396  0.2154 -0.1627  0.0797
 8845TIP3    H147950   5.144   5.724  16.312  0.5027  0.1465  0.1348
 8845TIP3    H247951   5.085   5.675  16.442 -0.0994 -1.6519 -0.7791
 8846TIP3   OH247952   1.545   5.276   5.105  0.5070 -0.0929  0.4251
 8846TIP3    H147953   1.638   5.263   5.088  0.3410  0.0414 -0.6956
 8846TIP3    H247954   1.532   5.248   5.195  1.7272  0.3846  0.7569
 8847TIP3   OH247955   1.597   5.077  13.025  0.5498  0.1587  0.1010
 8847TIP3    H147956   1.614   5.171  13.021  1.4487 -0.0091 -0.3823
 8847TIP3    H247957   1.684   5.037  13.017 -0.0257 -0.7828 -2.6793
 8848TIP3   OH247958   0.473   0.781  16.198  0.0824 -0.1508 -0.2477
 8848TIP3    H147959   0.483   0.730  16.117 -0.5022  0.6075 -0.8122
 8848TIP3    H247960   0.422   0.857  16.172  2.1157  1.4710  0.2546
 8849TIP3   OH247961   4.333   3.198  15.104 -0.1872  0.0523  0.0285
 8849TIP3    H147962   4.424   3.228  15.111 -0.4965  1.0916 -0.3394
 8849TIP3    H247963   4.285   3.272  15.068 -1.0954 -0.6736 -0.2964
 8850TIP3   OH247964   5.115   5.166  13.582  0.6089 -0.3253 -0.0570
 8850TIP3    H147965   5.104   5.262  13.581 -0.8024 -0.4592 -0.6024
 8850TIP3    H247966   5.208   5.153  13.598  0.6894  1.1321  0.9660
 8851TIP3   OH247967   6.338   6.627  16.400  0.7657 -0.8488 -0.1611
 8851TIP3    H147968   6.301   6.703  16.356  2.5084 -0.0796 -0.3784
 8851TIP3    H247969   6.269   6.597  16.459 -0.0826  0.6691 -0.3478
 8852TIP3   OH247970   3.266   2.863   2.161  0.3089  0.1664  0.2547
 8852TIP3    H147971   3.219   2.851   2.243 -1.1278  0.2106 -0.5173
 8852TIP3    H247972   3.196   2.872   2.095  1.3903  1.5865 -0.7628
 8853TIP3   OH247973   4.141   0.856   1.066  0.5350  0.0720 -0.1782
 8853TIP3    H147974   4.083   0.925   1.037  0.1548 -0.3274 -0.3839
 8853TIP3    H247975   4.229   0.885   1.040  0.1615 -0.5180 -2.2824
 8854TIP3   OH247976   1.647   6.068  13.699  0.4334  0.1991  0.2504
 8854TIP3    H147977   1.692   5.984  13.691 -0.5702 -0.2669 -0.8556
 8854TIP3    H247978   1.554   6.047  13.687  0.1404  1.4325  0.1477
 8855TIP3   OH247979   3.164   0.555  17.252 -0.1590 -0.3228  0.4348
 8855TIP3    H147980   3.237   0.528  17.197  0.9736  2.0915  0.6365
 8855TIP3    H247981   3.097   0.584  17.190  0.0647 -0.1200  0.2886
 8856TIP3   OH247982   2.769   1.229   0.295 -0.4168  0.3279 -0.0543
 8856TIP3    H147983   2.847   1.215   0.350 -1.9285  1.1421  2.4484
 8856TIP3    H247984   2.775   1.162   0.227  0.5385 -2.1476  2.3029
 8857TIP3   OH247985   2.951   3.676  14.287 -0.0589  0.3631 -0.0179
 8857TIP3    H147986   2.921   3.585  14.280  0.7475  0.1097 -0.2404
 8857TIP3    H247987   3.020   3.684  14.222  0.3017  0.9624  0.4238
 8858TIP3   OH247988   6.033   3.312  11.305 -0.2110  0.3445 -0.1215
 8858TIP3    H147989   5.999   3.398  11.327 -0.3379  0.1361  0.5104
 8858TIP3    H247990   6.128   3.324  11.297 -0.2570  0.5938 -0.2918
 8859TIP3   OH247991   6.449   1.531  15.686  0.0011  0.1677 -0.0423
 8859TIP3    H147992   6.505   1.564  15.616  0.3893 -0.8783 -0.2476
 8859TIP3    H247993   6.362   1.562  15.663  0.1672  0.0793 -0.8435
 8860TIP3   OH247994   3.372   2.967  15.043 -0.6323 -0.2166  0.0243
 8860TIP3    H147995   3.409   3.012  15.119  0.3812 -2.4122  0.9246
 8860TIP3    H247996   3.448   2.933  14.997 -1.2625  0.7687 -1.8334
 8861TIP3   OH247997   5.944   0.497  14.060  0.2220  0.2034 -0.6126
 8861TIP3    H147998   5.913   0.406  14.063  1.4807 -0.2843 -1.6420
 8861TIP3    H247999   6.034   0.490  14.030  0.6959  1.7319  0.3649
 8862TIP3   OH248000   1.694   0.113   1.542 -0.5115  0.3998  0.0563
 8862TIP3    H148001   1.782   0.151   1.543 -0.5799  0.5414  1.3447
 8862TIP3    H248002   1.703   0.033   1.489  0.1362  0.9720 -0.7251
 8863TIP3   OH248003   1.033   2.625   4.479 -0.5128 -1.1433  0.3568
 8863TIP3    H148004   1.062   2.711   4.448 -1.6594 -0.6367  0.6417
 8863TIP3    H248005   0.972   2.595   4.412 -2.0695 -0.5781  1.4587
 8864TIP3   OH248006   0.579   0.543   0.061 -0.0160  0.2380  0.2117
 8864TIP3    H148007   0.507   0.569   0.119 -1.6729 -0.4827 -1.4296
 8864TIP3    H248008   0.574   0.605  -0.012  0.9285  0.0630 -0.0094
 8865TIP3   OH248009   2.935   1.131  14.534  0.2208  0.0956  0.0300
 8865TIP3    H148010   2.940   1.040  14.506 -0.7894 -0.2165  0.8194
 8865TIP3    H248011   2.870   1.171  14.476 -1.4947 -0.4265  1.5032
 8866TIP3   OH248012   0.316   5.139   0.872  0.3979  0.0104  0.2126
 8866TIP3    H148013   0.403   5.118   0.836  0.5284 -0.5464  0.8447
 8866TIP3    H248014   0.273   5.189   0.802  0.7924 -0.7192 -0.5672
 8867TIP3   OH248015   1.267   1.256  11.844  0.0417  0.2634  0.8375
 8867TIP3    H148016   1.248   1.226  11.755 -0.7764  3.4856 -0.2105
 8867TIP3    H248017   1.354   1.295  11.838 -1.0868  3.0098  0.5922
 8868TIP3   OH248018   4.425   1.949   1.803 -0.1225  0.1102  0.8708
 8868TIP3    H148019   4.486   1.993   1.862  2.4651 -1.8329 -0.1324
 8868TIP3    H248020   4.423   2.004   1.725  0.0924  0.3572  1.0377
 8869TIP3   OH248021   0.789   4.353  12.937  0.7040 -0.5135 -0.3512
 8869TIP3    H148022   0.811   4.398  12.855 -0.1219  2.3190  0.8747
 8869TIP3    H248023   0.871   4.349  12.986  1.0986 -1.7964 -1.0619
 8870TIP3   OH248024   2.154   6.343  11.284  0.0555 -0.4354 -0.2743
 8870TIP3    H148025   2.091   6.384  11.343  1.4467 -2.4428  2.8641
 8870TIP3    H248026   2.102   6.318  11.207 -2.1845  1.0449  0.6488
 8871TIP3   OH248027   6.513   1.777   1.026 -0.3092 -0.0681 -0.2724
 8871TIP3    H148028   6.576   1.847   1.014 -0.0422 -0.2575  0.0023
 8871TIP3    H248029   6.477   1.791   1.113 -0.3462 -0.1981 -0.2656
 8872TIP3   OH248030   0.537   0.093   0.213  0.7092 -0.1576 -0.1969
 8872TIP3    H148031   0.467   0.106   0.278  0.2758 -0.1365 -0.6640
 8872TIP3    H248032   0.496   0.113   0.129  0.8551 -1.5918 -0.6352
 8873TIP3   OH248033   0.234   4.503   5.006  0.5539 -0.0691 -0.8557
 8873TIP3    H148034   0.316   4.552   5.010  1.8840 -2.1935 -0.3835
 8873TIP3    H248035   0.200   4.504   5.095  0.7054 -0.2199 -0.7972
 8874TIP3   OH248036   2.866   0.588  12.538  0.0595  0.0638  0.1564
 8874TIP3    H148037   2.779   0.571  12.574  0.4183 -0.3384  0.8691
 8874TIP3    H248038   2.921   0.603  12.615  1.0641 -1.8563 -0.1175
 8875TIP3   OH248039   3.254   5.309   3.253  0.1255 -0.1207  0.1405
 8875TIP3    H148040   3.172   5.284   3.210  0.5328  0.8822 -1.3015
 8875TIP3    H248041   3.275   5.395   3.217  2.4022 -0.8378 -0.4323
 8876TIP3   OH248042   0.885   4.313  15.038  0.2646 -0.2185 -0.0775
 8876TIP3    H148043   0.947   4.340  14.971 -0.1212  1.1670  0.0824
 8876TIP3    H248044   0.930   4.331  15.121 -0.2470  0.6131  0.0363
 8877TIP3   OH248045   0.561   4.869   5.038  0.2362  0.6069  0.2048
 8877TIP3    H148046   0.656   4.881   5.035  0.2000  1.9615  2.3145
 8877TIP3    H248047   0.530   4.905   4.955  1.6108 -0.9447 -1.0554
 8878TIP3   OH248048   0.020   0.064  13.184  0.9336 -0.2734 -0.2551
 8878TIP3    H148049   0.100   0.112  13.206  1.4759 -1.6522  0.9563
 8878TIP3    H248050   0.051  -0.022  13.156  0.0711  0.4269 -3.7615
 8879TIP3   OH248051   4.058   4.777  12.695 -0.2631 -0.0235  0.3908
 8879TIP3    H148052   4.012   4.699  12.664  1.1000  0.3995 -3.1400
 8879TIP3    H248053   3.992   4.846  12.690 -1.0571 -0.6041  2.0962
 8880TIP3   OH248054   6.116   0.167  11.903  0.3704 -0.6402 -0.3580
 8880TIP3    H148055   6.186   0.200  11.960  0.7549 -1.0016 -0.6119
 8880TIP3    H248056   6.036   0.206  11.938  0.4675 -1.6666  1.0858
 8881TIP3   OH248057   1.894   5.201  12.394 -0.2775 -0.7649 -0.2914
 8881TIP3    H148058   1.902   5.241  12.480  0.5453  0.5034 -0.9346
 8881TIP3    H248059   1.801   5.206  12.374 -0.1540  1.2522 -0.5226
 8882TIP3   OH248060   4.012   1.221   0.397  0.5059 -0.3506  0.1680
 8882TIP3    H148061   4.066   1.268   0.334 -0.5664  1.1811  0.3406
 8882TIP3    H248062   4.075   1.187   0.461  1.3759  0.2350 -0.3453
 8883TIP3   OH248063   3.171   4.317   4.734  0.1894 -0.4071  0.1289
 8883TIP3    H148064   3.257   4.309   4.775  0.8447 -0.6808 -1.2309
 8883TIP3    H248065   3.118   4.365   4.798  1.6725  0.7380  0.5506
 8884TIP3   OH248066   6.189   0.493   6.805  0.2609 -0.3181 -0.0582
 8884TIP3    H148067   6.222   0.410   6.840 -2.7604 -1.2222  1.0038
 8884TIP3    H248068   6.136   0.466   6.729 -1.1828  0.5440  0.6137
 8885TIP3   OH248069   2.280   3.524  15.486 -0.4724 -1.0061 -0.4476
 8885TIP3    H148070   2.230   3.469  15.425 -0.4427 -2.9392  1.1585
 8885TIP3    H248071   2.342   3.463  15.526  2.1751  1.0006 -1.2393
 8886TIP3   OH248072   2.549   6.401   4.810 -0.4722  0.4259 -0.4518
 8886TIP3    H148073   2.515   6.335   4.871  1.0705 -0.1631 -0.1640
 8886TIP3    H248074   2.527   6.366   4.723 -1.3307  0.4979 -0.2732
 8887TIP3   OH248075   5.165   4.615   3.183  0.4714 -0.0374 -0.2590
 8887TIP3    H148076   5.144   4.708   3.174 -0.0195 -0.2850 -2.2068
 8887TIP3    H248077   5.140   4.577   3.098 -1.3195 -2.3199  1.1733
 8888TIP3   OH248078   0.972   6.014   0.959 -0.1296  0.3949  1.1078
 8888TIP3    H148079   0.887   5.970   0.952  0.4280 -0.8653  1.8036
 8888TIP3    H248080   0.973   6.050   1.047  0.0817  0.3255  1.1352
 8889TIP3   OH248081   6.197   5.514  12.675  0.4167 -0.1115 -0.1375
 8889TIP3    H148082   6.208   5.588  12.734  2.6202  0.8582 -1.6519
 8889TIP3    H248083   6.270   5.455  12.696 -1.6364 -2.3106  1.4895
 8890TIP3   OH248084   6.476   3.931   2.575 -0.2397 -0.0193  0.2301
 8890TIP3    H148085   6.509   3.967   2.658  0.5777 -2.1785  0.9183
 8890TIP3    H248086   6.552   3.930   2.517 -0.2229 -0.6904  0.2549
 8891TIP3   OH248087   4.662   0.832  15.517  0.2361 -0.0054 -0.3340
 8891TIP3    H148088   4.668   0.789  15.602 -0.0832 -1.4255 -1.0009
 8891TIP3    H248089   4.613   0.771  15.462  0.1981  1.0009 -1.4729
 8892TIP3   OH248090   4.266   3.796   2.111 -0.7023  0.8480  0.2182
 8892TIP3    H148091   4.204   3.860   2.075 -0.2244  1.1120 -0.1396
 8892TIP3    H248092   4.251   3.799   2.206 -0.1058  2.1076  0.2924
 8893TIP3   OH248093   4.384   5.389  12.964 -0.3653  0.0592  0.2906
 8893TIP3    H148094   4.399   5.301  12.930  1.1154  0.0994  0.7498
 8893TIP3    H248095   4.423   5.388  13.052  1.0103  1.5694 -0.2451
 8894TIP3   OH248096   2.018   1.080  16.279 -0.1651 -0.4091  0.3064
 8894TIP3    H148097   2.105   1.041  16.282 -0.2150 -0.9943 -2.6171
 8894TIP3    H248098   1.958   1.006  16.267 -0.7313  0.1737 -0.6209
 8895TIP3   OH248099   2.382   6.230   4.974 -0.3765  0.1456  0.2572
 8895TIP3    H148100   2.337   6.198   4.896  0.3623  0.6211 -0.3848
 8895TIP3    H248101   2.313   6.265   5.030 -0.9973 -0.8799  0.1560
 8896TIP3   OH248102   5.882   5.758  12.286  0.4129 -0.3383  0.0117
 8896TIP3    H148103   5.934   5.739  12.208 -0.1870 -1.6349 -0.0843
 8896TIP3    H248104   5.927   5.714  12.357  0.9395  0.8116  0.4248
 8897TIP3   OH248105   5.576   5.369   3.420 -0.1166  0.1443  0.0410
 8897TIP3    H148106   5.561   5.276   3.402  0.3420 -0.3897  2.2139
 8897TIP3    H248107   5.555   5.379   3.512  0.6624  2.0448  0.0461
 8898TIP3   OH248108   1.730   0.537   3.879 -0.5341 -0.3321 -0.1184
 8898TIP3    H148109   1.796   0.585   3.829 -1.0537 -0.2572 -0.7517
 8898TIP3    H248110   1.670   0.504   3.812 -1.8046  0.6120  0.5214
 8899TIP3   OH248111   1.552   5.432  15.646 -0.4212 -0.2463 -0.1941
 8899TIP3    H148112   1.644   5.456  15.658 -0.7691  0.7831  0.4875
 8899TIP3    H248113   1.547   5.401  15.555  0.5105  0.0813 -0.3673
 8900TIP3   OH248114   4.001   4.751  16.278 -0.3642  0.1275 -0.1415
 8900TIP3    H148115   4.051   4.791  16.350 -1.5560  3.5548 -1.0463
 8900TIP3    H248116   4.068   4.716  16.219  0.6760 -1.1965  1.7362
 8901TIP3   OH248117   6.597   4.356   0.597 -0.2696 -0.1762  0.1423
 8901TIP3    H148118   6.619   4.419   0.665 -0.4546 -1.0898  1.0683
 8901TIP3    H248119   6.619   4.271   0.635 -1.6373 -0.8057 -0.4221
 8902TIP3   OH248120   2.598   5.901  16.374  0.5934 -0.3560 -0.0642
 8902TIP3    H148121   2.581   5.837  16.305  0.1861  0.6712 -0.9479
 8902TIP3    H248122   2.630   5.849  16.448 -1.6348 -1.8189 -0.0415
 8903TIP3   OH248123   5.490   2.043  14.613  0.1483 -0.7372 -0.1601
 8903TIP3    H148124   5.516   2.123  14.659  1.8307 -1.2363 -0.1888
 8903TIP3    H248125   5.403   2.023  14.648 -1.3519  2.2678 -1.7263
 8904TIP3   OH248126   4.198   6.162  16.952 -0.4212 -0.1765  0.4106
 8904TIP3    H148127   4.198   6.122  17.039  1.3537  2.3558  1.7160
 8904TIP3    H248128   4.220   6.091  16.892 -0.0674 -1.6841  2.2370
 8905TIP3   OH248129   0.457   4.123  15.586  0.4428 -0.3258  0.3630
 8905TIP3    H148130   0.401   4.153  15.514  1.2411 -0.5295 -0.3547
 8905TIP3    H248131   0.452   4.193  15.650 -0.4031 -0.2061  0.1834
 8906TIP3   OH248132   3.091   4.511   1.868 -0.1233  0.3627  0.3165
 8906TIP3    H148133   3.156   4.580   1.883  0.0382  0.3999 -0.5394
 8906TIP3    H248134   3.141   4.440   1.826 -0.3858 -0.0938  0.7611
 8907TIP3   OH248135   5.479   2.756   3.212  0.2801 -0.6190  0.0139
 8907TIP3    H148136   5.568   2.764   3.245  0.0514  0.6609  0.3602
 8907TIP3    H248137   5.424   2.757   3.290 -0.2418  2.1265 -0.2977
 8908TIP3   OH248138   1.801   4.802  13.428  0.6707  0.6359  0.2727
 8908TIP3    H148139   1.743   4.733  13.461  2.5855 -1.2372 -0.0855
 8908TIP3    H248140   1.833   4.767  13.345  0.0892  2.9211 -0.9846
 8909TIP3   OH248141   3.902   5.481   3.076  0.1389  0.1462 -0.8320
 8909TIP3    H148142   3.886   5.403   3.022 -0.2829 -0.1101 -0.3526
 8909TIP3    H248143   3.914   5.446   3.164  0.8024  0.5611 -0.7538
 8910TIP3   OH248144   2.210   2.126  13.373  0.2054 -0.6586  0.0347
 8910TIP3    H148145   2.208   2.221  13.365  1.2165 -0.6997 -1.1017
 8910TIP3    H248146   2.180   2.094  13.288  0.2985 -1.3490  0.2512
 8911TIP3   OH248147   4.283   2.713   1.659 -0.3031 -0.2995  0.2683
 8911TIP3    H148148   4.189   2.731   1.645 -0.2779  1.6854  2.0899
 8911TIP3    H248149   4.294   2.717   1.754  1.8626  0.9629  0.0245
 8912TIP3   OH248150   5.899   5.945  15.390 -0.5473 -0.4235 -0.1912
 8912TIP3    H148151   5.990   5.929  15.414 -0.5478  0.2076  0.2583
 8912TIP3    H248152   5.900   6.032  15.349 -0.9812 -0.3146  0.0245
 8913TIP3   OH248153   1.079   6.300   6.212  0.3740 -0.2202 -0.2500
 8913TIP3    H148154   1.099   6.230   6.275  2.0403 -0.3562 -0.8734
 8913TIP3    H248155   1.165   6.327   6.179 -0.2774  1.7032 -0.4903
 8914TIP3   OH248156   5.011   4.964  15.811 -0.2137 -0.3040 -0.1397
 8914TIP3    H148157   4.979   4.994  15.896 -1.5162  0.3291 -0.8274
 8914TIP3    H248158   5.073   4.894  15.833  0.5319  0.7478  1.3755
 8915TIP3   OH248159   4.488   0.694   5.866 -0.4057  0.3317  0.4210
 8915TIP3    H148160   4.516   0.730   5.950 -1.0488  1.2617  0.2466
 8915TIP3    H248161   4.493   0.599   5.878 -0.6714  0.4500  1.5714
 8916TIP3   OH248162   3.883   1.842  12.353 -0.0860 -0.1252  0.0046
 8916TIP3    H148163   3.919   1.874  12.271 -1.2959 -0.6093 -0.7420
 8916TIP3    H248164   3.809   1.901  12.371  1.5071  1.4521  1.9934
 8917TIP3   OH248165   2.045   1.472  14.073  0.5773  0.6161  0.0340
 8917TIP3    H148166   2.082   1.406  14.014  0.3375  1.6425 -1.3075
 8917TIP3    H248167   2.056   1.555  14.026  1.7813  1.7165  2.0928
 8918TIP3   OH248168   1.757   2.926   2.791  0.2682 -0.0256 -0.3458
 8918TIP3    H148169   1.732   3.009   2.751 -0.6112 -0.7669 -1.3872
 8918TIP3    H248170   1.738   2.860   2.724 -1.7552 -1.3759  1.4337
 8919TIP3   OH248171   0.452   2.547  16.041  0.0215 -0.2744  0.2300
 8919TIP3    H148172   0.507   2.571  16.114 -1.2367  0.0239  1.1181
 8919TIP3    H248173   0.441   2.452  16.050 -0.4949 -0.1752  0.7066
 8920TIP3   OH248174   5.610   0.715  16.046  0.2227  0.0837 -0.2641
 8920TIP3    H148175   5.534   0.732  15.990  0.2936  0.1801 -0.3315
 8920TIP3    H248176   5.573   0.671  16.123  0.1410 -0.1655 -0.4439
 8921TIP3   OH248177   5.774   1.752  13.616 -0.2416  0.3116 -0.0510
 8921TIP3    H148178   5.842   1.801  13.662 -2.6338  2.6483  1.2194
 8921TIP3    H248179   5.773   1.790  13.528  1.2678 -1.0435 -0.7116
 8922TIP3   OH248180   2.037   5.238   3.066 -0.2820 -0.5176  0.2388
 8922TIP3    H148181   1.972   5.247   2.997  0.5805 -1.1397 -0.6838
 8922TIP3    H248182   2.025   5.150   3.100 -1.4422  0.1544  1.6899
 8923TIP3   OH248183   6.167   1.278   0.717  0.5425  0.4312 -0.3466
 8923TIP3    H148184   6.101   1.304   0.781  1.5866  0.9193  0.5716
 8923TIP3    H248185   6.133   1.310   0.633  0.2484  1.8749  0.2951
 8924TIP3   OH248186   4.247   1.723  13.870 -0.3651 -0.5866  0.3553
 8924TIP3    H148187   4.203   1.679  13.943 -2.1087 -2.2238 -1.5424
 8924TIP3    H248188   4.340   1.708  13.885 -0.7670 -2.2391  1.4541
 8925TIP3   OH248189   5.893   2.925   5.809  0.1733  0.2614 -0.0968
 8925TIP3    H148190   5.845   3.004   5.785  0.5691 -0.0134 -1.9552
 8925TIP3    H248191   5.868   2.860   5.744  0.4641 -0.9186  0.9293
 8926TIP3   OH248192   6.322   6.744  13.645 -0.0420 -0.5051  0.2864
 8926TIP3    H148193   6.235   6.705  13.641 -0.0281 -0.5517  0.4233
 8926TIP3    H248194   6.353   6.744  13.555 -1.0410  1.4875 -0.0813
 8927TIP3   OH248195   3.187   0.614   0.322 -0.6377  0.1309  0.3305
 8927TIP3    H148196   3.179   0.555   0.396  1.3495 -1.2199 -0.4638
 8927TIP3    H248197   3.272   0.655   0.333 -1.5618  2.2041  0.3390
 8928TIP3   OH248198   4.285   2.494   6.839 -0.0377 -0.0491 -0.3141
 8928TIP3    H148199   4.247   2.522   6.755 -1.7460  1.9341  1.0067
 8928TIP3    H248200   4.251   2.406   6.853  1.7018 -1.1388 -2.4693
 8929TIP3   OH248201   1.038   3.825   2.816  0.4416  0.1316 -0.2320
 8929TIP3    H148202   1.028   3.748   2.872 -0.6246  1.5482  1.6607
 8929TIP3    H248203   1.128   3.822   2.785  0.0995 -2.4861 -1.2425
 8930TIP3   OH248204   2.852   5.388   6.170 -0.0851 -0.0312  0.3258
 8930TIP3    H148205   2.916   5.346   6.227  0.3049 -0.4146 -0.3813
 8930TIP3    H248206   2.826   5.319   6.108  0.7559  0.8112 -1.0098
 8931TIP3   OH248207   3.622   0.515   5.442 -0.2307  0.1925 -0.6727
 8931TIP3    H148208   3.589   0.503   5.531  0.2001 -1.2339 -0.6860
 8931TIP3    H248209   3.545   0.542   5.391 -0.8796 -0.7838 -0.2363
 8932TIP3   OH248210   2.565   1.647   6.210  0.5743  0.0418 -0.1238
 8932TIP3    H148211   2.543   1.553   6.206 -0.3636  0.2755 -1.1226
 8932TIP3    H248212   2.499   1.684   6.269 -0.0382  0.3037 -0.9512
 8933TIP3   OH248213   5.017   1.402  15.850 -0.2227  0.6264  0.6142
 8933TIP3    H148214   4.924   1.423  15.861 -0.6545 -0.8044 -0.0430
 8933TIP3    H248215   5.018   1.309  15.829  1.2919  0.8371 -0.4007
 8934TIP3   OH248216   5.227   5.969  17.192  0.1185  0.0671 -0.1212
 8934TIP3    H148217   5.155   5.998  17.137 -0.0078 -0.1630 -0.0754
 8934TIP3    H248218   5.264   6.050  17.227 -0.5737  0.1521  0.4401
 8935TIP3   OH248219   4.115   0.424   5.900 -0.7694 -0.8290  0.1187
 8935TIP3    H148220   4.038   0.379   5.935 -1.0772 -0.6209 -0.2862
 8935TIP3    H248221   4.159   0.461   5.977 -0.3796 -2.0111  0.4893
 8936TIP3   OH248222   2.227   2.034   5.575 -0.6188 -0.1984  0.5458
 8936TIP3    H148223   2.150   2.020   5.520 -0.3688  0.0196  0.1263
 8936TIP3    H248224   2.232   2.129   5.585  0.2732 -0.1174 -0.4461
 8937TIP3   OH248225   2.866   3.940   2.920 -0.2684  0.0704  0.3546
 8937TIP3    H148226   2.896   4.021   2.879  2.5493 -0.3989  1.2736
 8937TIP3    H248227   2.773   3.954   2.936  0.0489  2.9592  0.1594
 8938TIP3   OH248228   3.601   2.245  12.426  0.0776  0.7100  0.4598
 8938TIP3    H148229   3.541   2.272  12.357  1.3333 -0.2173 -1.0727
 8938TIP3    H248230   3.628   2.326  12.468  0.3115  1.4308 -1.0307
 8939TIP3   OH248231   4.554   2.401   1.818  0.0417  0.2807  0.2648
 8939TIP3    H148232   4.622   2.406   1.751  0.0878 -0.3130  0.2608
 8939TIP3    H248233   4.575   2.472   1.879  0.3847  0.4011  0.0112
 8940TIP3   OH248234   6.030   2.378  12.942 -0.7937  0.0517 -0.6202
 8940TIP3    H148235   6.118   2.349  12.921 -0.7392  0.5135 -1.0307
 8940TIP3    H248236   5.994   2.409  12.859 -0.7130  1.5026 -0.1471
 8941TIP3   OH248237   3.783   2.622  13.022 -0.3128 -1.0937  0.3992
 8941TIP3    H148238   3.845   2.694  13.027 -0.1473 -1.3115  1.7504
 8941TIP3    H248239   3.823   2.560  12.961  0.8633 -1.2800  1.3339
 8942TIP3   OH248240   5.692   4.709  14.817 -0.2136 -0.3748 -0.4636
 8942TIP3    H148241   5.620   4.674  14.765  0.5553 -1.3206 -0.9243
 8942TIP3    H248242   5.659   4.708  14.907 -0.6943 -1.0154 -0.6368
 8943TIP3   OH248243   2.790   0.334   2.853  0.0027  0.1808 -0.4745
 8943TIP3    H148244   2.790   0.257   2.909  0.3288  0.6042  0.1132
 8943TIP3    H248245   2.873   0.331   2.806 -0.2393 -0.1348 -0.8944
 8944TIP3   OH248246   1.751   0.756  13.381  0.0890 -0.1996  0.0668
 8944TIP3    H148247   1.717   0.672  13.410  1.9344 -0.7839  0.6982
 8944TIP3    H248248   1.805   0.736  13.305 -1.7618  0.8466 -1.6036
 8945TIP3   OH248249   5.304   1.980   2.806  0.6769  0.4118  0.9440
 8945TIP3    H148250   5.270   1.894   2.779  2.6090 -0.1136  0.0024
 8945TIP3    H248251   5.342   1.964   2.892  1.1121  0.2993  0.7317
 8946TIP3   OH248252   3.091   2.329   5.151 -0.0342 -0.1428  0.2105
 8946TIP3    H148253   3.083   2.288   5.065 -2.3450 -0.6198  0.6026
 8946TIP3    H248254   3.028   2.400   5.151 -0.7991 -0.7610  1.8079
 8947TIP3   OH248255   0.869   5.731   3.072  0.0579  0.0882  0.6193
 8947TIP3    H148256   0.907   5.769   2.993 -0.3820 -2.1659 -0.7580
 8947TIP3    H248257   0.935   5.670   3.103 -2.1520 -4.0079 -1.8939
 8948TIP3   OH248258   1.860   2.419  11.926  0.8298 -0.1881 -0.1415
 8948TIP3    H148259   1.769   2.406  11.901  0.2478  0.8764  1.3140
 8948TIP3    H248260   1.873   2.361  12.001  0.7765  1.0353  0.8441
 8949TIP3   OH248261   0.901   5.446  15.978 -0.3306 -0.5125 -0.1624
 8949TIP3    H148262   0.915   5.439  15.884 -1.5306 -0.0453 -0.3933
 8949TIP3    H248263   0.982   5.414  16.017  0.1281 -0.8385 -1.3488
 8950TIP3   OH248264   4.947   2.813   3.705 -0.1932 -0.3846  1.0252
 8950TIP3    H148265   5.033   2.849   3.682  0.2796 -2.3540 -0.5924
 8950TIP3    H248266   4.893   2.831   3.628 -0.6934 -0.7937  1.2803
 8951TIP3   OH248267   2.431   0.395  17.294 -0.1136  0.5000  0.2965
 8951TIP3    H148268   2.440   0.489  17.277  1.0775  0.6668  1.6306
 8951TIP3    H248269   2.492   0.354  17.233  0.8959  0.7621  1.1086
 8952TIP3   OH248270   1.871   5.584   3.085  0.5433  0.4211 -0.0083
 8952TIP3    H148271   1.961   5.591   3.114  0.1617 -0.2749  1.4504
 8952TIP3    H248272   1.822   5.562   3.164 -1.1869  2.5493 -0.3907
 8953TIP3   OH248273   2.135   2.505   5.411 -0.4390  0.0527  0.4774
 8953TIP3    H148274   2.055   2.517   5.461  0.0031  0.1214  1.1822
 8953TIP3    H248275   2.200   2.478   5.475 -0.2387 -1.4755 -0.3192
 8954TIP3   OH248276   6.317   0.845  15.728  0.3284 -0.1259 -0.2490
 8954TIP3    H148277   6.374   0.852  15.652  0.1524 -0.0490 -0.3773
 8954TIP3    H248278   6.352   0.908  15.791 -0.5857  1.1561 -0.9652
 8955TIP3   OH248279   2.624   4.804   2.941  0.1584 -0.3645 -0.2576
 8955TIP3    H148280   2.619   4.878   2.881 -1.0607 -0.3799 -0.1964
 8955TIP3    H248281   2.635   4.728   2.885 -0.8385 -0.3642 -0.4656
 8956TIP3   OH248282   0.440   1.139   4.672 -0.6060 -0.3398 -0.3543
 8956TIP3    H148283   0.361   1.090   4.697 -0.7728 -0.3564 -0.8956
 8956TIP3    H248284   0.511   1.076   4.681 -0.5556 -0.1451  0.7620
 8957TIP3   OH248285   3.053   2.976   0.933  0.3784  0.4879 -0.0599
 8957TIP3    H148286   2.959   2.969   0.914  0.3054  0.5495  0.2547
 8957TIP3    H248287   3.096   2.931   0.861  0.1760  1.6728 -0.9668
 8958TIP3   OH248288   3.948   2.760  12.693  0.0103  0.7074  0.4234
 8958TIP3    H148289   3.861   2.725  12.675  0.7814 -1.5845  0.7200
 8958TIP3    H248290   3.961   2.830  12.629 -0.9683 -0.7945 -1.5063
 8959TIP3   OH248291   3.239   2.779  12.111  0.1023  0.2942  0.1170
 8959TIP3    H148292   3.218   2.872  12.101  0.2498  0.2637 -0.4701
 8959TIP3    H248293   3.248   2.767  12.206  1.5898  1.2128  0.1293
 8960TIP3   OH248294   1.169   2.467   4.703  0.0433 -0.3124  0.0712
 8960TIP3    H148295   1.142   2.552   4.670 -1.3296 -0.9271 -0.4600
 8960TIP3    H248296   1.222   2.487   4.780 -0.4327  1.0218  0.0774
 8961TIP3   OH248297   3.682   4.229   4.103  0.6090 -0.1253  0.1258
 8961TIP3    H148298   3.590   4.251   4.092  0.6266 -0.3423 -0.5112
 8961TIP3    H248299   3.721   4.307   4.141  0.2186  0.0821  0.1016
 8962TIP3   OH248300   3.383   3.504   4.328 -0.5030 -0.0192 -0.1931
 8962TIP3    H148301   3.361   3.429   4.272 -0.3555 -0.4612  0.3287
 8962TIP3    H248302   3.411   3.572   4.267 -0.1069 -0.5752 -0.6509
 8963TIP3   OH248303   1.476   0.834   6.547  0.5692 -0.6420  0.2749
 8963TIP3    H148304   1.395   0.799   6.584 -0.6234 -0.3003 -1.8287
 8963TIP3    H248305   1.513   0.762   6.497  1.2437 -0.5979  0.6897
 8964TIP3   OH248306   4.830   4.230   1.141 -0.3618 -0.1558 -0.0210
 8964TIP3    H148307   4.882   4.154   1.116  0.0722  0.1410 -0.0267
 8964TIP3    H248308   4.885   4.278   1.203 -1.0573 -0.4003  0.8148
 8965TIP3   OH248309   3.397   6.611   3.468 -0.4264 -0.2067  0.1739
 8965TIP3    H148310   3.317   6.617   3.519  0.4132 -1.6778  1.7564
 8965TIP3    H248311   3.382   6.537   3.409 -0.3671 -0.2725  0.2407
 8966TIP3   OH248312   5.098   2.316   2.854  0.2217 -0.2096  0.2189
 8966TIP3    H148313   5.111   2.351   2.942  1.6303 -2.2030  0.8828
 8966TIP3    H248314   5.044   2.238   2.867  2.3472 -1.8614 -0.2927
 8967TIP3   OH248315   0.152   0.576  15.423  0.4668  0.6110  0.3989
 8967TIP3    H148316   0.238   0.565  15.463  0.6116  0.4482  0.0404
 8967TIP3    H248317   0.155   0.660  15.379  0.2319  0.8951  0.9096
 8968TIP3   OH248318   5.997   2.616   2.453  0.1816  0.7999 -0.0476
 8968TIP3    H148319   5.935   2.602   2.525 -0.0829  1.7260 -0.0781
 8968TIP3    H248320   5.992   2.535   2.401  0.6503 -0.0278  1.1520
 8969TIP3   OH248321   6.240   5.386   1.044 -0.2487 -0.1107  0.0729
 8969TIP3    H148322   6.168   5.352   1.096 -0.1875 -0.8052 -0.2813
 8969TIP3    H248323   6.273   5.310   0.996 -0.8203  0.6365 -1.5829
 8970TIP3   OH248324   2.987   1.070   4.030 -0.1420  0.6456 -0.6297
 8970TIP3    H148325   2.902   1.101   3.999 -0.7495 -0.6680 -0.3616
 8970TIP3    H248326   2.969   0.982   4.063  0.8675  1.1853  1.5418
 8971TIP3   OH248327   4.615   4.381   1.065  0.3830  0.1310 -0.4159
 8971TIP3    H148328   4.670   4.309   1.035 -0.1431 -0.0812 -0.8847
 8971TIP3    H248329   4.656   4.410   1.147 -0.5681 -2.0899  0.9510
 8972TIP3   OH248330   6.300   1.839  11.419 -0.6003  0.3992 -0.5521
 8972TIP3    H148331   6.255   1.802  11.343 -0.6139  0.7816 -0.7310
 8972TIP3    H248332   6.229   1.871  11.475 -0.7058 -1.5212  0.5039
 8973TIP3   OH248333   5.196   4.042   1.883  0.0106  0.0257 -0.0176
 8973TIP3    H148334   5.123   4.098   1.911 -1.5256 -2.4843  1.4433
 8973TIP3    H248335   5.267   4.103   1.863 -2.3593  2.6064 -1.2746
 8974TIP3   OH248336   2.260   5.428   3.393 -0.5511  0.1530  0.4339
 8974TIP3    H148337   2.328   5.482   3.433 -0.7097  0.8120 -0.1629
 8974TIP3    H248338   2.178   5.463   3.428 -0.6268 -0.1367  0.5527
 8975TIP3   OH248339   1.009   1.026  16.258 -0.4128 -0.1065  1.0202
 8975TIP3    H148340   1.059   1.107  16.260 -1.8100  0.7905  1.3681
 8975TIP3    H248341   0.988   1.013  16.165  2.1555 -1.6449  0.5520
 8976TIP3   OH248342   1.718   1.485  14.952 -0.1384 -0.0400  0.1308
 8976TIP3    H148343   1.714   1.400  14.996  0.1227 -0.2928 -0.3242
 8976TIP3    H248344   1.661   1.475  14.875 -2.5918  1.1724  1.6498
 8977TIP3   OH248345   4.974   4.149   2.007  0.9034  0.1931 -0.2934
 8977TIP3    H148346   4.918   4.160   2.083  0.1709  0.8625 -0.9116
 8977TIP3    H248347   4.932   4.200   1.938  3.1260  2.0977 -0.3624
 8978TIP3   OH248348   6.092   5.807   3.553 -0.4045 -0.5938 -0.0304
 8978TIP3    H148349   5.998   5.822   3.559 -0.2450  0.6313 -0.3091
 8978TIP3    H248350   6.128   5.891   3.524  0.5569 -1.6147 -1.9397
 8979TIP3   OH248351   0.970   1.115   6.628 -0.1482  0.3164 -0.0466
 8979TIP3    H148352   0.916   1.072   6.694  0.6973  1.8950  1.7453
 8979TIP3    H248353   0.912   1.182   6.591 -0.2441  0.2284 -0.0579
 8980TIP3   OH248354   0.534   1.285  13.881  0.5104  0.3797 -0.2555
 8980TIP3    H148355   0.599   1.227  13.841  0.1786  1.0600 -1.8619
 8980TIP3    H248356   0.450   1.242  13.864  0.4480 -0.0978  1.1218
 8981TIP3   OH248357   2.431   6.612   3.163  0.0192 -0.0284  0.1262
 8981TIP3    H148358   2.364   6.626   3.230  1.7751  0.9019  1.7698
 8981TIP3    H248359   2.437   6.695   3.116 -1.0725 -0.6187 -1.1437
 8982TIP3   OH248360   0.894   0.541   4.139  0.4682 -0.0300 -0.2416
 8982TIP3    H148361   0.976   0.542   4.190  0.3839  0.5084 -0.1109
 8982TIP3    H248362   0.872   0.448   4.131 -0.2730 -0.0994  1.9236
 8983TIP3   OH248363   4.262   6.554  13.143 -0.1050  0.1124  0.7183
 8983TIP3    H148364   4.266   6.643  13.178  1.7576  1.0088 -1.4921
 8983TIP3    H248365   4.352   6.523  13.147 -0.0624 -0.3062 -1.6108
 8984TIP3   OH248366   5.420   2.671  15.745 -0.0945 -0.1006  0.0074
 8984TIP3    H148367   5.361   2.702  15.813 -0.8543 -0.9754 -0.2390
 8984TIP3    H248368   5.464   2.595  15.784 -1.3871 -1.3284 -0.8446
 8985TIP3   OH248369   5.335   3.602   6.261  0.1510  0.3881  0.4839
 8985TIP3    H148370   5.363   3.574   6.174 -0.3494 -0.4237  0.5742
 8985TIP3    H248371   5.271   3.671   6.244  0.8841  1.0231  0.2418
 8986TIP3   OH248372   5.606   6.358  16.957 -0.4592 -0.0495 -0.0215
 8986TIP3    H148373   5.527   6.353  17.011  0.0131 -2.4626  0.5538
 8986TIP3    H248374   5.674   6.318  17.011  1.1525  1.7642 -0.5981
 8987TIP3   OH248375   0.286   3.959  16.913 -0.1969  0.0037 -0.2321
 8987TIP3    H148376   0.282   3.906  16.993  0.4322  0.5425  0.1657
 8987TIP3    H248377   0.361   3.924  16.865 -0.8159 -0.5827 -0.7857
 8988TIP3   OH248378   0.986   0.610  11.809  0.3494 -0.1726  0.2971
 8988TIP3    H148379   0.930   0.637  11.736  0.3070  1.9183  1.0278
 8988TIP3    H248380   1.024   0.527  11.781 -2.2659 -1.1276 -0.6662
 8989TIP3   OH248381   3.711   3.258   5.304 -0.1304 -0.7479  0.2883
 8989TIP3    H148382   3.724   3.327   5.239 -0.4646 -1.0802 -0.1425
 8989TIP3    H248383   3.690   3.180   5.252  2.5989 -1.7804  0.5912
 8990TIP3   OH248384   5.239   5.468  16.100  0.1903 -0.2995 -0.1753
 8990TIP3    H148385   5.170   5.449  16.037 -0.5825  0.2305  0.4941
 8990TIP3    H248386   5.285   5.544  16.064  1.2836 -1.4362 -1.2751
 8991TIP3   OH248387   4.271   3.917  15.058  0.4400  0.1917 -0.1276
 8991TIP3    H148388   4.253   3.844  15.118  1.7286 -1.3130 -1.4487
 8991TIP3    H248389   4.305   3.874  14.979 -0.8278  2.1133 -1.8006
 8992TIP3   OH248390   6.403   4.073  15.956 -0.5714  0.7317 -0.7068
 8992TIP3    H148391   6.496   4.065  15.933 -0.9373  0.3651 -2.2076
 8992TIP3    H248392   6.361   4.104  15.876 -1.9230 -0.3445 -0.4565
 8993TIP3   OH248393   2.090   3.749   1.987 -0.2711  0.2078  0.0113
 8993TIP3    H148394   2.164   3.695   2.017  0.5497  0.8467 -0.8203
 8993TIP3    H248395   2.016   3.717   2.038  0.3264 -1.2721 -0.0006
 8994TIP3   OH248396   2.256   4.538   0.420 -0.1807 -0.2165  0.2280
 8994TIP3    H148397   2.214   4.453   0.414 -1.0556  0.2313 -0.2313
 8994TIP3    H248398   2.184   4.601   0.412  0.5926  0.5803 -0.8700
 8995TIP3   OH248399   3.151   1.404   1.785 -0.0874 -0.2350 -0.2252
 8995TIP3    H148400   3.153   1.328   1.727 -0.0484 -0.5174  0.1439
 8995TIP3    H248401   3.209   1.468   1.743 -0.4027 -0.2661 -0.7241
 8996TIP3   OH248402   1.771   3.683  13.047  0.4175  0.1060 -0.0106
 8996TIP3    H148403   1.850   3.693  13.100  1.1190 -0.1266 -0.9828
 8996TIP3    H248404   1.758   3.770  13.008  0.0110  0.2268  0.3926
 8997TIP3   OH248405   3.738   2.407   4.908  0.1485 -0.5138 -0.7840
 8997TIP3    H148406   3.654   2.453   4.914 -0.4948 -1.6972 -0.5275
 8997TIP3    H248407   3.768   2.426   4.819 -0.9253 -0.9548 -1.2616
 8998TIP3   OH248408   5.614   5.990   4.576  0.1538 -0.1830  0.1736
 8998TIP3    H148409   5.688   6.023   4.626 -0.6602  1.6137  0.2707
 8998TIP3    H248410   5.577   6.067   4.533 -0.8984 -1.2277 -0.9106
 8999TIP3   OH248411   2.466   6.665  10.389  0.0938 -0.4418  0.7991
 8999TIP3    H148412   2.460   6.760  10.400 -0.9987 -0.5882  1.6633
 8999TIP3    H248413   2.377   6.634  10.403  0.5887 -1.6692  1.3620
 9000TIP3   OH248414   0.081   4.312  16.765 -0.6199  0.0052  0.1003
 9000TIP3    H148415   0.154   4.286  16.820 -1.1648 -0.2770  0.6960
 9000TIP3    H248416   0.034   4.378  16.816 -1.5375 -0.7766  0.2902
 9001TIP3   OH248417   2.162   2.311  13.665  1.0988 -0.2834 -0.2234
 9001TIP3    H148418   2.082   2.264  13.641 -0.0751  1.5887 -0.1764
 9001TIP3    H248419   2.188   2.272  13.749  0.1845 -0.8583 -0.1880
 9002TIP3   OH248420   0.806   4.079   3.247 -0.1295  0.2715  0.4451
 9002TIP3    H148421   0.852   4.129   3.179  0.9197 -0.9746  0.1947
 9002TIP3    H248422   0.862   4.085   3.324  0.5567 -1.3017  0.1222
 9003TIP3   OH248423   4.302   3.526  15.064  0.3909 -0.2075 -0.9941
 9003TIP3    H148424   4.286   3.600  15.007 -0.6978  0.4681  0.1439
 9003TIP3    H248425   4.262   3.550  15.148  1.0892 -1.5597 -0.2239
 9004TIP3   OH248426   2.950   5.035  16.668 -0.0544 -0.0727 -1.1089
 9004TIP3    H148427   2.997   5.009  16.747  0.9870  2.3105 -0.8616
 9004TIP3    H248428   2.865   4.991  16.675  1.2239 -2.6530 -0.4421
 9005TIP3   OH248429   2.023   1.186  13.865  0.2583  0.5084 -0.6259
 9005TIP3    H148430   2.013   1.202  13.959 -1.3143  0.5674 -0.7769
 9005TIP3    H248431   2.033   1.091  13.858 -1.2472  0.3099 -0.4821
 9006TIP3   OH248432   4.012   1.530   4.084 -0.1600 -0.4391 -0.0943
 9006TIP3    H148433   4.084   1.539   4.021 -0.2579 -0.5524 -0.2221
 9006TIP3    H248434   3.935   1.561   4.037 -0.2375 -0.5458 -0.0356
 9007TIP3   OH248435   4.290   1.821   2.313 -0.2704  0.2381  0.4831
 9007TIP3    H148436   4.283   1.819   2.217  2.4421  1.2768  0.1752
 9007TIP3    H248437   4.213   1.871   2.341 -0.3302  1.2624 -1.2994
 9008TIP3   OH248438   3.935   3.691  15.539  0.1519 -0.3623 -0.3859
 9008TIP3    H148439   3.916   3.697  15.633 -0.7981 -1.7820 -0.4518
 9008TIP3    H248440   3.883   3.761  15.500  0.6094  0.2869  0.1427
 9009TIP3   OH248441   1.830   4.143  15.441  0.4448 -0.7752  0.1667
 9009TIP3    H148442   1.837   4.218  15.500  1.6880 -1.2852  0.6831
 9009TIP3    H248443   1.871   4.071  15.488 -0.3799 -1.7049 -0.4877
 9010TIP3   OH248444   5.662   2.874  17.318  0.1327  0.0897 -0.2610
 9010TIP3    H148445   5.583   2.859  17.370 -0.3188  0.0289 -0.9579
 9010TIP3    H248446   5.671   2.796  17.265  1.7307 -0.7589  1.1373
 9011TIP3   OH248447   0.203   2.404   3.728  0.3947  0.3473 -0.4688
 9011TIP3    H148448   0.127   2.461   3.731 -0.3927 -0.5762 -1.9619
 9011TIP3    H248449   0.247   2.419   3.812 -0.8395  1.6693 -0.0156
 9012TIP3   OH248450   1.635   0.909   6.750  0.1648 -0.5599  0.5468
 9012TIP3    H148451   1.674   0.989   6.715  1.0384 -0.1123  2.4257
 9012TIP3    H248452   1.546   0.908   6.715  0.1500  1.2051  0.4452
 9013TIP3   OH248453   5.408   3.494  11.765 -0.0237 -0.0712  0.0572
 9013TIP3    H148454   5.486   3.544  11.739 -0.8103  0.6088 -1.0535
 9013TIP3    H248455   5.383   3.534  11.849 -0.3983  1.1517 -0.6101
 9014TIP3   OH248456   2.482   4.644   0.519  0.0727  0.1702 -0.0250
 9014TIP3    H148457   2.409   4.584   0.536  0.3870  0.1218  1.2450
 9014TIP3    H248458   2.560   4.589   0.522  0.1395 -0.0374 -2.7376
 9015TIP3   OH248459   1.694   0.646   6.830 -0.2820  0.5843  0.3126
 9015TIP3    H148460   1.777   0.641   6.878  0.9101 -1.7795 -1.7866
 9015TIP3    H248461   1.679   0.740   6.819  0.9100  1.1375  2.6542
 9016TIP3   OH248462   3.102   2.615  16.592 -0.4530 -0.1314  0.0226
 9016TIP3    H148463   3.043   2.657  16.529 -0.1999 -1.0068 -0.8270
 9016TIP3    H248464   3.060   2.629  16.677 -2.0574 -0.9900 -0.5902
 9017TIP3   OH248465   0.018   5.968   1.118 -0.0019 -0.0627  0.0802
 9017TIP3    H148466  -0.006   5.896   1.177 -1.0288 -0.2363 -0.5360
 9017TIP3    H248467   0.087   6.015   1.165 -0.5979 -0.3729  1.3027
 9018TIP3   OH248468   2.939   4.443   5.322  0.5621 -0.0728 -0.1727
 9018TIP3    H148469   2.866   4.449   5.384  0.4294  0.6858 -0.3963
 9018TIP3    H248470   3.017   4.455   5.376  0.4075  1.5798 -0.2665
 9019TIP3   OH248471   2.449   4.683   1.520 -0.0248 -0.1723 -0.5041
 9019TIP3    H148472   2.394   4.759   1.500 -0.8193 -0.5184  0.2821
 9019TIP3    H248473   2.531   4.701   1.476  0.0377  1.4765  0.1962
 9020TIP3   OH248474   6.674   3.310  15.569 -0.0495 -0.0455 -0.3822
 9020TIP3    H148475   6.611   3.366  15.524  0.4850  0.8989  0.0288
 9020TIP3    H248476   6.634   3.292  15.654 -0.4780 -0.7868 -0.7202
 9021TIP3   OH248477   1.793   3.505  10.631  0.0919  0.2219  0.1455
 9021TIP3    H148478   1.791   3.531  10.539  1.9075  0.7783  0.2185
 9021TIP3    H248479   1.728   3.561  10.673 -1.8818 -1.0897 -0.9958
 9022TIP3   OH248480   1.270   4.070  16.933  0.0465 -0.4043 -0.7124
 9022TIP3    H148481   1.214   4.143  16.908 -0.2147 -0.8000 -1.3030
 9022TIP3    H248482   1.351   4.110  16.962  0.0180  0.1040 -1.3292
 9023TIP3   OH248483   2.034   2.858   0.282 -0.0251  0.2729  0.2042
 9023TIP3    H148484   2.065   2.770   0.305 -0.5435  0.2753  0.9353
 9023TIP3    H248485   2.109   2.899   0.238  0.3427 -0.4085  0.1890
 9024TIP3   OH248486   5.575   1.239   3.124  0.4890 -0.3875 -0.5870
 9024TIP3    H148487   5.552   1.189   3.046 -1.5644 -0.2316 -0.1416
 9024TIP3    H248488   5.654   1.197   3.158  0.9178 -0.9781 -2.2590
 9025TIP3   OH248489   2.153   2.702   4.959  0.1470  0.8118  0.1130
 9025TIP3    H148490   2.096   2.625   4.954  0.2361  0.8136 -1.2340
 9025TIP3    H248491   2.209   2.685   5.035 -0.2387 -0.1669  0.1951
 9026TIP3   OH248492   3.702   6.352  15.620  0.0768  0.1285 -0.0473
 9026TIP3    H148493   3.686   6.315  15.706  1.7077 -0.3302  0.1072
 9026TIP3    H248494   3.636   6.420  15.609 -1.5847 -1.3194  0.5973
 9027TIP3   OH248495   5.090   6.708   0.498  0.0816  0.1682 -0.0952
 9027TIP3    H148496   5.167   6.687   0.445 -1.2429 -1.0856 -1.6563
 9027TIP3    H248497   5.040   6.769   0.443 -0.4584  0.2618  0.4942
 9028TIP3   OH248498   6.277   1.983   6.172 -0.0862 -0.4237 -0.1839
 9028TIP3    H148499   6.207   1.933   6.214  0.6092 -1.6453 -0.4393
 9028TIP3    H248500   6.356   1.961   6.221  0.7688 -1.9617 -2.1174
 9029TIP3   OH248501   5.380   2.540  12.218  0.5888  0.2146  0.0463
 9029TIP3    H148502   5.336   2.455  12.224  4.5627 -2.0992  0.0858
 9029TIP3    H248503   5.395   2.552  12.124  2.1930 -0.4749  0.1798
 9030TIP3   OH248504   2.656   2.556   6.109 -0.4622  0.8528 -0.1405
 9030TIP3    H148505   2.629   2.515   6.190 -1.6110  1.1565 -0.3464
 9030TIP3    H248506   2.735   2.510   6.083  0.1299  1.0012  1.3312
 9031TIP3   OH248507   6.392   4.842  13.263 -0.0275  0.3351 -0.0861
 9031TIP3    H148508   6.330   4.865  13.332  1.5897 -0.3656  1.7129
 9031TIP3    H248509   6.477   4.843  13.306  1.2527  1.1956 -2.4335
 9032TIP3   OH248510   3.591   5.128   0.969 -0.0886 -0.1182 -0.1174
 9032TIP3    H148511   3.515   5.122   1.027  1.1158  2.9823  2.0580
 9032TIP3    H248512   3.658   5.073   1.011 -0.0800 -0.0991 -0.1062
 9033TIP3   OH248513   0.025   4.898  13.420 -0.0242  0.3302  0.0062
 9033TIP3    H148514  -0.065   4.880  13.444  0.3458 -1.5891  0.1310
 9033TIP3    H248515   0.071   4.816  13.437  1.8460  1.3965  0.3928
 9034TIP3   OH248516   1.295   1.385   2.162 -0.6434 -0.3998 -0.2999
 9034TIP3    H148517   1.216   1.352   2.204 -0.2713  0.7328  1.4309
 9034TIP3    H248518   1.362   1.319   2.181 -0.5122  0.0364  0.8415
 9035TIP3   OH248519   6.306   6.148   2.360 -0.6050 -0.3518 -0.3925
 9035TIP3    H148520   6.302   6.084   2.432 -0.4685 -1.1332 -1.0587
 9035TIP3    H248521   6.366   6.108   2.297  0.5068  1.0321 -0.2679
 9036TIP3   OH248522   4.337   3.710   0.763  0.1125  0.2832  0.5871
 9036TIP3    H148523   4.428   3.679   0.760 -0.1989 -0.6540 -1.8798
 9036TIP3    H248524   4.339   3.796   0.722  0.0036  0.6480  1.3373
 9037TIP3   OH248525   3.041   5.496   0.863  0.3880  0.1170 -0.8782
 9037TIP3    H148526   2.989   5.442   0.804  0.1905  0.7126 -1.2537
 9037TIP3    H248527   3.118   5.520   0.812  0.8409 -0.4257 -0.4607
 9038TIP3   OH248528   5.627   0.068  17.332  0.6577  0.4028  1.0028
 9038TIP3    H148529   5.647   0.030  17.417 -0.7821 -2.6242  0.1078
 9038TIP3    H248530   5.544   0.113  17.344  0.0564 -0.6951  1.0545
 9039TIP3   OH248531   3.935   0.519  11.674 -0.4679  0.0246  0.1209
 9039TIP3    H148532   3.915   0.426  11.686 -1.2299  0.0545 -0.7101
 9039TIP3    H248533   3.946   0.528  11.579  0.4673  0.6256  0.2793
 9040TIP3   OH248534   1.581   2.776   2.049  0.4167  0.3421  0.3657
 9040TIP3    H148535   1.565   2.767   1.955 -1.3873 -0.3289  0.6843
 9040TIP3    H248536   1.600   2.687   2.078  2.3526  0.7460  0.4538
 9041TIP3   OH248537   6.588   2.164  12.919  0.4266 -0.4450  0.7511
 9041TIP3    H148538   6.560   2.123  13.001  0.2233 -0.3136  0.7484
 9041TIP3    H248539   6.506   2.187  12.875  0.5331 -0.5389  0.4977
 9042TIP3   OH248540   1.932   1.478   3.213 -0.2507 -0.0836  0.4371
 9042TIP3    H148541   1.876   1.401   3.203  0.1541 -0.4680  1.0139
 9042TIP3    H248542   1.958   1.500   3.124 -1.7378  0.4372  0.1063
 9043TIP3   OH248543   5.846   3.403  12.370 -0.3308  0.0663 -0.4779
 9043TIP3    H148544   5.896   3.322  12.364  0.5991  0.5883  0.1525
 9043TIP3    H248545   5.902   3.469  12.329 -0.4912  0.6549  0.2314
 9044TIP3   OH248546   1.342   6.015   0.135 -0.1090 -0.2157 -0.5180
 9044TIP3    H148547   1.409   5.993   0.070 -0.7376  0.4259 -1.4042
 9044TIP3    H248548   1.323   6.107   0.120 -1.8128 -0.5977 -0.8638
 9045TIP3   OH248549   0.582   3.464  13.734 -0.3827 -0.3717 -0.2381
 9045TIP3    H148550   0.605   3.481  13.825 -1.3032 -0.6710  0.0611
 9045TIP3    H248551   0.494   3.500  13.724 -0.2669 -0.2943 -1.0233
 9046TIP3   OH248552   0.554   6.736  15.633  0.2494 -0.5246 -0.0372
 9046TIP3    H148553   0.579   6.664  15.576 -1.1593 -0.7093 -0.4711
 9046TIP3    H248554   0.458   6.730  15.638  0.2364  0.3190  1.2441
 9047TIP3   OH248555   1.285   0.074  14.158 -0.6937 -0.7290  0.3582
 9047TIP3    H148556   1.265   0.133  14.084  2.8859  0.2015 -0.0839
 9047TIP3    H248557   1.252  -0.011  14.130  0.5801 -0.4351 -2.4688
 9048TIP3   OH248558   4.429   2.111   3.599  0.0093 -0.0009 -0.1529
 9048TIP3    H148559   4.373   2.146   3.530 -1.1295 -0.9491  0.2606
 9048TIP3    H248560   4.385   2.135   3.680  1.1659  0.8224  0.2655
 9049TIP3   OH248561   5.835   5.688  14.187  0.1317  0.4821  0.2436
 9049TIP3    H148562   5.918   5.736  14.189 -0.2585  1.1754  1.4011
 9049TIP3    H248563   5.856   5.601  14.219  0.5241  0.4666 -0.0559
 9050TIP3   OH248564   3.653   4.908  14.585 -0.1863  0.2059 -0.2633
 9050TIP3    H148565   3.712   4.888  14.512 -2.4485 -2.2026 -1.6340
 9050TIP3    H248566   3.663   4.835  14.646  0.5350  1.4103  1.1156
 9051TIP3   OH248567   5.548   5.991  13.145  0.1405 -0.0467  0.0375
 9051TIP3    H148568   5.572   6.066  13.091 -0.4942 -0.8877 -1.4801
 9051TIP3    H248569   5.622   5.931  13.136 -1.3673 -1.7081 -2.8918
 9052TIP3   OH248570   3.613   3.022  14.801 -0.8635 -0.4763 -0.0302
 9052TIP3    H148571   3.645   3.083  14.867  1.0119 -1.8853  0.4456
 9052TIP3    H248572   3.619   3.070  14.719 -0.3156  0.2982  0.4491
 9053TIP3   OH248573   3.121   4.835   6.441 -0.1474  1.0626  0.5771
 9053TIP3    H148574   3.144   4.906   6.501  0.3830  0.8300  0.6523
 9053TIP3    H248575   3.203   4.811   6.399 -0.2466  0.2103  0.8561
 9054TIP3   OH248576   5.134   0.904  13.041  0.3185  0.1857 -0.2648
 9054TIP3    H148577   5.042   0.911  13.068  0.6385 -2.3579  1.9033
 9054TIP3    H248578   5.152   0.986  12.995 -3.1415  0.5682 -1.1950
 9055TIP3   OH248579   1.427   3.070  14.848 -0.6136  0.0923  0.4926
 9055TIP3    H148580   1.464   3.095  14.763  1.0887 -0.5762  1.0056
 9055TIP3    H248581   1.469   2.987  14.870  1.9732  2.0205  3.7272
 9056TIP3   OH248582   3.532   4.818   1.219 -0.0294  0.3089  0.6991
 9056TIP3    H148583   3.445   4.852   1.197  0.0258  0.6218  0.9600
 9056TIP3    H248584   3.593   4.880   1.181  0.0953 -0.3436 -0.1791
 9057TIP3   OH248585   5.209   5.487  14.606 -0.1536  0.2774 -0.4046
 9057TIP3    H148586   5.231   5.458  14.694 -1.9118  1.6899  0.5445
 9057TIP3    H248587   5.291   5.523  14.571  0.2539  0.8587  1.1152
 9058TIP3   OH248588   3.779   2.985  16.999 -0.2889 -0.3565 -0.1625
 9058TIP3    H148589   3.733   2.955  17.078 -0.6566  1.2303  0.2745
 9058TIP3    H248590   3.710   2.994  16.933 -0.1738 -0.5203 -0.3062
 9059TIP3   OH248591   0.234   1.627   5.698  0.3896 -0.5652  0.3544
 9059TIP3    H148592   0.260   1.539   5.672 -0.0132 -1.4394  2.6170
 9059TIP3    H248593   0.295   1.685   5.652  1.0146 -2.0396 -0.7633
 9060TIP3   OH248594   6.273   1.543  16.710  0.1252  0.8057  0.5809
 9060TIP3    H148595   6.269   1.582  16.622 -0.6745 -1.4933 -0.4855
 9060TIP3    H248596   6.207   1.590  16.760 -1.7619  0.0231 -1.0413
 9061TIP3   OH248597   2.846   1.118  11.577  0.1930 -0.5245 -0.3499
 9061TIP3    H148598   2.800   1.199  11.600  1.5579  0.3775 -0.6127
 9061TIP3    H248599   2.935   1.148  11.554  0.4586 -1.9976 -1.3573
 9062TIP3   OH248600   3.083   4.677   5.586  0.5203  0.0766 -0.2336
 9062TIP3    H148601   3.094   4.583   5.567 -0.1440  0.0640 -0.5615
 9062TIP3    H248602   3.146   4.720   5.528  0.9584 -0.1683  0.0472
 9063TIP3   OH248603   1.791   4.819   4.491  0.0194 -0.0714  0.1960
 9063TIP3    H148604   1.696   4.831   4.498 -0.0989 -1.1395  0.6127
 9063TIP3    H248605   1.814   4.765   4.566  1.1121  0.9014  0.5963
 9064TIP3   OH248606   3.429   0.638   0.895 -0.4163  0.2364  0.0082
 9064TIP3    H148607   3.398   0.597   0.814  0.6727 -0.3514 -0.1354
 9064TIP3    H248608   3.395   0.583   0.965  1.0435 -1.0024 -0.1814
 9065TIP3   OH248609   0.719   5.050   2.843 -0.3689 -1.1418 -0.2146
 9065TIP3    H148610   0.662   5.091   2.777 -0.4418 -1.7964 -0.5661
 9065TIP3    H248611   0.742   4.965   2.805 -2.3862 -2.6208  1.5876
 9066TIP3   OH248612   4.995   5.333  14.541 -0.3613 -0.7028 -0.1327
 9066TIP3    H148613   5.070   5.391  14.557  0.2503 -0.4425 -3.3770
 9066TIP3    H248614   4.923   5.392  14.522 -0.4921 -0.9723 -0.4869
 9067TIP3   OH248615   3.809   1.464   6.506  0.2047 -0.6116 -0.5019
 9067TIP3    H148616   3.863   1.413   6.566  1.1502 -0.0171 -0.8170
 9067TIP3    H248617   3.799   1.549   6.550  0.4366 -0.3603 -0.9270
 9068TIP3   OH248618   4.783   4.928  12.424  0.1072  0.0528  0.2379
 9068TIP3    H148619   4.807   4.836  12.413  2.1333  0.2481  2.2786
 9068TIP3    H248620   4.735   4.931  12.506 -1.0567  0.6946 -0.4296
 9069TIP3   OH248621   6.122   3.292   1.491  0.4383  0.4651 -0.0959
 9069TIP3    H148622   6.100   3.385   1.500  0.4166  0.4765 -0.2677
 9069TIP3    H248623   6.071   3.262   1.416 -1.3988 -0.2672  1.3903
 9070TIP3   OH248624   2.763   4.763  14.068  0.2118  0.3520  0.0139
 9070TIP3    H148625   2.792   4.843  14.112  2.2570 -0.3522  0.0571
 9070TIP3    H248626   2.747   4.701  14.139 -0.8551  0.5443 -0.0471
 9071TIP3   OH248627   1.406   4.041   2.008  0.1147  0.1996 -0.3614
 9071TIP3    H148628   1.386   3.986   1.932 -1.4417 -0.4866  0.5294
 9071TIP3    H248629   1.502   4.046   2.008  0.1816 -0.3384 -1.9637
 9072TIP3   OH248630   4.641   2.877   1.996  0.3070 -0.1311  0.0696
 9072TIP3    H148631   4.627   2.842   2.083 -0.5275 -1.5798 -0.6134
 9072TIP3    H248632   4.568   2.938   1.982 -0.8990 -1.6361 -0.4525
 9073TIP3   OH248633   6.191   2.336  14.664 -0.5699 -0.2863  0.1369
 9073TIP3    H148634   6.180   2.391  14.741 -1.7830  1.2196 -1.0401
 9073TIP3    H248635   6.115   2.278  14.664 -1.2213  0.5428 -0.5384
 9074TIP3   OH248636   6.268   5.820   1.294 -0.1473 -0.0038 -0.4489
 9074TIP3    H148637   6.208   5.886   1.330 -0.0845  1.3564 -2.6223
 9074TIP3    H248638   6.221   5.785   1.218  0.2458 -1.8047  0.0927
 9075TIP3   OH248639   2.316   1.166  14.981  0.4502 -0.4896  0.3180
 9075TIP3    H148640   2.387   1.121  15.026  1.0845  0.1871  0.0227
 9075TIP3    H248641   2.358   1.207  14.905  0.2991  2.0894  1.5215
 9076TIP3   OH248642   5.585   2.170  14.847  0.2966  0.0695  0.1993
 9076TIP3    H148643   5.634   2.230  14.904  2.3251 -2.0905  0.8969
 9076TIP3    H248644   5.652   2.110  14.813 -1.5063 -1.3139 -1.0719
 9077TIP3   OH248645   3.430   5.894  16.665  0.2963 -0.2550  0.6144
 9077TIP3    H148646   3.400   5.946  16.591  1.5368 -0.7275 -0.2408
 9077TIP3    H248647   3.483   5.955  16.717  0.8089 -0.3697  0.2237
 9078TIP3   OH248648   3.453   4.190   0.228  0.1818 -0.2826  0.2846
 9078TIP3    H148649   3.518   4.133   0.186  1.1359  1.0068 -0.0491
 9078TIP3    H248650   3.369   4.149   0.208  0.7708 -0.9623 -0.8964
 9079TIP3   OH248651   5.623   4.747  11.283 -0.6510  0.7478 -0.2172
 9079TIP3    H148652   5.696   4.790  11.239 -0.4284  0.0391 -0.5617
 9079TIP3    H248653   5.605   4.801  11.360 -0.8909  1.8758 -1.0413
 9080TIP3   OH248654   4.205   4.618  14.577 -0.8818  0.2201 -0.4047
 9080TIP3    H148655   4.230   4.664  14.657 -0.5629 -0.6765  0.0149
 9080TIP3    H248656   4.286   4.608  14.528 -1.4509  3.4944 -2.3644
 9081TIP3   OH248657   5.939   4.389  11.679  0.2806 -1.2118 -0.6697
 9081TIP3    H148658   5.971   4.303  11.705 -1.3250 -1.6147  0.1077
 9081TIP3    H248659   5.960   4.446  11.753 -2.2037 -1.8528  0.6314
 9082TIP3   OH248660   4.343   0.897   4.507  0.6087  0.2229 -0.3028
 9082TIP3    H148661   4.419   0.948   4.533  0.1330  0.1254  1.3503
 9082TIP3    H248662   4.274   0.962   4.493  0.7040  0.2251 -0.8014
 9083TIP3   OH248663   1.224   0.056   1.345 -0.2630  0.3915  0.3583
 9083TIP3    H148664   1.225   0.011   1.430 -1.2633 -2.0962 -0.8285
 9083TIP3    H248665   1.305   0.030   1.303 -0.2323  0.8093  0.1547
 9084TIP3   OH248666   2.561   2.757   3.720  0.0504 -0.3532 -0.4512
 9084TIP3    H148667   2.544   2.805   3.639 -0.1017  1.2860  0.5295
 9084TIP3    H248668   2.484   2.772   3.775 -0.0147 -1.7563 -0.1182
 9085TIP3   OH248669   2.733   6.041  11.278  0.4901  0.4412  0.0187
 9085TIP3    H148670   2.728   6.094  11.357 -1.5945  1.7649 -0.9232
 9085TIP3    H248671   2.797   6.086  11.223  0.0130  1.0133 -0.0759
 9086TIP3   OH248672   5.567   4.197  11.478 -0.0610 -0.7831 -0.3282
 9086TIP3    H148673   5.637   4.254  11.446 -1.0252 -0.0671 -1.2560
 9086TIP3    H248674   5.556   4.222  11.570  0.7936 -0.8118 -0.2092
 9087TIP3   OH248675   4.976   2.867   0.688 -0.2098 -0.0020  0.0543
 9087TIP3    H148676   4.996   2.806   0.759  0.5125  0.1528 -0.0091
 9087TIP3    H248677   4.994   2.818   0.608 -1.4717 -0.3336 -0.0552
 9088TIP3   OH248678   1.797   1.472   1.014  0.4002  0.6900  0.2005
 9088TIP3    H148679   1.838   1.540   1.067 -1.5717  1.3755  0.9179
 9088TIP3    H248680   1.835   1.390   1.048  0.2247  1.2103  1.7396
 9089TIP3   OH248681   0.616   2.272  15.585  0.3306  0.2407 -0.0343
 9089TIP3    H148682   0.684   2.276  15.652 -0.1435  1.1016  0.4087
 9089TIP3    H248683   0.572   2.188  15.600  0.3146  0.3650  0.6428
 9090TIP3   OH248684   5.093   0.165   5.945 -0.7920 -0.3241 -0.0952
 9090TIP3    H148685   5.005   0.196   5.920 -0.9052  0.2147  0.9111
 9090TIP3    H248686   5.152   0.229   5.905 -0.8658 -0.5240 -0.5337
 9091TIP3   OH248687   0.111   4.369  11.490  0.3175 -0.3994  0.1810
 9091TIP3    H148688   0.161   4.377  11.571  0.3976  0.0751  0.0911
 9091TIP3    H248689   0.027   4.332  11.516 -0.4968  1.7512  0.8225
 9092TIP3   OH248690   6.738   0.952  16.672 -0.1374 -0.0660  0.0012
 9092TIP3    H148691   6.809   0.952  16.608 -0.3654  2.4910 -0.3721
 9092TIP3    H248692   6.762   1.021  16.735 -2.7384  1.7671 -0.8227
 9093TIP3   OH248693   1.934   6.190  12.834  0.1031 -0.2333  0.0062
 9093TIP3    H148694   1.847   6.158  12.807 -0.2745  0.8683 -0.1210
 9093TIP3    H248695   1.916   6.273  12.878  1.0349 -0.3522  0.6319
 9094TIP3   OH248696   1.247   5.225  16.307  0.2541 -0.1128  0.1213
 9094TIP3    H148697   1.323   5.271  16.274 -1.0228  1.1431 -1.2251
 9094TIP3    H248698   1.216   5.278  16.381 -0.1175  0.1597 -0.2255
 9095TIP3   OH248699   4.648   6.609  16.637  0.5169  0.2267 -0.0930
 9095TIP3    H148700   4.742   6.597  16.648  0.5265  0.0252 -0.3857
 9095TIP3    H248701   4.637   6.702  16.619  0.7751  0.0525 -1.2171
 9096TIP3   OH248702   4.798   2.101   2.289  0.0696  0.1338 -0.4715
 9096TIP3    H148703   4.822   2.048   2.213  1.8686 -0.0320  0.1860
 9096TIP3    H248704   4.863   2.081   2.355 -1.0432  0.8231  0.9004
 9097TIP3   OH248705   0.657   3.635  17.044 -0.1549  0.4747 -0.0164
 9097TIP3    H148706   0.718   3.635  16.970  0.0862 -1.2969  0.1287
 9097TIP3    H248707   0.571   3.629  17.005 -0.2063  1.9776 -0.1925
 9098TIP3   OH248708   1.073   5.226  12.308  0.1869 -0.0352 -0.1906
 9098TIP3    H148709   1.036   5.281  12.239  0.9832  0.5077 -0.1986
 9098TIP3    H248710   1.049   5.270  12.390  1.2498  0.6184 -0.2138
 9099TIP3   OH248711   0.507   0.037  13.387 -0.0626  0.3464  0.1804
 9099TIP3    H148712   0.434   0.071  13.336  1.0600  0.8511 -1.1661
 9099TIP3    H248713   0.525   0.104  13.453  0.6040  1.2842 -0.9274
 9100TIP3   OH248714   1.306   4.232  16.329  0.3143  0.0398  0.1736
 9100TIP3    H148715   1.319   4.307  16.271 -0.6608  0.9123  1.0393
 9100TIP3    H248716   1.367   4.246  16.401 -0.1060  0.1976  0.5057
 9101TIP3   OH248717   2.909   5.298  16.845  0.2819 -0.0210  0.3379
 9101TIP3    H148718   2.866   5.382  16.829  1.6702  0.6215 -0.1757
 9101TIP3    H248719   2.856   5.235  16.797 -0.7448  0.5564  0.6787
 9102TIP3   OH248720   4.178   4.473  16.476  0.2320 -0.8429  0.5233
 9102TIP3    H148721   4.117   4.400  16.474  0.7882 -1.3244 -1.7037
 9102TIP3    H248722   4.250   4.446  16.419  0.6148  1.2851 -0.1049
 9103TIP3   OH248723   0.738   4.905  16.955 -0.0628 -0.2680  0.1219
 9103TIP3    H148724   0.778   4.992  16.956  0.2442 -0.4055 -0.1253
 9103TIP3    H248725   0.744   4.875  17.046  0.4840 -0.3284  0.0680
 9104TIP3   OH248726   2.109   2.329  12.161  0.5102  0.0269  0.4805
 9104TIP3    H148727   2.107   2.237  12.133 -1.1946 -0.1965  1.2214
 9104TIP3    H248728   2.018   2.349  12.183  0.4253  2.6214 -1.8302
 9105TIP3   OH248729   3.169   3.838   1.299  0.4440 -0.1345 -0.1011
 9105TIP3    H148730   3.243   3.788   1.334  0.1422 -1.2586 -0.9929
 9105TIP3    H248731   3.093   3.782   1.315 -0.3124  1.2115  1.2184
 9106TIP3   OH248732   3.654   2.383   0.010  0.6840  0.0169  0.1174
 9106TIP3    H148733   3.608   2.391  -0.073  0.6530  0.8879  0.2061
 9106TIP3    H248734   3.587   2.396   0.076  1.0302  1.2728  0.2471
 9107TIP3   OH248735   0.351   0.929   3.384  0.5538  0.7275 -0.0915
 9107TIP3    H148736   0.435   0.900   3.421  0.1496  0.8643  0.9730
 9107TIP3    H248737   0.333   0.867   3.313  0.9561 -0.0490  0.4695
 9108TIP3   OH248738   1.960   3.356   1.652  0.1393  0.1290  0.2385
 9108TIP3    H148739   1.968   3.270   1.612 -1.1745  0.3733 -0.6048
 9108TIP3    H248740   1.934   3.339   1.743 -1.6611 -0.3683 -0.3327
 9109TIP3   OH248741   4.575   0.461  11.595 -0.2793  0.8913  0.0616
 9109TIP3    H148742   4.543   0.461  11.505 -1.1425  1.1725  0.3547
 9109TIP3    H248743   4.522   0.528  11.639 -0.1250  0.5000  0.8575
 9110TIP3   OH248744   5.304   4.968   4.075  0.6186 -0.2971 -0.1059
 9110TIP3    H148745   5.314   4.936   4.164  1.5488 -1.6595 -0.6641
 9110TIP3    H248746   5.375   5.031   4.063  0.6507 -0.3059  0.0373
 9111TIP3   OH248747   6.031   2.645   4.361 -0.3212 -0.4574  0.3044
 9111TIP3    H148748   6.100   2.597   4.315 -0.0160 -0.4954  0.7937
 9111TIP3    H248749   5.984   2.578   4.409 -0.6848 -0.4269 -0.0056
 9112TIP3   OH248750   4.383   0.549  17.347  0.6337  0.1440 -0.0893
 9112TIP3    H148751   4.325   0.625  17.341  0.1874 -0.2134 -0.2932
 9112TIP3    H248752   4.400   0.523  17.257  0.6563 -0.0968 -0.0185
 9113TIP3   OH248753   2.930   0.049   0.824 -0.1221 -0.1045 -0.7929
 9113TIP3    H148754   2.857   0.071   0.882  0.3099 -0.3846 -0.1287
 9113TIP3    H248755   2.996   0.009   0.882  0.7349  0.5288 -1.2973
 9114TIP3   OH248756   3.806   0.974   2.839 -0.4574 -0.7388  0.3892
 9114TIP3    H148757   3.855   0.898   2.806 -1.1218 -1.1420  0.3061
 9114TIP3    H248758   3.736   0.987   2.774 -0.9777 -0.7144  0.9490
 9115TIP3   OH248759   1.522   3.662   2.966  0.7480 -0.3126  0.0829
 9115TIP3    H148760   1.530   3.581   2.915  0.1357 -0.8185  0.7704
 9115TIP3    H248761   1.428   3.674   2.977  0.8687 -0.6717  1.8083
 9116TIP3   OH248762   1.797   5.125  11.502 -0.0333 -0.0839 -0.8419
 9116TIP3    H148763   1.869   5.062  11.496 -0.4855 -1.3875  3.7441
 9116TIP3    H248764   1.718   5.074  11.481 -0.2446 -0.8572  1.4873
 9117TIP3   OH248765   4.784   3.361  12.987 -0.3852  0.0203  0.0588
 9117TIP3    H148766   4.698   3.360  13.028 -0.1052 -0.8332  0.6643
 9117TIP3    H248767   4.841   3.316  13.050  0.7006  1.3349  0.0769
 9118TIP3   OH248768   3.693   6.542   1.276  0.4597  0.2764  0.1660
 9118TIP3    H148769   3.637   6.465   1.272  1.5681 -0.5193 -0.7720
 9118TIP3    H248770   3.771   6.513   1.323  1.4004  0.4627 -1.2257
 9119TIP3   OH248771   2.834   6.038   2.931 -0.6971  0.2452 -0.3140
 9119TIP3    H148772   2.774   6.101   2.891  2.0640  2.7193 -0.9248
 9119TIP3    H248773   2.876   5.994   2.857 -0.8518 -0.5645  0.0696
 9120TIP3   OH248774   2.225   1.047  15.832 -0.0952  0.3126  0.0058
 9120TIP3    H148775   2.271   1.117  15.785 -1.2558  0.4517 -0.9789
 9120TIP3    H248776   2.295   0.991  15.865  0.7968  0.2320 -1.8567
 9121TIP3   OH248777   4.520   0.306  16.288 -0.8014  0.2556 -0.0737
 9121TIP3    H148778   4.474   0.239  16.237 -1.5019  1.2814 -0.8329
 9121TIP3    H248779   4.558   0.258  16.362 -0.6997 -1.0774 -0.9631
 9122TIP3   OH248780   1.450   0.794   1.665  0.1881 -0.1104  0.1185
 9122TIP3    H148781   1.367   0.824   1.627  0.9243  0.1400 -1.4089
 9122TIP3    H248782   1.444   0.699   1.664  0.5154 -0.1583 -1.5698
 9123TIP3   OH248783   4.178   0.945   1.682 -0.0948  0.1210  0.2630
 9123TIP3    H148784   4.178   1.006   1.755  1.5475  0.6275 -0.1087
 9123TIP3    H248785   4.113   0.878   1.705 -2.1941  2.1347  0.5137
 9124TIP3   OH248786   3.238   2.140   3.620  0.1973 -0.2992 -0.5163
 9124TIP3    H148787   3.289   2.112   3.543  1.1971 -0.7661  0.2907
 9124TIP3    H248788   3.195   2.060   3.650 -0.2866 -0.0922 -0.6399
 9125TIP3   OH248789   6.348   2.875   0.315 -0.2224 -0.5730  0.8239
 9125TIP3    H148790   6.366   2.969   0.321  0.7402 -0.7496  0.9351
 9125TIP3    H248791   6.417   2.842   0.258 -1.4099 -1.0030 -0.4064
 9126TIP3   OH248792   2.197   1.643  15.398 -0.3676 -0.5281  0.0111
 9126TIP3    H148793   2.212   1.695  15.319 -0.7955 -1.4147 -0.6669
 9126TIP3    H248794   2.139   1.697  15.451  0.7750  0.5480  0.2297
 9127TIP3   OH248795   1.022   2.101   3.826  0.8565  0.4767 -0.5071
 9127TIP3    H148796   1.049   2.098   3.917 -0.3918  0.2374 -0.1226
 9127TIP3    H248797   1.090   2.054   3.779  1.3046  0.2492  0.3556
 9128TIP3   OH248798   3.725   5.009   0.335 -0.2646  0.1736 -0.3257
 9128TIP3    H148799   3.689   5.086   0.290  0.2419  0.3412 -0.4455
 9128TIP3    H248800   3.695   5.018   0.426 -0.4824  0.3349 -0.4126
 9129TIP3   OH248801   6.414   1.841   0.481 -0.6458 -0.6951  0.7370
 9129TIP3    H148802   6.445   1.760   0.522  0.5198 -0.3205  0.6301
 9129TIP3    H248803   6.464   1.910   0.523  1.6354 -0.3970 -2.1717
 9130TIP3   OH248804   0.352   5.989  17.114  0.4121  0.3793  0.2712
 9130TIP3    H148805   0.290   6.013  17.046  0.1679  0.1299  0.4061
 9130TIP3    H248806   0.395   5.910  17.081 -0.4275 -0.3367  0.8458
 9131TIP3   OH248807   0.625   6.414   2.336 -0.3099 -0.3543 -0.3403
 9131TIP3    H148808   0.555   6.409   2.271  0.1464 -1.2810 -0.7726
 9131TIP3    H248809   0.617   6.333   2.387  0.3418 -0.3825 -0.2774
 9132TIP3   OH248810   4.853   3.325   5.622  0.0336 -0.3298 -0.6232
 9132TIP3    H148811   4.857   3.288   5.710  0.5170 -1.1082 -0.9606
 9132TIP3    H248812   4.760   3.327   5.600 -0.0394 -0.8196 -0.3712
 9133TIP3   OH248813   1.737   4.844  12.737  0.7588 -0.4334 -0.2561
 9133TIP3    H148814   1.766   4.809  12.653  1.5838  0.0308 -0.1696
 9133TIP3    H248815   1.815   4.882  12.776  0.3693 -0.6004  0.7067
 9134TIP3   OH248816   3.801   2.991   0.241 -0.4281  0.5656 -0.3851
 9134TIP3    H148817   3.782   3.051   0.169  2.6007  1.3653 -0.6695
 9134TIP3    H248818   3.755   2.910   0.218 -1.0760  1.3952 -2.2257
 9135TIP3   OH248819   1.990   5.943  16.130  0.1854 -0.2244  0.1299
 9135TIP3    H148820   1.925   5.935  16.200  0.8194  0.0750  0.7663
 9135TIP3    H248821   1.964   5.878  16.066 -0.3951 -0.5237  0.6567
 9136TIP3   OH248822   0.736   3.284  13.610 -0.0640 -0.4664 -0.1115
 9136TIP3    H148823   0.667   3.329  13.660  0.5863 -2.9231  3.2934
 9136TIP3    H248824   0.699   3.198  13.590  1.7371 -1.6630  1.3834
 9137TIP3   OH248825   1.450   5.405  16.985  0.7974  0.6344 -0.0187
 9137TIP3    H148826   1.490   5.440  16.906  1.3413  0.8286  0.3319
 9137TIP3    H248827   1.524   5.382  17.041  0.4587 -1.2089 -0.2846
 9138TIP3   OH248828   6.666   6.715   3.754  0.2628 -0.2100 -0.0435
 9138TIP3    H148829   6.645   6.742   3.665 -1.3787  0.3083  0.4856
 9138TIP3    H248830   6.623   6.779   3.810  3.5035  1.1235  1.1714
 9139TIP3   OH248831   2.666   4.017  14.569 -0.3136  0.0241  0.3525
 9139TIP3    H148832   2.666   3.928  14.534  3.6622  0.2159 -0.6934
 9139TIP3    H248833   2.630   4.009  14.657 -3.1439 -1.9265 -0.8382
 9140TIP3   OH248834   5.330   0.464   1.230  0.0389  0.4551  0.0696
 9140TIP3    H148835   5.285   0.528   1.176 -1.0085 -0.1177  0.2228
 9140TIP3    H248836   5.337   0.386   1.175 -0.2058  0.1657  0.4422
 9141TIP3   OH248837   2.086   3.913  13.381 -0.2237  0.6365 -0.0478
 9141TIP3    H148838   2.178   3.887  13.369 -0.8210 -1.0201 -1.3410
 9141TIP3    H248839   2.084   3.952  13.469  1.3569 -0.9766  0.7708
 9142TIP3   OH248840   4.287   0.533  16.594  0.0873  0.4655 -0.1031
 9142TIP3    H148841   4.317   0.528  16.503  1.0037  0.3381  0.1972
 9142TIP3    H248842   4.236   0.614  16.598  2.0658  1.7801 -0.1734
 9143TIP3   OH248843   6.122   3.331   3.914 -0.3704 -0.0351  0.1102
 9143TIP3    H148844   6.215   3.327   3.934 -0.5699  1.8362  1.7802
 9143TIP3    H248845   6.095   3.239   3.907  1.6434 -0.6091 -0.8277
 9144TIP3   OH248846   6.034   6.751   5.400  0.1961 -0.2891 -0.5335
 9144TIP3    H148847   6.074   6.791   5.323 -0.1439  0.7582 -0.1859
 9144TIP3    H248848   5.941   6.776   5.393 -0.0801 -1.2627 -0.4497
 9145TIP3   OH248849   6.331   5.323  12.144  0.0649  0.1698 -0.0923
 9145TIP3    H148850   6.251   5.305  12.095  0.5123  0.5866 -0.9928
 9145TIP3    H248851   6.309   5.301  12.235 -0.3934 -1.8231 -0.6397
 9146TIP3   OH248852   3.613   3.815   2.983  0.4004 -0.2457  0.5694
 9146TIP3    H148853   3.548   3.794   2.917  0.6147  0.8987 -0.0339
 9146TIP3    H248854   3.565   3.814   3.066 -0.6250  1.5179  0.0373
 9147TIP3   OH248855   4.503   3.113   2.521  0.7355  0.2245  0.4315
 9147TIP3    H148856   4.572   3.074   2.574  1.7031 -0.4959 -1.2731
 9147TIP3    H248857   4.549   3.162   2.453 -0.3599 -1.2184 -1.4578
 9148TIP3   OH248858   6.000   6.552   1.050  0.0220  0.1857  0.2763
 9148TIP3    H148859   5.939   6.482   1.075 -0.3087  0.7544  1.0702
 9148TIP3    H248860   5.999   6.613   1.123  0.5046  0.9056 -0.3011
 9149TIP3   OH248861   5.926   2.739  16.174 -0.0101 -0.3090  0.6616
 9149TIP3    H148862   5.897   2.650  16.157 -1.2421 -0.6702  3.8998
 9149TIP3    H248863   5.846   2.787  16.196  0.8841  0.9979  1.1966
 9150TIP3   OH248864   2.479   3.759  11.915 -1.2093  0.1475  0.4619
 9150TIP3    H148865   2.572   3.749  11.936 -1.3349  0.2223  1.0798
 9150TIP3    H248866   2.455   3.678  11.871 -0.7665  0.2733 -0.0200
 9151TIP3   OH248867   3.687   0.289   4.652 -0.0222  0.0601 -0.2100
 9151TIP3    H148868   3.675   0.197   4.628 -1.0987 -0.2486  1.3600
 9151TIP3    H248869   3.740   0.286   4.731  0.1923  0.8089 -0.3225
 9152TIP3   OH248870   4.059   0.862   1.447 -0.1912 -0.1570 -0.2327
 9152TIP3    H148871   4.109   0.879   1.526  0.2366  1.1803 -0.7731
 9152TIP3    H248872   4.016   0.945   1.427 -2.9373 -1.2952  0.3850
 9153TIP3   OH248873   6.716   5.130   3.891 -0.2304  0.1740 -0.1972
 9153TIP3    H148874   6.647   5.083   3.936  0.8950 -0.4255  0.9775
 9153TIP3    H248875   6.781   5.147   3.959 -0.1561  2.5894 -0.7928
 9154TIP3   OH248876   4.767   1.169   3.264 -0.1064  0.3084  0.3205
 9154TIP3    H148877   4.831   1.149   3.196  0.7304  2.8458  0.2417
 9154TIP3    H248878   4.709   1.093   3.266  0.0992 -0.0567 -2.8793
 9155TIP3   OH248879   5.028   4.231  12.247 -0.3253 -0.1486  0.1063
 9155TIP3    H148880   5.094   4.299  12.232  0.6947 -0.8511  1.2168
 9155TIP3    H248881   5.058   4.186  12.326  1.2714 -4.4511 -2.6012
 9156TIP3   OH248882   1.151   0.228  11.268 -0.6006  0.0154  0.3224
 9156TIP3    H148883   1.139   0.137  11.243 -1.2575  0.1335  0.2085
 9156TIP3    H248884   1.077   0.275  11.229  0.6826  0.9025 -1.1940
 9157TIP3   OH248885   1.787   2.506   0.704 -0.1460  0.2694  0.1490
 9157TIP3    H148886   1.713   2.466   0.751 -2.3811  1.8340 -1.8313
 9157TIP3    H248887   1.829   2.562   0.769 -0.7164 -0.5921  1.3005
 9158TIP3   OH248888   2.878   4.361   2.574 -0.5127 -0.9171  0.4148
 9158TIP3    H148889   2.942   4.373   2.504 -1.1149 -0.2600 -0.0482
 9158TIP3    H248890   2.798   4.335   2.529 -0.7724 -1.0023  0.9135
 9159TIP3   OH248891   1.574   2.679  16.825 -0.6111 -0.0720  0.0938
 9159TIP3    H148892   1.585   2.655  16.916 -1.1850 -1.1442 -0.0996
 9159TIP3    H248893   1.656   2.722  16.800 -0.6237  0.6362  1.2200
 9160TIP3   OH248894   2.431   4.919  17.010  0.0475  0.5422  0.2032
 9160TIP3    H148895   2.370   4.984  17.044  0.4794  1.0481  0.0206
 9160TIP3    H248896   2.476   4.886  17.088  0.0818  0.7205  0.2602
 9161TIP3   OH248897   0.310   1.296   1.912  0.2610  0.2975 -0.1898
 9161TIP3    H148898   0.367   1.219   1.921 -0.8363 -0.3974  1.0531
 9161TIP3    H248899   0.278   1.291   1.821  0.5410 -0.4662 -0.2578
 9162TIP3   OH248900   3.006   5.795  14.064 -0.0221  0.3342 -0.3497
 9162TIP3    H148901   3.074   5.802  13.997  0.1793  0.4034 -0.1371
 9162TIP3    H248902   3.053   5.782  14.146 -0.2366  1.0221 -0.1120
 9163TIP3   OH248903   5.216   2.520  17.094 -0.1570  0.3744 -0.6057
 9163TIP3    H148904   5.157   2.453  17.127 -1.1852  1.5516  0.0211
 9163TIP3    H248905   5.159   2.584  17.052  0.5148  2.0963  0.9825
 9164TIP3   OH248906   2.856   0.093  10.931  0.3417 -0.1040 -0.2456
 9164TIP3    H148907   2.892   0.108  11.019 -0.4166 -3.3735  0.7862
 9164TIP3    H248908   2.897   0.012  10.902 -0.3638  0.2528 -2.4094
 9165TIP3   OH248909   3.551   4.411  14.675  0.1966  0.4353 -0.2805
 9165TIP3    H148910   3.510   4.329  14.703 -0.4656  0.3732 -1.4051
 9165TIP3    H248911   3.586   4.393  14.588 -1.3018  1.7475 -1.2193
 9166TIP3   OH248912   5.728   3.692   0.867 -0.0846  0.0263  0.2017
 9166TIP3    H148913   5.796   3.684   0.933 -0.0579 -2.0456  0.0031
 9166TIP3    H248914   5.668   3.759   0.900  0.8522  0.2667  1.4503
 9167TIP3   OH248915   3.251   4.883  13.663  0.3545 -0.2443 -0.3484
 9167TIP3    H148916   3.264   4.961  13.610 -0.9581 -0.6263 -1.2652
 9167TIP3    H248917   3.270   4.809  13.605 -2.4990 -0.7240 -0.8531
 9168TIP3   OH248918   1.640   1.031  12.919 -0.1248 -0.2844  0.0747
 9168TIP3    H148919   1.686   0.966  12.866  2.0513  0.9512  0.2980
 9168TIP3    H248920   1.656   1.003  13.009 -0.7497 -0.4280  0.1429
 9169TIP3   OH248921   4.869   0.675   5.250 -0.2833 -0.3367 -0.8871
 9169TIP3    H148922   4.796   0.728   5.217 -1.5470 -1.1788  0.4011
 9169TIP3    H248923   4.940   0.738   5.264 -1.7520  1.1054  0.6926
 9170TIP3   OH248924   2.806   1.678   3.562 -0.3497  0.3050  0.0838
 9170TIP3    H148925   2.732   1.730   3.593 -1.1108 -0.3468 -0.5997
 9170TIP3    H248926   2.870   1.684   3.633 -0.3719  2.2087  0.0171
 9171TIP3   OH248927   1.982   2.301   0.128 -0.6369 -0.5969 -0.0118
 9171TIP3    H148928   2.065   2.256   0.116 -0.2787  0.2385 -0.7050
 9171TIP3    H248929   1.916   2.238   0.098 -0.0821 -0.3470 -1.8653
 9172TIP3   OH248930   4.187   5.752  11.948 -0.0855 -0.2239  0.0462
 9172TIP3    H148931   4.145   5.681  11.996 -0.7383  0.4258  0.4560
 9172TIP3    H248932   4.114   5.800  11.907  0.3773 -0.0711 -0.6239
 9173TIP3   OH248933   1.558   2.204   0.448  0.1942 -0.3370 -0.0648
 9173TIP3    H148934   1.650   2.198   0.421  0.5065  0.6615  0.7013
 9173TIP3    H248935   1.510   2.158   0.380  1.2752 -0.9738 -0.4278
 9174TIP3   OH248936   0.646   0.311   4.602 -0.1370 -0.0249 -0.2446
 9174TIP3    H148937   0.663   0.343   4.690  0.6055 -1.9139  0.3377
 9174TIP3    H248938   0.709   0.358   4.547 -0.1627  0.6720  0.3082
 9175TIP3   OH248939   2.806   5.359   2.525 -0.8192 -0.3138 -0.1332
 9175TIP3    H148940   2.881   5.301   2.538 -0.3903  0.3916  0.6755
 9175TIP3    H248941   2.754   5.349   2.605 -0.1017  1.2948  0.5824
 9176TIP3   OH248942   6.372   5.910  16.566  0.1853 -0.1098 -0.8002
 9176TIP3    H148943   6.365   5.815  16.571 -0.2647 -0.0647 -0.5070
 9176TIP3    H248944   6.290   5.938  16.527  1.1963  0.0066 -2.9758
 9177TIP3   OH248945   1.000   2.210   0.271  0.1751  0.7516 -0.4757
 9177TIP3    H148946   0.954   2.149   0.214 -0.9577  1.5122 -0.4080
 9177TIP3    H248947   0.934   2.240   0.333  1.5398 -0.7165  1.8473
 9178TIP3   OH248948   3.371   1.861   4.147  0.0509 -0.2145 -0.2985
 9178TIP3    H148949   3.401   1.834   4.233  0.1605 -1.0866 -0.6025
 9178TIP3    H248950   3.278   1.842   4.147  0.0471 -0.1959 -0.3711
 9179TIP3   OH248951   6.183   3.872   0.543  0.4830 -0.6332  0.4399
 9179TIP3    H148952   6.168   3.792   0.593  0.4645 -0.7973  0.1763
 9179TIP3    H248953   6.235   3.928   0.601 -0.9694 -0.1221  1.3064
 9180TIP3   OH248954   3.417   0.857   6.250  0.5571 -0.2788 -0.5017
 9180TIP3    H148955   3.351   0.828   6.314  0.9619 -1.8897 -0.7790
 9180TIP3    H248956   3.500   0.828   6.286  1.0081  0.6577 -0.7585
 9181TIP3   OH248957   4.318   6.629  12.193  0.3264  0.3011  0.1906
 9181TIP3    H148958   4.270   6.556  12.156  2.3282 -0.8656 -0.2605
 9181TIP3    H248959   4.273   6.707  12.161 -0.3012 -0.7120 -1.5132
 9182TIP3   OH248960   1.817   3.335  15.158 -0.0519  0.1330 -0.2475
 9182TIP3    H148961   1.884   3.294  15.214 -0.8269 -2.6333 -1.2025
 9182TIP3    H248962   1.863   3.356  15.077  0.2363  0.7834  0.0720
 9183TIP3   OH248963   5.783   2.806  14.574 -0.2209 -0.1711  0.1251
 9183TIP3    H148964   5.730   2.880  14.604  1.2774  0.8758  0.2859
 9183TIP3    H248965   5.830   2.839  14.497 -0.3869 -1.3260 -0.4979
 9184TIP3   OH248966   0.694   2.763  12.005 -0.1633  0.0254 -0.3914
 9184TIP3    H148967   0.772   2.725  12.044 -0.5964 -0.3097  0.1663
 9184TIP3    H248968   0.726   2.813  11.930  0.5521 -0.3142 -0.3148
 9185TIP3   OH248969   3.277   4.917   1.162  0.0324 -0.4611 -0.2963
 9185TIP3    H148970   3.269   5.012   1.151 -0.5424 -0.2221  1.7447
 9185TIP3    H248971   3.186   4.886   1.169  0.2491 -0.8570  1.0315
 9186TIP3   OH248972   2.643   0.919  11.098  0.0938 -0.7210  0.4568
 9186TIP3    H148973   2.711   0.943  11.161  0.1076 -0.0218  0.1820
 9186TIP3    H248974   2.687   0.920  11.014 -0.4242  0.4874  0.1867
 9187TIP3   OH248975   6.239   1.213   4.798 -0.0656  0.3990  0.6513
 9187TIP3    H148976   6.163   1.163   4.827 -0.6732  1.8259  1.6306
 9187TIP3    H248977   6.203   1.273   4.732  1.0682 -1.9541 -2.3804
 9188TIP3   OH248978   1.879   5.846  16.496  0.4268  0.1555 -0.2307
 9188TIP3    H148979   1.837   5.919  16.451  1.1095 -0.0749 -1.2655
 9188TIP3    H248980   1.894   5.879  16.585 -1.0793  0.5575 -0.0935
 9189TIP3   OH248981   3.473   6.347   4.829 -0.2067  0.2520 -0.2922
 9189TIP3    H148982   3.460   6.257   4.798  1.4940 -0.8050  1.7800
 9189TIP3    H248983   3.556   6.374   4.789 -0.6336  0.8274 -0.7813
 9190TIP3   OH248984   2.730   4.855  12.819 -0.3085  0.5143  0.3691
 9190TIP3    H148985   2.684   4.829  12.739 -0.5526  0.0546  0.6577
 9190TIP3    H248986   2.787   4.927  12.791 -0.5234  0.4767 -0.1813
 9191TIP3   OH248987   1.301   1.881   5.164  0.3409 -0.2700  0.3158
 9191TIP3    H148988   1.227   1.921   5.118  0.3169 -0.7995 -0.1085
 9191TIP3    H248989   1.354   1.956   5.193 -1.4206  0.2670  2.4873
 9192TIP3   OH248990   2.258   0.450  15.290  0.5097  0.1240 -0.0341
 9192TIP3    H148991   2.354   0.449  15.290  0.5187 -1.6493 -0.4829
 9192TIP3    H248992   2.235   0.538  15.320  2.2760  0.8404 -0.6538
 9193TIP3   OH248993   0.959   3.464   6.667 -0.4285 -0.5146  0.3858
 9193TIP3    H148994   0.972   3.391   6.728  0.3577  0.4662  1.4576
 9193TIP3    H248995   0.971   3.426   6.580  1.6389 -1.3436  0.9813
 9194TIP3   OH248996   5.368   5.532  16.714 -0.0712  0.6454 -0.3691
 9194TIP3    H148997   5.424   5.547  16.637  2.1280 -0.4823  0.9075
 9194TIP3    H248998   5.366   5.437  16.724 -1.2222  0.7353  0.3798
 9195TIP3   OH248999   5.331   0.089  11.146  0.7500  0.2344  0.1411
 9195TIP3    H149000   5.381   0.154  11.097  1.5314 -0.0823  0.5061
 9195TIP3    H249001   5.250   0.078  11.095  0.8133  1.1427 -0.1675
 9196TIP3   OH249002   4.349   1.413  11.847 -0.2643 -0.2993  0.3620
 9196TIP3    H149003   4.420   1.377  11.901  0.3924 -1.1925 -1.0472
 9196TIP3    H249004   4.381   1.499  11.821  0.5653 -0.8976 -0.6837
 9197TIP3   OH249005   3.584   0.648  15.113 -0.3784  0.2889 -0.2131
 9197TIP3    H149006   3.644   0.578  15.086 -1.7287 -0.8944 -0.2684
 9197TIP3    H249007   3.505   0.633  15.060 -2.0792 -0.4179  2.3596
 9198TIP3   OH249008   4.167   0.306   3.331 -0.4777  0.2157  0.7193
 9198TIP3    H149009   4.160   0.228   3.386 -1.4843 -0.0366  0.2659
 9198TIP3    H249010   4.087   0.305   3.279  1.1469 -0.5019 -1.9935
 9199TIP3   OH249011   5.477   0.661   4.163 -0.1677  0.2482 -0.1607
 9199TIP3    H149012   5.508   0.589   4.109 -0.2522  1.2688 -1.6167
 9199TIP3    H249013   5.555   0.693   4.209  0.3346  0.6807 -1.2745
 9200TIP3   OH249014   3.364   6.184  14.877  0.2137 -0.0825 -0.0973
 9200TIP3    H149015   3.403   6.272  14.879  2.0136 -0.8493  1.2094
 9200TIP3    H249016   3.290   6.190  14.936  0.2934  0.5701 -0.0467
 9201TIP3   OH249017   1.741   5.041   5.490 -0.0828 -0.0148  0.4446
 9201TIP3    H149018   1.804   5.025   5.561 -1.0497  1.9897  1.8356
 9201TIP3    H249019   1.655   5.025   5.530 -0.6057  0.1060 -0.5918
 9202TIP3   OH249020   3.872   1.240   2.359  0.9576 -0.3169 -0.0157
 9202TIP3    H149021   3.904   1.214   2.446  0.3393 -0.1801  0.2607
 9202TIP3    H249022   3.839   1.329   2.371  0.8099 -0.3217 -0.3712
 9203TIP3   OH249023   1.058   5.662   2.339 -0.3456  1.0101  0.1099
 9203TIP3    H149024   1.095   5.702   2.260  0.2476  0.8567  0.3036
 9203TIP3    H249025   0.970   5.636   2.314  0.0472  0.4183 -0.6790
 9204TIP3   OH249026   5.338   6.266   1.588  0.2574  0.6415  0.0242
 9204TIP3    H149027   5.312   6.215   1.511  2.0430 -0.0204 -0.1945
 9204TIP3    H249028   5.269   6.248   1.653 -0.3284 -0.2574 -0.8145
 9205TIP3   OH249029   2.206   4.041  16.444  0.2122 -0.1951 -0.0710
 9205TIP3    H149030   2.296   4.055  16.416 -0.2841 -1.0015 -2.3024
 9205TIP3    H249031   2.160   4.014  16.364 -2.3438  1.6943  0.6173
 9206TIP3   OH249032   4.128   3.902   1.411  0.4192  0.1009  0.1992
 9206TIP3    H149033   4.067   3.880   1.341  0.9072  0.6524 -0.4152
 9206TIP3    H249034   4.205   3.936   1.365 -0.1721  2.8016  1.0708
 9207TIP3   OH249035   4.884   3.961   2.441  0.1627  0.1184 -0.4526
 9207TIP3    H149036   4.882   4.028   2.509 -0.5217 -0.3495 -0.0034
 9207TIP3    H249037   4.794   3.957   2.409 -0.0282 -1.2342  0.1766
 9208TIP3   OH249038   2.769   0.899  15.003 -0.6397 -0.3589  0.1668
 9208TIP3    H149039   2.747   0.835  15.071  0.5161  1.0345  1.9367
 9208TIP3    H249040   2.843   0.947  15.039 -1.1534  1.6540 -1.3151
 9209TIP3   OH249041   5.140   1.982  12.662  0.2789  0.1109 -0.0258
 9209TIP3    H149042   5.195   1.980  12.583  0.0509  0.1227 -0.1862
 9209TIP3    H249043   5.109   2.072  12.668  1.3691  0.4534  0.8291
 9210TIP3   OH249044   0.064   6.232   6.790 -0.1016 -0.2137  0.2933
 9210TIP3    H149045   0.114   6.312   6.806  0.4834 -0.7594  1.3342
 9210TIP3    H249046   0.120   6.162   6.824 -1.0705 -0.9511  0.4074
 9211TIP3   OH249047   3.423   0.677   1.693  0.3198 -0.4364  0.7350
 9211TIP3    H149048   3.358   0.613   1.664 -0.0600  0.5713 -0.7338
 9211TIP3    H249049   3.391   0.761   1.660  0.8825  0.5283  2.4944
 9212TIP3   OH249050   5.421   0.367   4.726  0.0695 -0.0393 -0.4169
 9212TIP3    H149051   5.476   0.306   4.774 -0.8063 -0.2991  0.2883
 9212TIP3    H249052   5.342   0.376   4.780 -1.1110 -0.6192 -1.9537
 9213TIP3   OH249053   2.843   6.748   2.371 -0.0412  0.6173  0.2452
 9213TIP3    H149054   2.777   6.704   2.317  1.3026  1.2127 -2.0228
 9213TIP3    H249055   2.908   6.680   2.389  0.4210  0.8653 -0.4720
 9214TIP3   OH249056   0.130   2.308   1.466 -0.3663 -0.4749 -0.2521
 9214TIP3    H149057   0.148   2.323   1.373  0.9342 -1.5973 -0.2103
 9214TIP3    H249058   0.083   2.386   1.494 -2.9962 -1.1323 -2.4007
 9215TIP3   OH249059   3.845   0.646   5.817 -0.3130 -0.6099  0.1209
 9215TIP3    H149060   3.776   0.604   5.868  0.2563 -1.3991  0.2529
 9215TIP3    H249061   3.925   0.627   5.865  0.0927 -0.4005 -0.4688
 9216TIP3   OH249062   3.029   3.756  16.943  0.3819 -0.1581  0.5163
 9216TIP3    H149063   3.032   3.734  17.036 -0.8031  0.9889  0.8641
 9216TIP3    H249064   3.084   3.834  16.935  0.6490 -0.3768  0.2181
 9217TIP3   OH249065   3.665   1.926  11.524  0.0598  0.3981 -0.4199
 9217TIP3    H149066   3.757   1.940  11.549  0.5206  0.8815 -2.2699
 9217TIP3    H249067   3.661   1.951  11.432 -1.3812 -1.9698 -1.0807
 9218TIP3   OH249068   2.467   3.085   2.815  0.1172 -0.6818 -0.0315
 9218TIP3    H149069   2.547   3.136   2.830  0.3149 -0.6259 -1.1951
 9218TIP3    H249070   2.461   3.028   2.892  0.0659  0.8391  1.1514
 9219TIP3   OH249071   4.875   5.425  16.115  0.1103 -0.7396  0.5792
 9219TIP3    H149072   4.885   5.515  16.145 -1.2703 -0.6552  0.8349
 9219TIP3    H249073   4.781   5.414  16.100  0.5755 -0.9886 -3.1386
 9220TIP3   OH249074   6.181   4.687  12.795  0.1729  0.1589  0.2733
 9220TIP3    H149075   6.216   4.777  12.794 -0.1283  0.2725 -0.3321
 9220TIP3    H249076   6.206   4.653  12.881  0.5089  0.7372  0.4126
 9221TIP3   OH249077   1.603   5.372  15.090 -0.0464  0.1341 -0.5392
 9221TIP3    H149078   1.668   5.306  15.065  0.7725  1.3544 -1.6991
 9221TIP3    H249079   1.594   5.360  15.185  3.7696  1.5016  0.1914
 9222TIP3   OH249080   2.986   6.671  13.324  0.6275  0.1126 -0.1237
 9222TIP3    H149081   3.012   6.709  13.240  1.3980 -0.2151 -0.0369
 9222TIP3    H249082   3.067   6.639  13.363  0.1859 -0.3274  0.4589
 9223TIP3   OH249083   6.053   5.036   4.009  0.4152  0.7647 -0.6945
 9223TIP3    H149084   6.118   5.077   3.953  0.6773  0.8175 -0.3531
 9223TIP3    H249085   5.977   5.024   3.952 -0.2352  3.1085 -0.4391
 9224TIP3   OH249086   5.550   0.696  13.714 -0.6872 -0.1713 -0.0516
 9224TIP3    H149087   5.536   0.645  13.793  3.4420 -0.8364  0.5093
 9224TIP3    H249088   5.565   0.630  13.645  3.9799 -0.0811  0.5362
 9225TIP3   OH249089   0.218   2.627   2.713 -0.0562 -0.1599 -0.7393
 9225TIP3    H149090   0.300   2.641   2.667  0.8176  0.4977  0.9193
 9225TIP3    H249091   0.205   2.708   2.763 -2.8269  0.6496 -2.5260
 9226TIP3   OH249092   6.145   1.489   3.646 -0.1746  0.4084 -0.0690
 9226TIP3    H149093   6.055   1.521   3.649  0.5873  2.9567 -1.4427
 9226TIP3    H249094   6.161   1.470   3.553  0.2563 -1.6532  0.3604
 9227TIP3   OH249095   6.500   2.656  12.480 -0.0328  0.1568 -0.1631
 9227TIP3    H149096   6.426   2.638  12.538  0.6462 -0.8366  0.4367
 9227TIP3    H249097   6.488   2.598  12.406  0.8525 -1.0405  0.5958
 9228TIP3   OH249098   6.344   1.845   4.154 -0.4767 -0.3190 -0.1512
 9228TIP3    H149099   6.394   1.866   4.233  1.6959 -0.4222 -1.4074
 9228TIP3    H249100   6.284   1.919   4.144 -1.6791 -0.8691  2.1899
 9229TIP3   OH249101   3.885   3.482  14.625 -0.0547  0.1666 -0.8353
 9229TIP3    H149102   3.928   3.441  14.700  1.8331  1.9205 -0.8636
 9229TIP3    H249103   3.804   3.518  14.661  0.2576 -0.0301  0.0961
 9230TIP3   OH249104   6.500   3.179  11.593  0.5043  0.3475  0.1481
 9230TIP3    H149105   6.508   3.239  11.667  0.3288  1.0250 -0.3831
 9230TIP3    H249106   6.420   3.206  11.548  1.6855  1.2718 -1.4843
 9231TIP3   OH249107   0.708   1.734   1.843  0.1197 -0.4420  0.3483
 9231TIP3    H149108   0.690   1.827   1.859 -1.7825 -0.6498 -0.2419
 9231TIP3    H249109   0.803   1.729   1.834  0.4826  1.1075  2.4355
 9232TIP3   OH249110   5.476   3.061   1.154  0.7539 -0.1166 -0.8085
 9232TIP3    H149111   5.419   3.063   1.077 -0.8502 -1.3189  0.2642
 9232TIP3    H249112   5.504   2.969   1.159  0.1586 -0.2370  0.4920
 9233TIP3   OH249113   4.636   1.388   4.067 -0.0915 -0.0702 -0.3831
 9233TIP3    H149114   4.700   1.335   4.115  0.3963  0.7321 -0.1334
 9233TIP3    H249115   4.656   1.478   4.092  0.0204  0.3574 -1.9204
 9234TIP3   OH249116   2.267   0.500   2.260 -0.3793  0.2112  0.6938
 9234TIP3    H149117   2.303   0.415   2.287  0.3952  0.2019 -0.3293
 9234TIP3    H249118   2.297   0.511   2.170 -0.9849  1.2994  0.6158
 9235TIP3   OH249119   1.059   2.572  16.136 -0.4113 -0.4079 -0.3097
 9235TIP3    H149120   1.021   2.619  16.062 -1.2686 -1.6494 -0.6930
 9235TIP3    H249121   1.130   2.628  16.167 -1.0466  0.8578 -1.0854
 9236TIP3   OH249122   0.317   5.591   1.259  0.4907  0.2983  0.3702
 9236TIP3    H149123   0.321   5.608   1.165  0.1708  4.0874  0.8759
 9236TIP3    H249124   0.306   5.678   1.299 -0.7236 -1.2534  3.8551
 9237TIP3   OH249125   0.107   2.190  14.788 -0.5259  0.3176  0.0204
 9237TIP3    H149126   0.151   2.253  14.845  1.2285 -0.2677 -0.6228
 9237TIP3    H249127   0.152   2.200  14.703 -1.2483 -0.7255 -0.5007
 9238TIP3   OH249128   1.423   0.098  14.776  0.5248  0.4354  0.5914
 9238TIP3    H149129   1.480   0.025  14.750  0.1653  0.4503 -0.2746
 9238TIP3    H249130   1.471   0.176  14.750  0.2241  0.4562  0.0958
 9239TIP3   OH249131   1.483   4.131   4.973  0.2401 -0.5991  0.4544
 9239TIP3    H149132   1.405   4.177   4.940  0.9465 -0.4267 -1.0432
 9239TIP3    H249133   1.498   4.170   5.059 -0.9389 -0.1636  0.4846
 9240TIP3   OH249134   5.452   3.028   3.266 -0.5484 -0.0214  0.2490
 9240TIP3    H149135   5.470   2.943   3.226  0.2901  0.6900 -0.9262
 9240TIP3    H249136   5.532   3.050   3.312 -0.6228  0.3176  0.2178
 9241TIP3   OH249137   6.118   6.405   3.910  0.5357  0.2156  0.2778
 9241TIP3    H149138   6.047   6.465   3.932 -1.1430 -2.2513  2.2788
 9241TIP3    H249139   6.079   6.346   3.845  1.0566 -0.5938  0.6884
 9242TIP3   OH249140   4.589   2.675  15.332  0.0689  0.3306 -0.0782
 9242TIP3    H149141   4.518   2.623  15.293  0.3898  1.0066 -1.6363
 9242TIP3    H249142   4.571   2.764  15.304  0.1070  0.9509  1.7182
 9243TIP3   OH249143   2.007   1.203   0.384  0.1356  0.0766  0.0991
 9243TIP3    H149144   2.056   1.152   0.449  1.1023  0.6868 -0.1429
 9243TIP3    H249145   1.937   1.144   0.355 -0.8064  0.0260  2.2350
 9244TIP3   OH249146   4.119   5.919  15.792 -0.8948 -0.3460 -0.2037
 9244TIP3    H149147   4.066   5.844  15.818  1.6380 -2.4981 -0.7202
 9244TIP3    H249148   4.100   5.986  15.857 -2.9862 -1.5398  0.5110
 9245TIP3   OH249149   5.802   5.815   6.199 -0.1416  0.0664  0.3173
 9245TIP3    H149150   5.753   5.775   6.127  0.5019 -0.0283 -0.0738
 9245TIP3    H249151   5.769   5.904   6.204  0.1548  0.2196 -0.4147
 9246TIP3   OH249152   4.035   5.550  15.645 -0.7656  0.2953  0.3431
 9246TIP3    H149153   3.980   5.620  15.611  0.2547  0.9556  0.0030
 9246TIP3    H249154   4.122   5.589  15.652  0.4942 -1.6606 -2.4930
 9247TIP3   OH249155   4.337   1.710   0.182  0.1304  0.3370  0.6355
 9247TIP3    H149156   4.295   1.715   0.268  0.6431 -1.0452  0.9897
 9247TIP3    H249157   4.426   1.741   0.197  0.8543 -1.8252  1.0879
 9248TIP3   OH249158   0.735   3.628   2.874 -0.2341 -0.2740 -0.2551
 9248TIP3    H149159   0.781   3.648   2.956  2.1091  1.0868 -1.8098
 9248TIP3    H249160   0.646   3.607   2.902  0.6855 -0.7139  2.7105
 9249TIP3   OH249161   5.693   3.193  16.785 -0.7003  0.1914 -0.0351
 9249TIP3    H149162   5.770   3.249  16.787 -0.9722  0.5959 -0.5134
 9249TIP3    H249163   5.693   3.155  16.697 -0.3255 -0.8402  0.4001
 9250TIP3   OH249164   5.074   4.869  16.854  0.1345 -0.2766  0.1245
 9250TIP3    H149165   5.069   4.954  16.811 -0.5799 -0.0406  0.6686
 9250TIP3    H249166   5.139   4.882  16.923 -1.7467  0.5901  1.8403
 9251TIP3   OH249167   1.682   5.131   0.966  0.1873  0.2227  0.5137
 9251TIP3    H149168   1.662   5.123   0.873  2.6079  1.9369 -0.2250
 9251TIP3    H249169   1.613   5.189   1.000  0.1328  0.8035 -0.5465
 9252TIP3   OH249170   2.094   0.974   0.511 -0.5329  0.5092 -0.0404
 9252TIP3    H149171   2.049   0.943   0.590 -0.6257  0.6532 -0.0376
 9252TIP3    H249172   2.065   0.914   0.442 -0.2502  0.2211  0.0873
 9253TIP3   OH249173   0.281   0.826   0.959  0.1197 -0.3438 -0.0048
 9253TIP3    H149174   0.206   0.775   0.928 -0.2120 -0.2229  0.5718
 9253TIP3    H249175   0.319   0.773   1.028  0.6747 -0.4775 -0.4073
 9254TIP3   OH249176   3.679   0.155  15.011 -0.3547  0.0978  0.9702
 9254TIP3    H149177   3.764   0.173  15.051 -0.3600  1.0789  0.5733
 9254TIP3    H249178   3.646   0.079  15.059  0.9594 -0.6140  0.7843
 9255TIP3   OH249179   3.273   3.910  14.110 -0.1342 -0.5168 -0.2478
 9255TIP3    H149180   3.235   3.978  14.167  0.9789 -1.3258  1.5578
 9255TIP3    H249181   3.356   3.949  14.080  0.2487 -0.8357  0.3611
 9256TIP3   OH249182   5.861   6.642   2.983 -0.4348 -0.1242 -0.5371
 9256TIP3    H149183   5.901   6.555   2.988 -2.1376 -0.9621 -0.5532
 9256TIP3    H249184   5.789   6.639   3.046 -1.2412  0.8707 -1.3606
 9257TIP3   OH249185   2.304   4.528  15.237 -0.7781 -0.1926  0.2111
 9257TIP3    H149186   2.374   4.525  15.173 -1.4649  1.3644 -0.6615
 9257TIP3    H249187   2.319   4.451  15.292  0.0622 -1.3405 -1.5419
 9258TIP3   OH249188   2.424   1.572   1.721  0.1654  0.5031  0.3085
 9258TIP3    H149189   2.370   1.502   1.757 -2.9127  2.6328  0.1771
 9258TIP3    H249190   2.363   1.628   1.673  2.5201  3.0771  0.0463
 9259TIP3   OH249191   1.544   5.153   4.542  0.1611 -0.4871 -0.0749
 9259TIP3    H149192   1.571   5.064   4.563 -0.3604 -0.5994  0.1089
 9259TIP3    H249193   1.504   5.187   4.622  0.0573 -0.2029 -0.2439
 9260TIP3   OH249194   2.459   1.414  15.768 -0.6446 -0.2724 -0.1659
 9260TIP3    H149195   2.383   1.434  15.714 -3.2242 -0.2237  3.1380
 9260TIP3    H249196   2.423   1.376  15.848  2.9193 -1.3064  1.1753
 9261TIP3   OH249197   4.881   4.666  12.433 -0.4282 -0.1745  0.1697
 9261TIP3    H149198   4.974   4.661  12.411 -0.4268  1.3382 -0.2364
 9261TIP3    H249199   4.879   4.664  12.529  0.0554  0.2442  0.1891
 9262TIP3   OH249200   3.041   0.043   4.752 -0.4397  0.2036 -0.1567
 9262TIP3    H149201   3.054   0.134   4.780 -0.2267 -0.0945  0.7439
 9262TIP3    H249202   3.097   0.034   4.675  2.4216 -0.1468  1.8061
 9263TIP3   OH249203   2.641   5.473  13.693  0.4497 -0.1566  0.0662
 9263TIP3    H149204   2.686   5.537  13.749  0.4738  1.8321 -2.0812
 9263TIP3    H249205   2.549   5.497  13.699  0.4102 -0.1670 -0.4337
 9264TIP3   OH249206   6.029   0.393   5.096  0.0741 -0.1128  0.0626
 9264TIP3    H149207   6.004   0.478   5.059 -0.6365  0.0288  0.8379
 9264TIP3    H249208   5.960   0.373   5.160  1.0690 -0.5128  1.0527
 9265TIP3   OH249209   1.954   1.779  13.507  0.1824 -0.0968 -0.3137
 9265TIP3    H149210   2.041   1.741  13.512  0.1999 -0.5010 -2.5210
 9265TIP3    H249211   1.903   1.717  13.454 -1.6889 -0.2430  1.5260
 9266TIP3   OH249212   1.938   2.323   5.089 -1.0339  0.4133 -0.0842
 9266TIP3    H149213   1.940   2.362   5.176 -0.6607 -1.2925  0.7195
 9266TIP3    H249214   1.890   2.241   5.100  1.7032 -1.4290 -0.7288
 9267TIP3   OH249215   4.432   2.713  12.867  0.8836  0.0867 -0.2038
 9267TIP3    H149216   4.362   2.711  12.801  2.2803  1.4164 -1.8192
 9267TIP3    H249217   4.436   2.624  12.899  0.1072 -0.6153 -1.8960
 9268TIP3   OH249218   3.678   0.448  14.975  0.2916 -0.6000  0.0074
 9268TIP3    H149219   3.655   0.359  14.947  0.2149  0.3127 -3.3335
 9268TIP3    H249220   3.744   0.476  14.912 -2.0348  2.8015 -1.2442
 9269TIP3   OH249221   0.386   5.798   5.007 -0.8554 -0.3090  0.1431
 9269TIP3    H149222   0.322   5.758   4.948 -0.2703 -2.7986  1.0740
 9269TIP3    H249223   0.470   5.790   4.961 -0.5853 -1.1339  0.7477
 9270TIP3   OH249224   5.651   5.914   3.043 -0.1194 -0.3443 -0.0935
 9270TIP3    H149225   5.595   5.838   3.029 -2.8734  1.8618 -2.3344
 9270TIP3    H249226   5.641   5.934   3.136  0.2303 -2.3526  0.4072
 9271TIP3   OH249227   6.454   3.763   1.232  0.0518 -1.2183  0.7034
 9271TIP3    H149228   6.470   3.725   1.146 -0.2727  0.9394 -0.3816
 9271TIP3    H249229   6.419   3.691   1.284  0.0526 -2.5278 -1.0249
 9272TIP3   OH249230   2.161   3.734   1.351 -0.2496 -0.3893  0.0344
 9272TIP3    H149231   2.205   3.817   1.337  1.4321 -1.3111 -0.4711
 9272TIP3    H249232   2.228   3.668   1.336 -1.9655 -1.9285 -1.4642
 9273TIP3   OH249233   0.329   0.424  17.321 -0.5437 -0.4328  0.6599
 9273TIP3    H149234   0.244   0.436  17.279 -0.2535  0.3667  0.2765
 9273TIP3    H249235   0.331   0.490  17.390 -0.3412 -0.6199  0.8335
 9274TIP3   OH249236   5.418   5.265  15.542 -0.1550 -0.1352 -0.1811
 9274TIP3    H149237   5.350   5.285  15.605  2.8229  3.5422  2.2924
 9274TIP3    H249238   5.418   5.169  15.536 -3.2739 -0.4263  2.1806
 9275TIP3   OH249239   5.892   0.952   3.949  0.1763 -0.6261  0.5721
 9275TIP3    H149240   5.812   0.956   3.896 -0.0773 -0.6956  0.9403
 9275TIP3    H249241   5.860   0.940   4.039  0.5798 -0.0269  0.8042
 9276TIP3   OH249242   5.629   2.886  13.905 -0.5066 -0.1863  0.5081
 9276TIP3    H149243   5.628   2.861  13.997  0.4382  1.5262  1.0252
 9276TIP3    H249244   5.670   2.812  13.860  0.1074 -0.5401  1.6300
 9277TIP3   OH249245   6.624   2.016   2.951 -0.0905 -0.1086 -0.3126
 9277TIP3    H149246   6.551   1.980   2.901 -0.9317 -0.3554  1.0294
 9277TIP3    H249247   6.680   2.057   2.886 -1.3687 -0.0275 -1.4095
 9278TIP3   OH249248   2.745   1.476  14.856 -0.0202  0.5528 -0.2230
 9278TIP3    H149249   2.738   1.489  14.951  0.5090 -0.7715  0.0258
 9278TIP3    H249250   2.751   1.381  14.846  0.2733  0.7009 -1.5649
 9279TIP3   OH249251   1.860   5.908   5.153 -0.2285 -0.0421 -0.0036
 9279TIP3    H149252   1.918   5.836   5.129  0.5261  0.8134 -0.8239
 9279TIP3    H249253   1.879   5.977   5.090 -0.9858  0.8584  0.7088
 9280TIP3   OH249254   1.876   3.754   2.895  0.4770  0.1952 -0.5185
 9280TIP3    H149255   1.971   3.756   2.903  0.5598  0.0396 -1.3723
 9280TIP3    H249256   1.845   3.816   2.961  1.1274 -0.2910  0.2581
 9281TIP3   OH249257   1.960   2.724   3.804  0.2414 -0.4645 -0.3047
 9281TIP3    H149258   1.945   2.766   3.888 -0.6540 -1.1502 -0.0969
 9281TIP3    H249259   1.950   2.794   3.739  1.3830  0.1619  0.1602
 9282TIP3   OH249260   0.463   2.474  14.781  0.1147  0.0828 -0.5605
 9282TIP3    H149261   0.539   2.481  14.838  0.0034 -0.5638 -0.3217
 9282TIP3    H249262   0.486   2.524  14.703  0.6548  0.1554 -0.3558
 9283TIP3   OH249263   6.471   0.406  13.144 -0.4932 -0.5942 -0.0789
 9283TIP3    H149264   6.475   0.315  13.174  1.7380 -0.6090 -0.1943
 9283TIP3    H249265   6.490   0.401  13.050 -1.0219 -0.0651 -0.2166
 9284TIP3   OH249266   6.551   0.231   1.417 -0.4502 -0.3889  0.3220
 9284TIP3    H149267   6.538   0.184   1.335  0.1430  0.7181 -0.4237
 9284TIP3    H249268   6.535   0.165   1.485 -5.3973 -0.3222 -0.4540
 9285TIP3   OH249269   0.244   4.788   3.967  0.2051 -0.4460  0.5054
 9285TIP3    H149270   0.305   4.862   3.976 -0.6573  0.1892  1.3631
 9285TIP3    H249271   0.193   4.809   3.889 -0.6824  0.3709  1.2853
 9286TIP3   OH249272   0.881   4.801  16.514 -1.1867  0.2739  0.2341
 9286TIP3    H149273   0.870   4.777  16.607  0.6504  0.7714  0.6223
 9286TIP3    H249274   0.965   4.847  16.511 -0.1318 -1.5631 -2.0074
 9287TIP3   OH249275   1.953   2.068  12.942 -0.8397 -0.2890  0.7243
 9287TIP3    H149276   1.973   2.018  12.863  1.1551 -2.7133  2.6212
 9287TIP3    H249277   1.857   2.071  12.944 -0.9683 -0.0157 -1.7747
 9288TIP3   OH249278   4.270   2.419  13.436 -1.0355  0.9456  0.0324
 9288TIP3    H149279   4.184   2.385  13.410 -0.2298 -3.2059  1.8860
 9288TIP3    H249280   4.332   2.375  13.378  0.0568 -0.0504  1.8547
 9289TIP3   OH249281   0.108   5.341   4.972  1.0962  0.2623 -0.0500
 9289TIP3    H149282   0.183   5.291   4.940  0.3340 -0.6015 -0.5374
 9289TIP3    H249283   0.128   5.358   5.064  2.6375  1.5025 -0.5730
 9290TIP3   OH249284   4.373   3.482  15.970  0.1111  0.3274  0.3002
 9290TIP3    H149285   4.414   3.410  16.019  0.6809  1.1532  1.0674
 9290TIP3    H249286   4.414   3.478  15.884 -2.1030 -2.1862 -0.7597
 9291TIP3   OH249287   3.712   2.140   3.722  0.1172 -0.2166 -0.8505
 9291TIP3    H149288   3.666   2.195   3.659  0.6786  0.7625 -0.4196
 9291TIP3    H249289   3.790   2.190   3.746 -0.8157  0.1242  1.7678
 9292TIP3   OH249290   2.646   2.473  15.105  0.3963 -0.3361 -0.1016
 9292TIP3    H149291   2.685   2.435  15.183 -0.4003  0.6070  0.7833
 9292TIP3    H249292   2.715   2.527  15.067  1.2425 -1.8823 -0.8690
 9293TIP3   OH249293   1.886   3.727  11.403  0.3885 -0.4660  1.2631
 9293TIP3    H149294   1.935   3.648  11.425  1.7277  0.1636  0.6542
 9293TIP3    H249295   1.938   3.769  11.335  0.2946  1.5247  2.3519
 9294TIP3   OH249296   4.484   4.988   5.176  0.0297  0.2922 -0.5478
 9294TIP3    H149297   4.461   5.061   5.234  1.1493  1.7690 -1.8782
 9294TIP3    H249298   4.569   5.013   5.140  1.4023 -2.6155  0.4179
 9295TIP3   OH249299   4.114   5.596  14.459 -0.1031  0.0574 -0.4047
 9295TIP3    H149300   4.173   5.570  14.388 -1.2319 -2.0765 -0.6710
 9295TIP3    H249301   4.171   5.607  14.535  1.0717  1.9401 -1.4976
 9296TIP3   OH249302   4.042   0.972   3.529 -0.1246  0.2316 -0.5972
 9296TIP3    H149303   4.128   0.936   3.548 -0.6357 -0.2035  1.0533
 9296TIP3    H249304   4.050   1.010   3.442  2.1813  1.6244  0.1573
 9297TIP3   OH249305   2.138   5.861   4.880  0.0961 -0.2960 -0.1859
 9297TIP3    H149306   2.067   5.831   4.938  0.0243  1.3055  0.5995
 9297TIP3    H249307   2.218   5.828   4.921 -0.1022 -1.1030 -0.4311
 9298TIP3   OH249308   2.717   0.013   2.648 -0.0066 -0.5533  0.3150
 9298TIP3    H149309   2.623  -0.005   2.648  0.1541 -1.5403 -0.9220
 9298TIP3    H249310   2.745  -0.004   2.558  0.9897  1.7844  0.0936
 9299TIP3   OH249311   3.843   1.845   3.251 -0.0158  0.2049 -0.3042
 9299TIP3    H149312   3.923   1.795   3.267 -0.1332  0.0450 -0.2124
 9299TIP3    H249313   3.854   1.881   3.163 -0.4277 -0.9415 -0.8444
 9300TIP3   OH249314   3.268   6.351  12.738  0.0404  0.1637  0.0206
 9300TIP3    H149315   3.284   6.257  12.747 -0.6534  0.0463  0.1039
 9300TIP3    H249316   3.195   6.356  12.677  1.1347  0.7213 -1.2927
 9301TIP3   OH249317   5.656   6.311   2.764 -0.9259  0.1813 -0.1158
 9301TIP3    H149318   5.721   6.263   2.712 -2.4623 -1.3075 -0.7829
 9301TIP3    H249319   5.707   6.371   2.819  1.1233 -2.0205  0.5421
 9302TIP3   OH249320   3.298   2.709   6.670  0.4597 -0.4934  0.0967
 9302TIP3    H149321   3.210   2.745   6.660 -0.1438 -1.6909  0.9367
 9302TIP3    H249322   3.351   2.784   6.698 -1.1250 -0.4728  3.5931
 9303TIP3   OH249323   4.817   2.150  12.022  0.0795  0.2838 -0.2445
 9303TIP3    H149324   4.881   2.091  12.061 -0.6494 -0.3943 -0.0529
 9303TIP3    H249325   4.804   2.117  11.933 -0.8027 -0.2417  0.0702
 9304TIP3   OH249326   2.489   5.817  14.406  0.1990  0.0363  0.0195
 9304TIP3    H149327   2.470   5.728  14.437  0.9233  0.3339  1.3867
 9304TIP3    H249328   2.403   5.859  14.399  0.0008  0.0190  1.9103
 9305TIP3   OH249329   3.645   1.114   0.199  0.4797 -0.2983 -0.2790
 9305TIP3    H149330   3.554   1.093   0.176  1.3663 -2.0959 -2.4719
 9305TIP3    H249331   3.637   1.175   0.273 -2.4842 -0.5518 -0.2607
 9306TIP3   OH249332   6.632   1.498   2.109 -0.6684  0.0627  0.0502
 9306TIP3    H149333   6.586   1.488   2.193  1.2056  1.9828  1.4280
 9306TIP3    H249334   6.682   1.417   2.099 -1.1530 -0.3204  0.6244
 9307TIP3   OH249335   2.540   1.821  12.370 -0.3745  0.8797 -0.5663
 9307TIP3    H149336   2.627   1.802  12.334 -0.3440 -1.3317  0.4795
 9307TIP3    H249337   2.556   1.835  12.464 -1.2547 -1.1247 -0.0597
 9308TIP3   OH249338   3.475   3.380   1.434 -0.4143  0.1266 -0.1687
 9308TIP3    H149339   3.509   3.428   1.509  0.4729  2.1029 -1.7635
 9308TIP3    H249340   3.480   3.288   1.460  1.5763  0.6448  1.4992
 9309TIP3   OH249341   3.488   5.952  14.851  0.3556 -0.0698 -0.0126
 9309TIP3    H149342   3.553   5.973  14.784  0.0847  0.0990 -0.2307
 9309TIP3    H249343   3.436   6.033  14.859 -0.6779 -0.6203 -0.8281
 9310TIP3   OH249344   4.303   6.363   0.041 -0.5476 -0.2616 -0.2025
 9310TIP3    H149345   4.283   6.311   0.118  1.1402  0.3114  0.6827
 9310TIP3    H249346   4.284   6.305  -0.033 -0.8823 -1.3115  0.6853
 9311TIP3   OH249347   1.284   5.894  14.897 -0.3257 -0.1823  0.2475
 9311TIP3    H149348   1.189   5.896  14.903 -0.3252 -1.6325  1.8306
 9311TIP3    H249349   1.302   5.865  14.807 -1.3659  0.1380 -0.0790
 9312TIP3   OH249350   5.947   2.086   3.219  0.2067 -0.2195  0.0573
 9312TIP3    H149351   6.008   2.043   3.279  0.2519  0.5537  0.5785
 9312TIP3    H249352   5.970   2.178   3.225 -1.0898  0.0955  0.3470
 9313TIP3   OH249353   2.752   5.569  13.071 -0.4964  0.0863  0.6220
 9313TIP3    H149354   2.657   5.584  13.071 -0.2695  1.6322 -0.1536
 9313TIP3    H249355   2.776   5.568  12.979  0.5296  1.7678  0.8348
 9314TIP3   OH249356   1.463   3.667  12.688 -0.1200  0.6468 -0.0080
 9314TIP3    H149357   1.449   3.577  12.716 -0.5724  0.6336 -0.2711
 9314TIP3    H249358   1.375   3.702  12.674  0.0690  0.9502 -0.4744
 9315TIP3   OH249359   3.429   3.399  14.202 -0.1685 -0.1325 -0.2817
 9315TIP3    H149360   3.444   3.480  14.153  2.1770  0.0615  0.6457
 9315TIP3    H249361   3.353   3.419  14.258  0.7346  1.7043  0.3975
 9316TIP3   OH249362   4.264   1.108  17.306 -0.0437 -0.1921  0.5326
 9316TIP3    H149363   4.191   1.114  17.245 -1.4238 -1.6533  1.9647
 9316TIP3    H249364   4.244   1.173  17.373 -0.2168 -0.8208  1.0970
 9317TIP3   OH249365   6.365   6.716   3.452 -0.1953 -0.3427  0.4748
 9317TIP3    H149366   6.304   6.694   3.522  0.7160  1.1910  1.8281
 9317TIP3    H249367   6.366   6.638   3.396 -3.4586 -0.3674  0.2706
 9318TIP3   OH249368   6.238   1.799  12.728 -0.3898  0.6071 -0.0750
 9318TIP3    H149369   6.175   1.866  12.702 -1.7774 -0.5549  0.1995
 9318TIP3    H249370   6.215   1.722  12.676  0.3250 -0.0772  0.5832
 9319TIP3   OH249371   5.312   2.657   1.897 -0.4210 -0.1947 -0.1474
 9319TIP3    H149372   5.304   2.563   1.881 -1.8392 -0.4443  1.6631
 9319TIP3    H249373   5.231   2.694   1.862  0.8789  0.6622 -2.4480
 9320TIP3   OH249374   4.099   3.724   2.774  0.3479  0.2614  0.0222
 9320TIP3    H149375   4.139   3.644   2.808  1.1135  1.5816  2.4035
 9320TIP3    H249376   4.094   3.783   2.849 -2.9172  1.4575 -0.9319
 9321TIP3   OH249377   4.956   5.299   0.999 -0.3560 -0.4136 -0.2081
 9321TIP3    H149378   5.028   5.244   0.967  0.2489  0.5493 -0.5529
 9321TIP3    H249379   5.000   5.378   1.032 -1.3023  0.4501 -0.9784
 9322TIP3   OH249380   6.437   5.556  16.254 -0.3278  0.1794  0.3479
 9322TIP3    H149381   6.511   5.522  16.203 -0.3783  0.6954 -0.0773
 9322TIP3    H249382   6.477   5.587  16.335 -0.1300  0.1267  0.2722
 9323TIP3   OH249383   2.771   4.480  15.080  0.2599  0.6753  0.5483
 9323TIP3    H149384   2.816   4.522  15.153  0.9577  0.4109  0.2843
 9323TIP3    H249385   2.771   4.546  15.010 -0.4392  0.9413  0.7966
 9324TIP3   OH249386   0.081   3.035   1.302 -0.3971  0.3163  0.4153
 9324TIP3    H149387   0.004   2.987   1.333 -0.8414  1.0947  0.5480
 9324TIP3    H249388   0.110   2.986   1.225 -1.2306  0.2070  0.1558
 9325TIP3   OH249389   5.661   1.086   1.513  0.2333 -0.5752  0.3342
 9325TIP3    H149390   5.656   0.990   1.515  1.3523 -0.6442  0.6108
 9325TIP3    H249391   5.595   1.112   1.449  0.0301 -1.5387  0.1317
 9326TIP3   OH249392   1.596   1.756   0.071 -0.4362  0.0424 -0.1213
 9326TIP3    H149393   1.525   1.693   0.058 -0.8147  0.9134 -3.2984
 9326TIP3    H249394   1.673   1.714   0.031  0.5418 -0.3002  2.0182
 9327TIP3   OH249395   6.318   2.795  12.173  0.3010  0.0430  0.4848
 9327TIP3    H149396   6.332   2.713  12.220  0.0956  0.5702  1.4904
 9327TIP3    H249397   6.315   2.770  12.081 -0.5618 -1.1909  0.8260
 9328TIP3   OH249398   3.297   5.580  15.093 -0.1935  0.2772  0.0130
 9328TIP3    H149399   3.344   5.546  15.169 -0.5440 -0.4329 -0.0848
 9328TIP3    H249400   3.367   5.609  15.033  0.0843  0.6622  0.5166
 9329TIP3   OH249401   4.108   4.855  13.299 -0.4089 -0.7313 -0.3274
 9329TIP3    H149402   4.042   4.884  13.362  0.0314  0.1532 -0.2550
 9329TIP3    H249403   4.058   4.824  13.224 -0.9461 -1.9495  0.4989
 9330TIP3   OH249404   3.280   0.250   0.324 -0.1151  0.7000 -0.0633
 9330TIP3    H149405   3.276   0.325   0.384 -0.2610  0.5326  0.1359
 9330TIP3    H249406   3.314   0.179   0.378 -1.4954  0.2006  0.1708
 9331TIP3   OH249407   1.497   6.674  17.204 -0.0749 -0.2951 -0.2307
 9331TIP3    H149408   1.431   6.653  17.138 -1.2146  1.6845  0.1899
 9331TIP3    H249409   1.509   6.769  17.197  0.7985 -0.2414  1.4644
 9332TIP3   OH249410   4.288   1.819  12.598  0.0329  0.0339  0.1502
 9332TIP3    H149411   4.194   1.832  12.611  0.0938 -0.5169  1.2197
 9332TIP3    H249412   4.323   1.907  12.587 -0.2658  0.4682  2.2830
 9333TIP3   OH249413   2.149   1.979   3.416 -0.3751  0.2269  0.1677
 9333TIP3    H149414   2.073   1.997   3.473 -0.3484 -0.1765  0.3339
 9333TIP3    H249415   2.217   2.039   3.448 -0.5893  0.5206  0.0830
 9334TIP3   OH249416   2.969   3.690   5.302 -0.2617  0.5000 -0.1687
 9334TIP3    H149417   3.063   3.708   5.308 -0.2487  0.8795 -1.3380
 9334TIP3    H249418   2.928   3.774   5.284 -0.7840  0.2621 -0.1330
 9335TIP3   OH249419   1.172   2.782  14.461  0.0897  0.3257 -0.0811
 9335TIP3    H149420   1.134   2.866  14.488 -0.3772 -0.5295  2.0759
 9335TIP3    H249421   1.122   2.758  14.383 -0.2074  1.7186 -0.3591
 9336TIP3   OH249422   2.080   0.366  13.766 -0.0681  0.0172  0.0536
 9336TIP3    H149423   2.100   0.281  13.805  0.2202  0.2867  0.5020
 9336TIP3    H249424   2.102   0.430  13.834 -0.4733  0.4422 -0.2041
 9337TIP3   OH249425   1.158   5.517   2.544 -0.3247  0.4470  0.2950
 9337TIP3    H149426   1.253   5.520   2.533 -0.2758  0.9602  0.8209
 9337TIP3    H249427   1.125   5.580   2.480 -0.2748  0.6893  0.5078
 9338TIP3   OH249428   6.017   2.819   3.861 -0.5090 -0.5172  0.7247
 9338TIP3    H149429   6.099   2.769   3.865  1.1828  1.9807 -0.4678
 9338TIP3    H249430   5.974   2.788   3.781  0.2677 -0.4374  0.2717
 9339TIP3   OH249431   0.863   3.633   1.100  0.1400  0.2034 -0.2552
 9339TIP3    H149432   0.768   3.635   1.103  0.1642  0.4199  0.4821
 9339TIP3    H249433   0.886   3.540   1.103 -0.0344  0.1726  0.1583
 9340TIP3   OH249434   4.435   6.349   5.679 -0.2391 -0.2045  0.0006
 9340TIP3    H149435   4.457   6.256   5.677 -1.7969 -0.5910 -1.0846
 9340TIP3    H249436   4.361   6.358   5.620  1.4343  2.1588 -2.0050
 9341TIP3   OH249437   1.629   3.474  12.914  0.5735  0.9018 -0.2880
 9341TIP3    H149438   1.671   3.551  12.952 -0.8789  1.5501  0.0741
 9341TIP3    H249439   1.549   3.461  12.966  2.3107 -2.8847  1.8690
 9342TIP3   OH249440   2.670   1.961  12.615 -0.1405 -0.2527  0.1283
 9342TIP3    H149441   2.701   2.028  12.676 -0.6738  1.1962 -1.1147
 9342TIP3    H249442   2.616   1.904  12.668 -0.8146  1.1300  0.9988
 9343TIP3   OH249443   0.234   2.101  10.956  0.0118 -0.1900 -0.0289
 9343TIP3    H149444   0.207   2.103  10.864 -1.0702  0.3698  0.2836
 9343TIP3    H249445   0.184   2.171  10.997  1.0022  0.0177  0.8568
 9344TIP3   OH249446   2.829   1.245  11.183 -0.3976  0.5845  0.2125
 9344TIP3    H149447   2.859   1.224  11.094 -0.6406 -1.3573  0.5682
 9344TIP3    H249448   2.847   1.167  11.234 -1.1908  1.3137  1.6686
 9345TIP3   OH249449   2.346   4.804   2.695  0.4479 -0.2799  0.2909
 9345TIP3    H149450   2.437   4.787   2.670  0.5004 -2.2238  1.5691
 9345TIP3    H249451   2.350   4.820   2.790 -0.6177 -1.4169  0.5567
 9346TIP3   OH249452   4.383   0.762   6.773 -0.4755 -0.4936 -0.3340
 9346TIP3    H149453   4.304   0.708   6.778 -0.0735 -1.4816 -2.8087
 9346TIP3    H249454   4.351   0.852   6.772 -1.2649 -0.6646  2.4195
 9347TIP3   OH249455   1.795   3.221   5.513  0.0906 -0.4946 -0.2533
 9347TIP3    H149456   1.781   3.303   5.465  0.6231  0.1063  0.5847
 9347TIP3    H249457   1.719   3.214   5.571 -0.3143 -0.9721 -0.8362
 9348TIP3   OH249458   0.514   1.804  17.229  0.1835 -1.1930  0.2170
 9348TIP3    H149459   0.494   1.822  17.138 -0.7492  0.1152  0.6591
 9348TIP3    H249460   0.606   1.777  17.229  1.1861  1.8360 -0.7591
 9349TIP3   OH249461   3.617   2.960  12.574  0.3487  0.4392  0.6182
 9349TIP3    H149462   3.679   3.019  12.617  2.2471 -0.0432 -1.2767
 9349TIP3    H249463   3.628   2.876  12.620  1.2790  0.3061  0.1732
 9350TIP3   OH249464   6.430   4.753   1.828  0.4158  0.2763 -0.3110
 9350TIP3    H149465   6.352   4.735   1.776  0.4791  0.3743 -0.4416
 9350TIP3    H249466   6.469   4.829   1.786  0.4722  0.3514 -0.1241
 9351TIP3   OH249467   4.937   3.812  14.830  0.6326  0.6218 -0.1939
 9351TIP3    H149468   4.866   3.859  14.872  0.7942  1.2362 -0.5893
 9351TIP3    H249469   4.913   3.720  14.837 -0.6223  0.8644 -1.0669
 9352TIP3   OH249470   4.195   6.323  13.893  0.0461 -0.1823 -0.1939
 9352TIP3    H149471   4.143   6.312  13.813  0.7457  1.8683 -1.0013
 9352TIP3    H249472   4.276   6.275  13.876 -0.8927 -2.0752  0.4427
 9353TIP3   OH249473   2.789   6.108  13.451 -0.2765  0.1549 -0.1460
 9353TIP3    H149474   2.717   6.060  13.493 -1.1485  2.0151  0.5705
 9353TIP3    H249475   2.746   6.181  13.406  1.1610  1.3553  0.3714
 9354TIP3   OH249476   0.116   2.650   1.745  0.1271 -0.1860 -0.8899
 9354TIP3    H149477   0.146   2.586   1.810 -0.0731  0.9482  0.3741
 9354TIP3    H249478   0.077   2.721   1.797  2.3665  2.0667 -2.0120
 9355TIP3   OH249479   6.105   3.301   4.438 -0.3854 -0.6469  1.0115
 9355TIP3    H149480   6.060   3.385   4.437 -0.2676 -0.5676  1.7773
 9355TIP3    H249481   6.182   3.315   4.493 -0.8638 -1.4925  1.9331
 9356TIP3   OH249482   0.587   0.141   5.245  0.0608  0.1150 -0.4165
 9356TIP3    H149483   0.660   0.106   5.194 -0.3897 -2.5861  0.6633
 9356TIP3    H249484   0.593   0.097   5.330 -1.9266  1.0110  0.2534
 9357TIP3   OH249485   4.110   4.954  12.023 -0.0175  0.2967  0.1488
 9357TIP3    H149486   4.139   4.864  12.004  0.1828  0.0010  1.7167
 9357TIP3    H249487   4.086   4.952  12.116  0.8743  2.0919  0.4533
 9358TIP3   OH249488   3.433   1.930   1.453 -0.2858  0.0026  0.0657
 9358TIP3    H149489   3.426   1.942   1.358 -0.2260 -0.8230 -0.0528
 9358TIP3    H249490   3.494   1.857   1.463 -0.7019 -0.2593  0.7278
 9359TIP3   OH249491   5.194   2.871  10.810  1.1126 -0.3128 -0.0500
 9359TIP3    H149492   5.229   2.960  10.801  0.3286 -0.0164 -0.1741
 9359TIP3    H249493   5.205   2.833  10.723  0.4713  0.0239 -0.2845
 9360TIP3   OH249494   4.080   2.236  15.529  0.5183 -0.5631  0.4420
 9360TIP3    H149495   4.079   2.246  15.624  1.3457 -0.0459  0.4128
 9360TIP3    H249496   4.152   2.175  15.512  0.8637 -0.0694  0.1082
 9361TIP3   OH249497   1.109   1.945  12.842  0.6373 -0.3702 -0.3647
 9361TIP3    H149498   1.051   1.890  12.895 -0.1870  0.6855 -0.1350
 9361TIP3    H249499   1.054   1.976  12.770  1.2592 -0.3392 -0.8375
 9362TIP3   OH249500   6.376   2.362  16.661 -0.2097  0.3492  0.1898
 9362TIP3    H149501   6.423   2.319  16.590  0.3258  0.4421  0.4812
 9362TIP3    H249502   6.434   2.434  16.688  0.5983 -0.9326  2.1141
 9363TIP3   OH249503   5.718   3.971  15.049 -0.2166 -0.3163  0.4584
 9363TIP3    H149504   5.776   3.935  14.982  0.1656 -0.9340  1.1036
 9363TIP3    H249505   5.640   3.998  15.002  0.6092  0.5606 -0.4357
 9364TIP3   OH249506   1.258   3.943   1.490  0.4505  0.4452  0.2728
 9364TIP3    H149507   1.260   4.008   1.420 -0.4935 -0.4105 -0.5773
 9364TIP3    H249508   1.178   3.963   1.539 -0.3330 -0.5981 -0.5373
 9365TIP3   OH249509   4.936   5.457  13.141  0.1426  0.7410 -0.1385
 9365TIP3    H149510   4.875   5.506  13.086  0.4149  2.3470  0.9208
 9365TIP3    H249511   5.002   5.425  13.080 -0.0462  1.7040 -0.8816
 9366TIP3   OH249512   3.188   6.671   5.859 -0.2778 -0.5032  0.6685
 9366TIP3    H149513   3.258   6.704   5.802 -0.4851  0.9163  1.2050
 9366TIP3    H249514   3.108   6.682   5.808 -0.3781  0.0686  0.9494
 9367TIP3   OH249515   5.880   4.535   4.494 -0.8845 -0.4253 -0.1803
 9367TIP3    H149516   5.905   4.469   4.429  0.6124 -1.1833  1.1218
 9367TIP3    H249517   5.850   4.485   4.569 -0.0800  0.3584  0.6930
 9368TIP3   OH249518   4.789   4.124  12.686  0.2241 -0.6643  0.6461
 9368TIP3    H149519   4.879   4.142  12.713  1.0905 -1.4309 -1.4704
 9368TIP3    H249520   4.735   4.174  12.746  2.1281  1.1984  0.9211
 9369TIP3   OH249521   3.157   0.688   3.144 -0.1787 -0.1812 -0.2065
 9369TIP3    H149522   3.077   0.740   3.133 -0.6270 -0.9561 -0.6244
 9369TIP3    H249523   3.206   0.702   3.063  0.1717  0.3824  0.0949
 9370TIP3   OH249524   6.707   2.209   5.022 -0.0124 -0.7507 -0.5793
 9370TIP3    H149525   6.683   2.120   5.047  0.9286 -0.6076  0.9171
 9370TIP3    H249526   6.799   2.204   4.999 -0.2594 -0.3832 -1.7532
 9371TIP3   OH249527   1.071   3.895  11.902 -0.0612 -0.5202  0.2051
 9371TIP3    H149528   1.135   3.835  11.940 -0.3189 -0.6618  0.4224
 9371TIP3    H249529   0.986   3.852  11.918 -0.2808  0.0712  0.6903
 9372TIP3   OH249530   6.036   6.271   0.261  0.2534  0.2079 -0.4745
 9372TIP3    H149531   6.119   6.232   0.233  0.4400  0.1667  0.1102
 9372TIP3    H249532   6.061   6.329   0.333 -0.2678 -0.0411 -0.0873
 9373TIP3   OH249533   1.942   2.904  11.727  0.1030 -0.3912  0.0330
 9373TIP3    H149534   1.940   2.809  11.739  0.0426 -0.2659  1.1105
 9373TIP3    H249535   1.921   2.939  11.813  1.7826  0.6271  0.0527
 9374TIP3   OH249536   6.060   5.793   5.390  0.1581 -0.1453  0.0903
 9374TIP3    H149537   5.994   5.862   5.396  0.2442  0.0798 -1.3172
 9374TIP3    H249538   6.079   5.786   5.297  1.2129 -1.0743  0.3586
 9375TIP3   OH249539   0.257   3.254  15.507  0.3825 -0.3240 -0.2920
 9375TIP3    H149540   0.190   3.192  15.534  0.3578 -0.2542 -0.1952
 9375TIP3    H249541   0.334   3.200  15.489  0.6900 -0.2805  0.8291
 9376TIP3   OH249542   1.554   2.225   2.069  0.8799  0.1188  0.6344
 9376TIP3    H149543   1.647   2.246   2.080  0.2588  3.3090  0.7029
 9376TIP3    H249544   1.516   2.304   2.032 -1.4735 -1.8759 -1.5834
 9377TIP3   OH249545   6.221   0.355   0.834 -0.0032  0.3181  0.1258
 9377TIP3    H149546   6.211   0.343   0.740  1.9168 -0.3309 -0.0306
 9377TIP3    H249547   6.207   0.268   0.871 -0.6428  0.5501  0.4579
 9378TIP3   OH249548   0.261   0.574  16.309 -0.3129 -0.2002 -0.0190
 9378TIP3    H149549   0.206   0.617  16.244  1.2269 -2.5192 -3.0957
 9378TIP3    H249550   0.351   0.596  16.283  0.4014  0.2208  2.4607
 9379TIP3   OH249551   0.876   1.537   0.462 -0.2377  0.4331  0.1433
 9379TIP3    H149552   0.875   1.509   0.553 -2.0083  0.5111  0.1744
 9379TIP3    H249553   0.960   1.583   0.452 -0.3744  1.1599  1.9432
 9380TIP3   OH249554   4.615   2.343  12.744 -0.0476 -0.4211 -0.4214
 9380TIP3    H149555   4.582   2.296  12.821  0.4572 -2.0259 -1.1408
 9380TIP3    H249556   4.539   2.390  12.710 -0.6461 -0.9386  0.1758
 9381TIP3   OH249557   1.776   1.262  10.953  0.5839 -0.7503  0.2785
 9381TIP3    H149558   1.800   1.269  11.046 -2.9508  2.2821  1.2011
 9381TIP3    H249559   1.743   1.173  10.943 -1.4092 -0.3851  2.7213
 9382TIP3   OH249560   5.690   0.247  11.722  0.3104  0.6580 -0.0809
 9382TIP3    H149561   5.637   0.185  11.671 -0.3897  0.8942  0.3533
 9382TIP3    H249562   5.680   0.330  11.676  0.5480  0.6416 -0.1642
 9383TIP3   OH249563   5.609   1.469   6.245  0.0170 -0.0008 -0.0585
 9383TIP3    H149564   5.693   1.509   6.221 -0.4301  0.0032 -1.7462
 9383TIP3    H249565   5.564   1.536   6.296  0.5003  0.5027 -0.2753
 9384TIP3   OH249566   4.862   4.333  16.015 -0.6781 -0.0383 -0.3236
 9384TIP3    H149567   4.809   4.264  16.056 -0.6145 -1.1346 -2.0010
 9384TIP3    H249568   4.891   4.387  16.089 -2.0844 -0.8343  0.8902
 9385TIP3   OH249569   2.894   5.180  14.515  0.4292  0.2106  0.5027
 9385TIP3    H149570   2.845   5.200  14.436 -0.1824  0.0699  0.8431
 9385TIP3    H249571   2.831   5.189  14.586  0.4997 -1.4010  0.8190
 9386TIP3   OH249572   3.149   4.147   1.210  0.0341 -0.0909  0.0781
 9386TIP3    H149573   3.210   4.156   1.136  0.8847 -2.7514  0.3404
 9386TIP3    H249574   3.132   4.053   1.215 -2.3377  0.3411  1.4705
 9387TIP3   OH249575   3.233   6.522   2.961 -0.8863  0.0349  0.1090
 9387TIP3    H149576   3.298   6.463   2.924 -0.7743 -0.2976  0.8231
 9387TIP3    H249577   3.180   6.548   2.886 -0.2571 -0.1035 -0.3920
 9388TIP3   OH249578   1.243   5.300  13.501 -0.0615 -0.3745 -0.3554
 9388TIP3    H149579   1.286   5.334  13.579  0.0288  0.0434 -0.5843
 9388TIP3    H249580   1.225   5.209  13.521 -1.9028  0.2250  0.9649
 9389TIP3   OH249581   5.882   1.156  12.601 -0.1848 -0.3659 -0.2220
 9389TIP3    H149582   5.954   1.123  12.655  0.0175 -1.5875 -1.1654
 9389TIP3    H249583   5.888   1.251  12.607  2.3049 -0.3736 -1.2057
 9390TIP3   OH249584   4.786   6.152  13.067  0.0132 -0.5505  0.6658
 9390TIP3    H149585   4.771   6.065  13.029 -0.7716 -0.5598  0.9681
 9390TIP3    H249586   4.751   6.145  13.156  1.8387 -0.5330  1.4170
 9391TIP3   OH249587   3.221   4.046   0.182 -0.0300  0.4728 -0.1309
 9391TIP3    H149588   3.200   3.955   0.163  0.6328  0.2093  0.3425
 9391TIP3    H249589   3.178   4.063   0.266  1.7299 -0.1474  0.9733
 9392TIP3   OH249590   0.767   2.927  15.699  0.1974 -0.4596  0.1788
 9392TIP3    H149591   0.765   3.021  15.717  0.4118 -0.3089 -0.5636
 9392TIP3    H249592   0.688   2.911  15.649  0.7524 -0.4532 -0.7218
 9393TIP3   OH249593   5.456   6.179   3.017  0.6025 -0.3119  0.4665
 9393TIP3    H149594   5.479   6.106   3.075  2.2212  0.2385  0.5885
 9393TIP3    H249595   5.374   6.153   2.976  0.3647 -1.5150  1.6585
 9394TIP3   OH249596   2.202   3.576   4.511 -0.0386  0.0080 -0.2551
 9394TIP3    H149597   2.136   3.509   4.526  1.9534 -1.7095  1.4634
 9394TIP3    H249598   2.181   3.645   4.575  0.5278 -1.1549  1.2609
 9395TIP3   OH249599   0.134   5.274  16.862  0.4953  0.4454  0.0277
 9395TIP3    H149600   0.117   5.180  16.869 -1.6952  0.7319 -0.8657
 9395TIP3    H249601   0.125   5.307  16.951 -1.4112  0.1891 -0.0409
 9396TIP3   OH249602   4.848   4.092  13.352  0.8307  0.2126 -0.1636
 9396TIP3    H149603   4.896   4.016  13.386 -1.0477  0.0535  2.3455
 9396TIP3    H249604   4.865   4.162  13.415  0.0122  0.9613 -0.7509
 9397TIP3   OH249605   0.960   4.498  14.198  0.0435  0.1655 -0.0250
 9397TIP3    H149606   0.984   4.552  14.273 -1.1272  0.8393 -0.1103
 9397TIP3    H249607   0.922   4.419  14.236 -0.9256  0.6839  0.1054
 9398TIP3   OH249608   1.646   6.487   0.914 -0.3191 -0.3110 -0.5421
 9398TIP3    H149609   1.634   6.507   0.821  1.2484 -2.2617 -1.2502
 9398TIP3    H249610   1.694   6.404   0.914 -0.6248 -0.5570  2.0338
 9399TIP3   OH249611   1.439   5.854   3.608  0.3440 -0.1654  0.8981
 9399TIP3    H149612   1.368   5.832   3.547  0.7891  0.2335  0.2121
 9399TIP3    H249613   1.422   5.801   3.686 -0.3499 -0.5458  0.4969
 9400TIP3   OH249614   3.448   4.095   1.813 -0.3388  0.2319  0.4799
 9400TIP3    H149615   3.419   4.004   1.825 -1.2252  0.2747 -1.1335
 9400TIP3    H249616   3.514   4.090   1.745 -1.8025  0.9892 -1.0689
 9401TIP3   OH249617   1.547   2.133  16.111  0.4789  0.0826  0.2370
 9401TIP3    H149618   1.481   2.129  16.180 -0.9862 -1.5532 -1.1867
 9401TIP3    H249619   1.506   2.093  16.034  3.3902 -1.7883 -0.5200
 9402TIP3   OH249620   5.838   0.023  15.569  0.2207  0.2136  0.1053
 9402TIP3    H149621   5.789  -0.057  15.549 -0.6884  1.0153 -0.9992
 9402TIP3    H249622   5.787   0.064  15.639  0.0718  0.3632 -0.0893
 9403TIP3   OH249623   6.541   1.984  15.667 -0.2278  0.2825  0.3721
 9403TIP3    H149624   6.541   2.067  15.715  0.8177  0.2894  0.3803
 9403TIP3    H249625   6.626   1.983  15.622 -0.6680 -0.2981 -0.4740
 9404TIP3   OH249626   1.423   0.514  13.415  0.0359 -0.0669  0.1046
 9404TIP3    H149627   1.404   0.509  13.322  1.6139  2.9574 -0.5411
 9404TIP3    H249628   1.518   0.525  13.419  0.3605 -2.6958  2.3057
 9405TIP3   OH249629   6.175   5.948  10.634 -0.1911 -0.1281  0.7179
 9405TIP3    H149630   6.225   5.870  10.657  0.0946  0.4505  2.1625
 9405TIP3    H249631   6.234   6.001  10.581 -0.3659 -0.8416 -0.2171
 9406TIP3   OH249632   6.285   2.697   4.549  0.0370 -0.6002  0.5326
 9406TIP3    H149633   6.280   2.650   4.466 -2.3365 -0.7595  0.7033
 9406TIP3    H249634   6.210   2.665   4.600  0.6959  0.4203  2.2475
 9407TIP3   OH249635   5.789   5.188  16.612  0.0129  0.8473  0.4309
 9407TIP3    H149636   5.727   5.114  16.615 -0.3880  1.1838  2.6814
 9407TIP3    H249637   5.862   5.159  16.668  0.5220  1.5881  0.1514
 9408TIP3   OH249638   3.698   2.941  13.880 -0.0616  0.0388 -0.2830
 9408TIP3    H149639   3.603   2.945  13.892 -0.4306 -2.0988 -2.0235
 9408TIP3    H249640   3.718   2.848  13.870  2.3808  0.3354  0.9477
 9409TIP3   OH249641   0.521   2.133  13.699  0.7350 -0.4921  0.1565
 9409TIP3    H149642   0.511   2.203  13.764 -1.3573  0.1327 -0.7510
 9409TIP3    H249643   0.604   2.091  13.722  0.6159  0.4024  2.5258
 9410TIP3   OH249644   2.117   1.248  11.637  0.5768 -0.0036 -0.4309
 9410TIP3    H149645   2.102   1.297  11.718  1.5471  0.1897 -0.3507
 9410TIP3    H249646   2.042   1.189  11.630  0.5693 -0.1518  0.7000
 9411TIP3   OH249647   5.405   2.198  15.203  0.1450 -0.2878 -0.1144
 9411TIP3    H149648   5.354   2.168  15.279 -0.7494  1.3480 -0.0234
 9411TIP3    H249649   5.446   2.279  15.233 -0.4617  0.5473 -1.4559
 9412TIP3   OH249650   2.245   6.444  12.762  0.8178 -0.0675 -0.1196
 9412TIP3    H149651   2.177   6.443  12.695  1.1839  1.3093 -0.5301
 9412TIP3    H249652   2.325   6.469  12.716  0.9290  1.6576  0.9093
 9413TIP3   OH249653   4.461   6.484   3.635  0.1642 -0.1065  0.0275
 9413TIP3    H149654   4.414   6.402   3.647 -1.6217  0.5676 -1.7346
 9413TIP3    H249655   4.432   6.539   3.708 -0.2734 -0.3385  0.0311
 9414TIP3   OH249656   1.930   0.767   2.205 -0.8018 -0.0304  0.0919
 9414TIP3    H149657   1.913   0.847   2.155 -0.0780 -1.5581 -2.8427
 9414TIP3    H249658   1.844   0.737   2.233 -1.5093 -0.0799 -1.9696
 9415TIP3   OH249659   4.186   4.742  16.484 -0.2049  0.6302 -0.1994
 9415TIP3    H149660   4.173   4.649  16.468 -0.9443  0.4895  1.0495
 9415TIP3    H249661   4.278   4.757  16.466 -0.4299  0.0124 -2.0013
 9416TIP3   OH249662   1.064   5.528   0.213 -0.0336  0.4976 -0.6204
 9416TIP3    H149663   1.051   5.573   0.129 -1.4620  3.0453  0.8427
 9416TIP3    H249664   0.976   5.518   0.248  0.5069 -0.9698  0.3905
 9417TIP3   OH249665   4.189   3.963   0.997 -0.2703  0.3128 -0.1069
 9417TIP3    H149666   4.107   4.002   0.965  0.0825  0.9026 -0.3031
 9417TIP3    H249667   4.195   3.879   0.951 -0.8301  0.2067  0.0083
 9418TIP3   OH249668   1.141   0.268   1.093  0.2883 -0.1059  0.0764
 9418TIP3    H149669   1.132   0.173   1.087  1.5876 -0.3578  1.4789
 9418TIP3    H249670   1.126   0.300   1.004 -0.3862 -1.5860 -0.3737
 9419TIP3   OH249671   2.154   4.389   3.646 -0.7984 -0.2751  0.2021
 9419TIP3    H149672   2.105   4.452   3.700 -0.2361 -0.9023  1.4947
 9419TIP3    H249673   2.140   4.305   3.689  0.0072 -0.7345 -0.4043
 9420TIP3   OH249674   1.442   0.861  14.698 -0.2837 -0.1158 -0.0271
 9420TIP3    H149675   1.444   0.843  14.604  4.2117 -1.1006  0.0408
 9420TIP3    H249676   1.461   0.955  14.705 -1.1822  0.0829 -0.0265
 9421TIP3   OH249677   3.396   1.323  13.561  0.1533  0.2450 -0.5095
 9421TIP3    H149678   3.347   1.404  13.550 -0.7476 -0.3536 -1.1684
 9421TIP3    H249679   3.336   1.265  13.609  0.4332 -0.3192 -0.8268
 9422TIP3   OH249680   1.269   4.452   1.648 -0.0843 -0.4363 -1.0669
 9422TIP3    H149681   1.213   4.425   1.575 -0.1509 -1.1708 -0.7559
 9422TIP3    H249682   1.247   4.392   1.719  0.0519  0.2097 -0.4701
 9423TIP3   OH249683   4.044   2.289  15.797  0.6025 -0.5967 -0.0818
 9423TIP3    H149684   4.027   2.206  15.843  3.0898 -0.7626  0.6657
 9423TIP3    H249685   4.066   2.351  15.867 -1.1947  0.7656 -0.6305
 9424TIP3   OH249686   3.126   3.358  11.546  0.3238 -0.3098 -0.6699
 9424TIP3    H149687   3.101   3.358  11.639 -1.7590  1.2534 -1.1569
 9424TIP3    H249688   3.148   3.266  11.528 -0.7526 -0.9547  0.9947
 9425TIP3   OH249689   5.500   4.600   2.631  0.6301  0.0819 -0.4495
 9425TIP3    H149690   5.497   4.519   2.580  1.6676 -1.6785  2.0919
 9425TIP3    H249691   5.425   4.594   2.691  1.7873  0.0039  1.0577
 9426TIP3   OH249692   5.385   4.088  15.171  0.0658  0.2452  0.1282
 9426TIP3    H149693   5.425   4.078  15.084  1.0927  2.2019  0.3218
 9426TIP3    H249694   5.291   4.075  15.156  0.3690 -0.9216 -0.9754
 9427TIP3   OH249695   1.334   4.062   5.437  0.4201 -0.2089 -0.3391
 9427TIP3    H149696   1.327   3.967   5.450 -1.9371 -0.7133 -3.6915
 9427TIP3    H249697   1.393   4.071   5.362  3.1290  1.3284  1.8219
 9428TIP3   OH249698   2.719   1.739  13.718  0.6399 -0.0676  0.4336
 9428TIP3    H149699   2.742   1.827  13.748 -0.2850  0.4593 -0.3615
 9428TIP3    H249700   2.651   1.753  13.653  3.1588 -1.0374 -2.6632
 9429TIP3   OH249701   6.086   1.752  16.765  0.2748 -0.2256  0.5655
 9429TIP3    H149702   6.083   1.823  16.828 -0.9189 -1.6100  2.1565
 9429TIP3    H249703   6.028   1.780  16.694  0.4262  0.6956  0.7933
 9430TIP3   OH249704   3.278   3.479  12.869 -0.8080  0.3139 -0.1343
 9430TIP3    H149705   3.288   3.482  12.964  1.9415  1.7047 -0.3618
 9430TIP3    H249706   3.262   3.570  12.844 -2.5757 -0.1869 -0.9693
 9431TIP3   OH249707   3.252   0.915   2.707  0.3585 -0.3453  0.0749
 9431TIP3    H149708   3.240   0.989   2.766  0.2540 -1.3194  1.3088
 9431TIP3    H249709   3.331   0.871   2.737  0.8249 -0.3406 -1.0900
 9432TIP3   OH249710   5.743   2.649  12.957 -0.1847 -0.4630 -0.0637
 9432TIP3    H149711   5.748   2.558  12.929  2.4282 -0.0380 -1.2240
 9432TIP3    H249712   5.680   2.689  12.897 -2.6523 -1.7215  1.4744
 9433TIP3   OH249713   5.423   2.730  11.703 -0.2931 -0.0448 -0.0694
 9433TIP3    H149714   5.396   2.651  11.658  0.2633  0.5084 -1.4443
 9433TIP3    H249715   5.505   2.756  11.659 -0.2497  1.0603  0.6107
 9434TIP3   OH249716   4.371   2.445   1.617 -0.4765  0.4001 -0.4357
 9434TIP3    H149717   4.363   2.540   1.626 -0.7598  0.3121  0.3329
 9434TIP3    H249718   4.436   2.421   1.683 -1.1549 -0.0576  0.0664
 9435TIP3   OH249719   2.466   1.785   1.186 -0.2513  0.0804  0.4400
 9435TIP3    H149720   2.529   1.719   1.157  0.6363  1.1521 -0.1359
 9435TIP3    H249721   2.385   1.736   1.200  0.3776 -1.1244  0.0106
 9436TIP3   OH249722   1.614   4.849  11.021 -0.1867  0.3531  0.1989
 9436TIP3    H149723   1.653   4.908  11.085 -0.6914  1.2027 -0.2604
 9436TIP3    H249724   1.659   4.869  10.939  0.2416 -0.5134  0.2059
 9437TIP3   OH249725   0.346   0.518   4.012 -0.3380  0.0484  0.0013
 9437TIP3    H149726   0.441   0.508   3.999 -0.6079 -0.8817 -1.4492
 9437TIP3    H249727   0.329   0.611   3.995  0.3926  0.3873  0.9930
 9438TIP3   OH249728   2.854   2.610  17.020 -0.0999 -0.2728 -0.3554
 9438TIP3    H149729   2.923   2.648  16.965  0.0977 -0.2179 -0.0718
 9438TIP3    H249730   2.782   2.594  16.959 -0.2492  0.7220 -0.4604
 9439TIP3   OH249731   0.665   0.325   5.074  0.1715 -0.6078 -0.0657
 9439TIP3    H149732   0.625   0.408   5.102  0.2845 -0.0500 -1.4854
 9439TIP3    H249733   0.619   0.258   5.125  0.3109  0.3396  1.3618
 9440TIP3   OH249734   2.524   0.856  16.524 -0.5388 -0.2278 -0.0326
 9440TIP3    H149735   2.501   0.765  16.503 -0.0072 -0.8873  2.0096
 9440TIP3    H249736   2.550   0.853  16.616  1.2175  1.6881 -0.4057
 9441TIP3   OH249737   6.726   4.392   5.720  0.1416  0.4328  0.8737
 9441TIP3    H149738   6.672   4.319   5.691 -2.2480  2.8211 -1.2941
 9441TIP3    H249739   6.700   4.408   5.810  0.0745 -0.8092  1.0827
 9442TIP3   OH249740   0.158   2.930   4.397  0.2638 -0.0192  0.1058
 9442TIP3    H149741   0.129   2.968   4.479 -0.3073  0.9449 -0.5178
 9442TIP3    H249742   0.207   3.001   4.354 -0.1111 -0.2411 -0.7174
 9443TIP3   OH249743   4.967   6.438  13.985 -0.4758 -0.0300  0.4294
 9443TIP3    H149744   5.054   6.418  14.018 -0.0664  2.0992  0.7605
 9443TIP3    H249745   4.982   6.487  13.904 -1.2163  2.5576  1.7463
 9444TIP3   OH249746   2.523   2.029  13.154  0.0571  0.6903  0.0113
 9444TIP3    H149747   2.475   2.110  13.137 -0.4872  0.4573  0.4146
 9444TIP3    H249748   2.545   1.996  13.067 -0.2688  0.9488 -0.1703
 9445TIP3   OH249749   5.502   0.394   1.752 -0.2962  0.3552 -0.1540
 9445TIP3    H149750   5.576   0.337   1.773 -0.2544  0.8114  0.9757
 9445TIP3    H249751   5.425   0.339   1.767 -0.2216  0.0578 -0.7895
 9446TIP3   OH249752   1.370   4.134   5.704 -0.0832  0.0191 -1.0547
 9446TIP3    H149753   1.377   4.098   5.616  1.7447  0.6719 -1.2272
 9446TIP3    H249754   1.447   4.099   5.751  0.6389  1.9983 -0.6523
 9447TIP3   OH249755   6.229   1.053  15.214 -0.5318  0.0842 -0.2847
 9447TIP3    H149756   6.200   1.028  15.126  1.5536 -0.3900 -0.8719
 9447TIP3    H249757   6.147   1.073  15.260 -1.7738 -0.9172 -1.9204
 9448TIP3   OH249758   3.986   4.413   2.370 -0.0223 -0.3273  0.2829
 9448TIP3    H149759   4.049   4.486   2.370  0.4727 -0.7426 -0.1232
 9448TIP3    H249760   3.904   4.452   2.340 -0.0248  0.2774  1.0573
 9449TIP3   OH249761   6.365   2.349   4.064 -0.3116  0.1505  0.0469
 9449TIP3    H149762   6.297   2.329   3.999  0.6427  0.8275 -1.1905
 9449TIP3    H249763   6.430   2.400   4.016  1.8977 -1.8450  0.7785
 9450TIP3   OH249764   1.796   1.609  12.219 -0.0441 -0.1267 -0.7658
 9450TIP3    H149765   1.874   1.581  12.267  0.0719  0.9886 -0.2714
 9450TIP3    H249766   1.738   1.533  12.221  0.0884 -0.2255  0.9038
 9451TIP3   OH249767   2.279   4.727  17.254 -0.4970  0.2397 -0.0550
 9451TIP3    H149768   2.288   4.818  17.284 -2.3026  0.6574 -0.6682
 9451TIP3    H249769   2.250   4.679  17.332  0.7392  0.0914  0.3449
 9452TIP3   OH249770   1.201   5.112  16.658 -0.1867 -0.0303 -0.1895
 9452TIP3    H149771   1.167   5.070  16.579  0.2850  1.3404 -1.1677
 9452TIP3    H249772   1.130   5.169  16.687 -0.8274 -1.4419  1.1329
 9453TIP3   OH249773   5.436   2.127   5.484 -0.2003  0.4365  0.2444
 9453TIP3    H149774   5.346   2.098   5.495  0.2102 -0.5854  1.0815
 9453TIP3    H249775   5.445   2.143   5.390 -1.1044  0.0759  0.0866
 9454TIP3   OH249776   0.902   3.474  13.837  0.3629  0.1540  0.2927
 9454TIP3    H149777   0.934   3.386  13.816 -1.2315 -0.0527 -1.4273
 9454TIP3    H249778   0.981   3.521  13.863  1.2457 -1.7993  1.4438
 9455TIP3   OH249779   4.748   6.514   2.083 -0.4902 -0.0560 -0.1172
 9455TIP3    H149780   4.660   6.517   2.044 -0.8323 -0.8614  0.5556
 9455TIP3    H249781   4.806   6.492   2.010 -0.6238  1.8477 -0.8687
 9456TIP3   OH249782   3.924   6.619  15.109 -0.2638  0.1928 -0.2804
 9456TIP3    H149783   3.839   6.591  15.075  0.9810 -2.2327 -1.7532
 9456TIP3    H249784   3.921   6.597  15.202 -1.7127  1.4911  0.0138
 9457TIP3   OH249785   1.432   6.669  14.342 -0.3589  0.1245  0.2494
 9457TIP3    H149786   1.410   6.635  14.255 -1.1295  0.0939  0.4452
 9457TIP3    H249787   1.406   6.761  14.339  2.0982  0.8785 -0.4114
 9458TIP3   OH249788   2.919   1.655   1.333  0.3257  0.0060  0.0865
 9458TIP3    H149789   2.979   1.729   1.327  1.3022 -0.8585 -1.5696
 9458TIP3    H249790   2.861   1.677   1.406  1.4877  1.7171  0.5552
 9459TIP3   OH249791   5.247   6.110  16.080  0.4274  0.0457  0.1696
 9459TIP3    H149792   5.322   6.066  16.120  2.3163  1.5738 -1.4638
 9459TIP3    H249793   5.274   6.126  15.989 -1.3469  1.8319 -0.1191
 9460TIP3   OH249794   3.177   4.679   5.087 -0.0243 -0.1768 -0.3866
 9460TIP3    H149795   3.093   4.649   5.053 -1.0492  1.4981  0.5223
 9460TIP3    H249796   3.242   4.639   5.029 -1.1691 -4.1919  0.7534
 9461TIP3   OH249797   0.320   2.092   2.954  0.7418  0.1787  0.4052
 9461TIP3    H149798   0.262   2.081   3.029 -0.9356  0.1193 -0.8420
 9461TIP3    H249799   0.340   2.185   2.952  0.5541  0.2290  0.7588
 9462TIP3   OH249800   6.426   4.993  13.914  0.4628  0.2976 -0.2090
 9462TIP3    H149801   6.375   5.005  13.994  0.2058  0.4383 -0.3935
 9462TIP3    H249802   6.515   4.977  13.945  0.2702 -0.1761  0.1241
 9463TIP3   OH249803   4.267   0.678  13.128  0.2045 -0.4136  0.0839
 9463TIP3    H149804   4.287   0.769  13.107  0.9096 -0.0402  2.1219
 9463TIP3    H249805   4.201   0.652  13.064  0.5433  1.2873 -1.0056
 9464TIP3   OH249806   5.329   0.851   3.442  0.7803  0.1341 -0.4991
 9464TIP3    H149807   5.379   0.806   3.509 -0.5148 -1.1706 -0.3708
 9464TIP3    H249808   5.342   0.799   3.363  1.2740  0.9498 -0.9702
 9465TIP3   OH249809   5.326   2.251  16.820  0.1263 -0.3614  0.3924
 9465TIP3    H149810   5.372   2.314  16.876  1.6225  0.2598 -1.3984
 9465TIP3    H249811   5.341   2.166  16.861 -0.1041  0.2202  1.7182
 9466TIP3   OH249812   0.004   6.686   2.142  0.7066 -0.2326  0.1585
 9466TIP3    H149813  -0.062   6.755   2.146  3.0400  2.1024  2.0464
 9466TIP3    H249814   0.018   6.671   2.048 -0.8478  0.8157 -0.2808
 9467TIP3   OH249815   3.095   0.750  16.670 -0.0507  0.3605 -0.0777
 9467TIP3    H149816   3.147   0.671  16.657  2.4744  2.3077 -3.8573
 9467TIP3    H249817   3.007   0.726  16.640  1.0472 -0.7469 -2.7661
 9468TIP3   OH249818   0.132   5.965  15.469 -0.3761  0.2974 -0.3207
 9468TIP3    H149819   0.153   5.883  15.514 -4.1611  1.2759  3.9115
 9468TIP3    H249820   0.214   6.015  15.469  0.3188 -0.3781  4.6484
 9469TIP3   OH249821   5.187   0.474   2.699  0.2006  0.0688 -1.0280
 9469TIP3    H149822   5.205   0.546   2.639 -0.9582  0.0339 -1.4372
 9469TIP3    H249823   5.118   0.423   2.657 -0.2036 -0.3070  0.0364
 9470TIP3   OH249824   3.306   6.171   0.347 -0.2991  0.2279 -0.1350
 9470TIP3    H149825   3.352   6.223   0.281 -0.3830 -2.1109 -2.2274
 9470TIP3    H249826   3.352   6.087   0.347 -1.7452 -0.6111  1.1149
 9471TIP3   OH249827   0.149   3.451  13.288 -0.6326 -0.3695  0.2814
 9471TIP3    H149828   0.170   3.390  13.218  0.6995 -0.6914  0.9373
 9471TIP3    H249829   0.231   3.495  13.308 -1.4453  1.2657  0.2011
 9472TIP3   OH249830   5.324   3.832   3.438  0.2681  0.2412 -0.5759
 9472TIP3    H149831   5.358   3.878   3.361  0.0537 -0.0302 -0.8350
 9472TIP3    H249832   5.286   3.751   3.403  0.4046 -0.0090 -0.1546
 9473TIP3   OH249833   5.942   1.049   0.616 -0.1043 -0.1226 -0.2631
 9473TIP3    H149834   6.033   1.024   0.632 -0.2931 -1.2655 -0.8676
 9473TIP3    H249835   5.925   1.024   0.525 -2.0148 -3.2628  0.7790
 9474TIP3   OH249836   0.413   4.253   4.162 -0.4322  0.9106 -0.0910
 9474TIP3    H149837   0.453   4.169   4.184 -2.1656 -0.0211 -0.3468
 9474TIP3    H249838   0.483   4.317   4.175  0.9960 -0.5844 -0.1199
 9475TIP3   OH249839   6.210   4.530  12.579  0.3293 -0.2929 -0.4073
 9475TIP3    H149840   6.192   4.592  12.650 -0.5373 -0.2816 -0.6303
 9475TIP3    H249841   6.163   4.451  12.604  1.6038 -0.9590 -0.0205
 9476TIP3   OH249842   4.083   3.589  11.554  0.4688 -0.3836 -0.2786
 9476TIP3    H149843   4.013   3.619  11.496  0.0381 -1.7190 -0.4950
 9476TIP3    H249844   4.155   3.650  11.538 -0.3718  0.5417 -0.6304
 9477TIP3   OH249845   5.607   5.688   0.881  0.9101  0.2673 -0.1693
 9477TIP3    H149846   5.571   5.599   0.888 -0.9258  1.0313  0.8938
 9477TIP3    H249847   5.670   5.694   0.953 -1.3912  0.8138  1.9320
 9478TIP3   OH249848   6.296   5.145  13.355 -0.6030  0.1320  1.2583
 9478TIP3    H149849   6.257   5.232  13.349 -2.4743 -0.7035  0.8770
 9478TIP3    H249850   6.336   5.144  13.443 -1.4802  0.9912  1.6872
 9479TIP3   OH249851   4.040   2.247   1.194  0.6261 -0.6248  0.0775
 9479TIP3    H149852   4.047   2.241   1.098  0.0888  0.2197 -0.0173
 9479TIP3    H249853   4.126   2.217   1.225  2.1892  2.4808 -0.8133
 9480TIP3   OH249854   6.719   1.749   0.560 -0.0849 -0.5842 -0.4960
 9480TIP3    H149855   6.676   1.829   0.593 -0.4429 -1.1251  0.3810
 9480TIP3    H249856   6.811   1.773   0.553 -0.2483  0.0366 -0.6534
 9481TIP3   OH249857   2.784   6.270   0.307 -0.8734  0.0274  0.6713
 9481TIP3    H149858   2.820   6.181   0.306 -2.4475 -0.6556  1.0919
 9481TIP3    H249859   2.805   6.302   0.394  0.1095  0.2650  0.3603
 9482TIP3   OH249860   3.522   4.375   4.466  0.3209 -0.3594 -0.4127
 9482TIP3    H149861   3.451   4.413   4.414 -0.2443 -1.2390 -0.2976
 9482TIP3    H249862   3.496   4.284   4.481  0.4486 -0.1322  1.4462
 9483TIP3   OH249863   2.253   0.513   0.607  0.1471  0.4052 -0.1420
 9483TIP3    H149864   2.284   0.584   0.664 -0.4532  1.0135 -0.5460
 9483TIP3    H249865   2.321   0.504   0.541  1.2745 -0.9074  1.1384
 9484TIP3   OH249866   5.291   1.715   3.151  0.0928  0.1680  0.1190
 9484TIP3    H149867   5.229   1.652   3.113  2.1286 -1.6716 -0.3477
 9484TIP3    H249868   5.277   1.708   3.245 -0.3847 -0.2469  0.0253
 9485TIP3   OH249869   1.351   5.514  11.631  0.2561  0.0601  0.7540
 9485TIP3    H149870   1.366   5.608  11.619 -0.4067  0.0450 -0.3372
 9485TIP3    H249871   1.308   5.507  11.716 -0.9174  0.9032  0.2594
 9486TIP3   OH249872   1.080   3.284  10.888 -0.5317  0.0258 -0.2327
 9486TIP3    H149873   1.139   3.234  10.832 -1.5620 -1.2570 -0.2206
 9486TIP3    H249874   0.994   3.245  10.873 -1.3850  1.7940 -0.1981
 9487TIP3   OH249875   3.576   3.277   1.181  0.2638  0.1907  0.2495
 9487TIP3    H149876   3.512   3.317   1.122 -1.9570 -1.8367  1.1565
 9487TIP3    H249877   3.550   3.305   1.269  0.1692 -1.2257  0.6944
 9488TIP3   OH249878   2.540   5.968   0.722  0.4154 -0.0385 -0.0609
 9488TIP3    H149879   2.549   5.999   0.632  4.1373  2.5415  0.9862
 9488TIP3    H249880   2.569   5.877   0.719 -0.7657 -0.4186 -1.5655
 9489TIP3   OH249881   6.244   6.744  13.248  0.0768  0.5443 -0.0802
 9489TIP3    H149882   6.273   6.657  13.220 -2.6761 -0.8333  0.9885
 9489TIP3    H249883   6.304   6.804  13.204  4.4859 -1.8543  1.9159
 9490TIP3   OH249884   1.597   2.442  13.042 -0.0425 -0.0363  0.5993
 9490TIP3    H149885   1.588   2.399  13.127  0.8091  1.0460  1.2731
 9490TIP3    H249886   1.529   2.508  13.041 -0.4025 -0.4085  0.1964
 9491TIP3   OH249887   6.683   0.159  16.035 -0.2310 -0.0514  0.2003
 9491TIP3    H149888   6.685   0.070  16.002 -0.5036 -0.0794  0.2591
 9491TIP3    H249889   6.741   0.157  16.112 -0.4773 -0.2480  0.3807
 9492TIP3   OH249890   2.829   4.362   2.988  0.8836 -0.1370 -0.4309
 9492TIP3    H149891   2.762   4.331   2.928  1.7562 -1.4380 -0.7822
 9492TIP3    H249892   2.860   4.444   2.949  1.1635 -0.7633 -1.5784
 9493TIP3   OH249893   1.245   5.138   0.501  0.4580 -0.0527 -0.1149
 9493TIP3    H149894   1.219   5.175   0.416 -0.4159  0.0962  0.2078
 9493TIP3    H249895   1.261   5.214   0.556  2.3035 -0.1256 -0.4929
 9494TIP3   OH249896   4.547   2.816   3.331  0.1009  0.4248 -0.2209
 9494TIP3    H149897   4.600   2.863   3.266  0.6377  1.3167  0.8268
 9494TIP3    H249898   4.459   2.852   3.321 -0.4076 -1.1743 -2.0816
 9495TIP3   OH249899   3.767   5.502   3.584  0.2682 -0.4210 -0.1672
 9495TIP3    H149900   3.704   5.569   3.610  0.4039 -0.5686  0.5841
 9495TIP3    H249901   3.852   5.545   3.594  0.2965 -0.1926 -1.2646
 9496TIP3   OH249902   6.315   3.320  12.010  0.2770  0.1529  0.4488
 9496TIP3    H149903   6.268   3.304  11.928  2.7960 -0.9074 -0.9147
 9496TIP3    H249904   6.319   3.234  12.052 -0.7255  0.6327  1.5720
 9497TIP3   OH249905   0.222   3.909   1.278  0.3418  0.1360  0.0111
 9497TIP3    H149906   0.134   3.874   1.271  0.8003 -0.9087 -0.6073
 9497TIP3    H249907   0.233   3.927   1.372 -0.9512  1.4629 -0.0479
 9498TIP3   OH249908   4.118   1.875   6.237 -0.0061  0.0858 -0.7812
 9498TIP3    H149909   4.160   1.888   6.322 -1.5832 -0.1085  0.0795
 9498TIP3    H249910   4.137   1.954   6.187  0.7766  0.2817 -0.1861
 9499TIP3   OH249911   6.566   1.478   5.658  0.2533  0.2196 -0.5193
 9499TIP3    H149912   6.560   1.544   5.589  0.5616  0.4806 -0.2973
 9499TIP3    H249913   6.553   1.394   5.612  0.2535  0.4050 -0.8590
 9500TIP3   OH249914   2.709   5.607   4.872 -0.9570  0.3922 -0.0087
 9500TIP3    H149915   2.740   5.587   4.784 -1.4198 -1.1652  0.1594
 9500TIP3    H249916   2.739   5.697   4.888  2.5547 -0.5712 -0.2769
 9501TIP3   OH249917   1.762   4.131   4.011  0.3899 -0.3331 -0.0975
 9501TIP3    H149918   1.856   4.117   4.019  0.3628 -0.3320  0.2131
 9501TIP3    H249919   1.734   4.069   3.943  0.8115  0.4877 -1.0485
 9502TIP3   OH249920   1.182   4.383  12.006 -0.1296  0.1139 -0.0859
 9502TIP3    H149921   1.139   4.436  12.074  2.0924  0.5592  1.0617
 9502TIP3    H249922   1.209   4.447  11.939 -1.7167 -0.2433 -1.1255
 9503TIP3   OH249923   1.571   5.981   0.958 -0.5750 -0.0031 -0.0444
 9503TIP3    H149924   1.517   6.024   1.025 -0.5372  0.5573 -0.3637
 9503TIP3    H249925   1.552   6.030   0.878  0.0066 -0.1471 -0.2709
 9504TIP3   OH249926   2.906   0.469  13.374 -0.0343  0.2847  0.4948
 9504TIP3    H149927   2.929   0.537  13.438  0.1630 -0.6051  1.3927
 9504TIP3    H249928   2.863   0.401  13.426 -1.4783  0.2994 -0.5897
 9505TIP3   OH249929   5.135   3.160   5.652 -0.7739 -0.7478  0.3888
 9505TIP3    H149930   5.105   3.196   5.735 -0.8001 -0.2283  0.1583
 9505TIP3    H249931   5.179   3.078   5.676  0.5012  0.0963  1.0808
 9506TIP3   OH249932   4.813   6.591   4.953 -0.3885  0.2553 -0.1398
 9506TIP3    H149933   4.791   6.617   5.043 -0.2190 -1.5126  0.4339
 9506TIP3    H249934   4.906   6.611   4.944  0.1059 -1.5071  0.8095
 9507TIP3   OH249935   0.889   6.219  16.456  0.2227 -0.2396 -0.3275
 9507TIP3    H149936   0.968   6.243  16.504  0.8753 -1.5309 -0.7019
 9507TIP3    H249937   0.878   6.288  16.390  0.1786  0.7346  0.6760
 9508TIP3   OH249938   2.964   6.682   3.008  0.1770  0.2858  0.5456
 9508TIP3    H149939   2.996   6.768   3.033  0.5333  0.0864  0.7795
 9508TIP3    H249940   3.027   6.651   2.942  0.1622  0.1212  0.6076
 9509TIP3   OH249941   2.767   5.847  14.180  0.1383 -0.4326 -0.0657
 9509TIP3    H149942   2.834   5.828  14.115  0.6270 -2.2780  0.9060
 9509TIP3    H249943   2.736   5.934  14.157  1.8737 -0.0980 -1.3915
 9510TIP3   OH249944   6.065   4.532  12.224  0.0233  0.0314  0.1755
 9510TIP3    H149945   6.027   4.461  12.276  0.2554  0.1926  0.5714
 9510TIP3    H249946   6.153   4.544  12.261  0.1107  0.2951 -0.1145
 9511TIP3   OH249947   6.429   5.986   5.498  0.3544 -0.6419 -0.9843
 9511TIP3    H149948   6.409   6.063   5.553 -0.9101 -0.7625 -1.2509
 9511TIP3    H249949   6.516   5.959   5.527  0.2247  0.0303  0.1250
 9512TIP3   OH249950   0.590   3.623   1.637 -0.3196  0.0402  0.4713
 9512TIP3    H149951   0.660   3.644   1.700 -0.2748  0.6582  0.2254
 9512TIP3    H249952   0.513   3.608   1.691  0.0212 -0.7673  0.7555
 9513TIP3   OH249953   3.095   2.135   0.006  0.0125 -0.1236  0.0141
 9513TIP3    H149954   3.147   2.128  -0.075 -0.0727  0.9045 -0.1432
 9513TIP3    H249955   3.132   2.211   0.051 -0.1399 -0.5099  0.8124
 9514TIP3   OH249956   4.630   0.171  15.416 -0.0145 -0.3388  0.1977
 9514TIP3    H149957   4.679   0.233  15.362 -0.3643 -1.3976 -1.4248
 9514TIP3    H249958   4.564   0.225  15.460 -0.2126  0.4870 -1.0504
 9515TIP3   OH249959   3.104   6.442   1.549 -0.0678 -0.0197 -0.0663
 9515TIP3    H149960   3.078   6.488   1.469  1.1160  0.0585 -0.4180
 9515TIP3    H249961   3.143   6.360   1.518 -0.2042 -0.2981  0.4730
 9516TIP3   OH249962   0.763   4.995  12.026  0.0823  0.8301  0.4452
 9516TIP3    H149963   0.723   5.038  12.102 -1.6883 -1.6297  1.0228
 9516TIP3    H249964   0.808   4.919  12.063 -0.4942 -0.2019 -0.9163
 9517TIP3   OH249965   0.106   2.438   0.082 -0.0130  0.3422 -0.2806
 9517TIP3    H149966   0.159   2.518   0.085 -0.2763  0.5082 -0.0609
 9517TIP3    H249967   0.158   2.377   0.030 -0.2682  0.9940 -1.3278
 9518TIP3   OH249968   5.308   5.415   5.074  0.2267 -0.3743 -0.2387
 9518TIP3    H149969   5.281   5.504   5.049  1.4551 -0.3040 -1.4315
 9518TIP3    H249970   5.364   5.428   5.151 -0.5262 -0.2340  0.2938
 9519TIP3   OH249971   3.711   1.709  12.951 -0.1387  0.1668  0.1226
 9519TIP3    H149972   3.706   1.713  12.855  0.8158 -3.1859 -0.1738
 9519TIP3    H249973   3.734   1.619  12.970 -0.7860  0.6137  3.5931
 9520TIP3   OH249974   2.120   5.459  13.923 -0.6120 -0.1909 -0.0980
 9520TIP3    H149975   2.109   5.442  14.016 -0.4415 -0.7116 -0.1685
 9520TIP3    H249976   2.214   5.471  13.911 -0.5840 -0.5717 -0.2731
 9521TIP3   OH249977   5.897   2.410   4.508  0.4581 -0.3083  0.3026
 9521TIP3    H149978   5.910   2.329   4.459  0.8376 -0.9374  1.4048
 9521TIP3    H249979   5.810   2.401   4.547  0.1059  0.2441 -0.3264
 9522TIP3   OH249980   5.323   3.927  16.582 -0.3066 -0.5066 -0.0048
 9522TIP3    H149981   5.393   3.879  16.537 -0.6642 -0.9744 -0.0787
 9522TIP3    H249982   5.365   3.964  16.659 -0.0938 -1.2237  0.2323
 9523TIP3   OH249983   3.318   5.010  11.182 -0.0511  0.0929  0.0904
 9523TIP3    H149984   3.396   4.980  11.134 -0.6074 -1.2767 -0.0049
 9523TIP3    H249985   3.246   4.958  11.146 -1.3004  2.3311 -0.8302
 9524TIP3   OH249986   3.757   5.129  16.750 -0.1665 -1.0853  0.1273
 9524TIP3    H149987   3.769   5.127  16.845  0.6673 -1.9440  0.0254
 9524TIP3    H249988   3.768   5.038  16.722  1.8923 -0.5742 -1.0214
 9525TIP3   OH249989   6.372   4.013   6.126  0.6379  0.8801 -0.4050
 9525TIP3    H149990   6.301   4.000   6.064  0.2927 -0.6304  0.2729
 9525TIP3    H249991   6.449   4.030   6.071 -0.1340  2.1285 -1.1460
 9526TIP3   OH249992   0.180   2.158  12.957 -0.0703 -0.2424  1.5179
 9526TIP3    H149993   0.206   2.089  12.895 -0.7742 -0.1518  1.1171
 9526TIP3    H249994   0.208   2.239  12.916 -0.7444 -0.1640  1.2059
 9527TIP3   OH249995   3.428   2.952  14.526 -0.5279 -0.0799 -0.1787
 9527TIP3    H149996   3.415   2.974  14.434 -1.0902 -1.5508 -0.4888
 9527TIP3    H249997   3.496   3.011  14.556 -1.1849  1.2482 -1.2098
 9528TIP3   OH249998   0.408   2.611   2.078 -0.6301  0.2400 -0.7614
 9528TIP3    H149999   0.443   2.700   2.078  1.3627 -0.4718 -2.0975
 9528TIP3    H250000   0.451   2.569   2.004 -2.2474 -1.5826 -0.7395
 9529TIP3   OH250001   4.831   0.582  16.211 -0.1702  0.0596 -0.2280
 9529TIP3    H150002   4.767   0.588  16.281  1.6962  1.8678  1.4403
 9529TIP3    H250003   4.860   0.491  16.213 -0.2099  0.0527  1.3473
 9530TIP3   OH250004   5.230   0.013  16.928 -0.7475 -0.1900  0.2638
 9530TIP3    H150005   5.243   0.050  16.841 -0.3872  0.9024  0.7655
 9530TIP3    H250006   5.285  -0.065  16.930  0.6614  0.7585  0.0971
 9531TIP3   OH250007   6.376   5.605   1.712 -0.4436  0.0535 -0.1306
 9531TIP3    H150008   6.465   5.618   1.745 -0.7941 -0.4260  1.0807
 9531TIP3    H250009   6.345   5.527   1.759 -0.9770 -0.6857 -1.6564
 9532TIP3   OH250010   1.557   5.336   2.038 -0.4782 -0.0658  0.8576
 9532TIP3    H150011   1.635   5.319   2.091  0.8047  1.4525 -0.4217
 9532TIP3    H250012   1.575   5.294   1.954 -0.0825  1.9524 -0.1343
 9533TIP3   OH250013   3.035   6.360   2.215 -0.4892  0.1342  0.0614
 9533TIP3    H150014   3.110   6.301   2.222 -0.1011  0.7807  2.9400
 9533TIP3    H250015   3.050   6.410   2.135  1.8202 -0.2518  0.1976
 9534TIP3   OH250016   6.577   4.681  11.033 -0.5409 -0.1156 -0.0781
 9534TIP3    H150017   6.639   4.636  11.091 -0.4428  0.9309  0.6453
 9534TIP3    H250018   6.542   4.611  10.977  1.0152 -0.7942 -0.2716
 9535TIP3   OH250019   1.647   2.838   1.554 -0.4615 -0.5273 -0.0557
 9535TIP3    H150020   1.724   2.802   1.509 -0.7710 -0.8813 -0.3000
 9535TIP3    H250021   1.590   2.868   1.483 -2.0687 -3.2796 -0.0653
 9536TIP3   OH250022   1.868   6.094  13.922 -0.2154 -0.0958 -0.1834
 9536TIP3    H150023   1.794   6.060  13.872 -0.6921  0.6737 -0.0192
 9536TIP3    H250024   1.859   6.189  13.917  0.1956 -0.0014  0.6740
 9537TIP3   OH250025   6.717   4.307  12.953  0.0505 -0.2777 -0.1855
 9537TIP3    H150026   6.629   4.299  12.990 -0.0547  1.7135  0.0629
 9537TIP3    H250027   6.728   4.227  12.901 -1.8990 -0.5687 -0.2252
 9538TIP3   OH250028   6.143   0.044  12.458  0.1676 -0.1919 -0.2692
 9538TIP3    H150029   6.098   0.014  12.537  0.7209  1.7152  0.8113
 9538TIP3    H250030   6.236   0.027  12.475  0.2228 -0.5867 -0.9076
 9539TIP3   OH250031   0.835   4.273  16.131  0.4846  0.0988  0.1362
 9539TIP3    H150032   0.775   4.346  16.119  2.3205  1.5508 -0.5886
 9539TIP3    H250033   0.809   4.210  16.064 -1.7179 -0.4291  1.3622
 9540TIP3   OH250034   4.361   4.115   3.581 -0.3414 -0.5858  0.2316
 9540TIP3    H150035   4.297   4.128   3.651 -0.6837  0.4972 -0.2586
 9540TIP3    H250036   4.446   4.124   3.625 -0.5508 -0.3630  0.5952
 9541TIP3   OH250037   2.824   5.651  16.356  0.3834  0.2772  0.2982
 9541TIP3    H150038   2.781   5.729  16.322  0.3429 -0.7747 -2.3400
 9541TIP3    H250039   2.916   5.676  16.364  0.3862  0.6229 -0.6133
 9542TIP3   OH250040   1.612   6.187  15.054 -0.6508 -0.1518 -0.0881
 9542TIP3    H150041   1.581   6.133  14.981 -0.5549 -1.1625  0.5909
 9542TIP3    H250042   1.546   6.175  15.123  0.3489 -0.9627  0.7565
 9543TIP3   OH250043   2.386   0.618   4.873  0.0624 -0.1320 -0.1611
 9543TIP3    H150044   2.377   0.644   4.964 -1.2147  0.7196 -0.4915
 9543TIP3    H250045   2.326   0.543   4.863 -0.9980  0.7480 -0.6288
 9544TIP3   OH250046   3.977   2.687   4.946  0.0021  0.2125  0.3530
 9544TIP3    H150047   3.916   2.678   4.873 -0.5007  3.1784  0.2652
 9544TIP3    H250048   4.064   2.681   4.906 -0.2348 -0.8672 -0.0245
 9545TIP3   OH250049   5.777   0.707  12.347 -0.4574 -0.6018 -0.1715
 9545TIP3    H150050   5.694   0.724  12.303  0.2376  0.6041 -1.0522
 9545TIP3    H250051   5.816   0.635  12.297  0.5564  1.0832 -1.9293
 9546TIP3   OH250052   0.334   6.412   1.449 -0.4392 -0.0804 -0.4140
 9546TIP3    H150053   0.393   6.486   1.439  0.1323 -0.7905 -3.0193
 9546TIP3    H250054   0.382   6.337   1.413 -0.9047 -1.8448  2.2729
 9547TIP3   OH250055   2.201   1.469  15.622  0.2553  0.0520  0.1850
 9547TIP3    H150056   2.207   1.505  15.534  2.3636  1.2548  0.7377
 9547TIP3    H250057   2.161   1.539  15.674  0.0091 -0.2342  0.3830
 9548TIP3   OH250058   1.717   1.773   0.761  0.0227  0.1243  0.2961
 9548TIP3    H150059   1.727   1.790   0.854 -0.8453 -0.2160  0.4584
 9548TIP3    H250060   1.803   1.739   0.734 -0.0229 -0.7605  1.1935
 9549TIP3   OH250061   6.144   1.341  13.505 -0.1746  0.5717 -0.1369
 9549TIP3    H150062   6.050   1.359  13.500 -0.2291  0.1777 -0.7102
 9549TIP3    H250063   6.181   1.389  13.431 -0.0983 -0.2751 -0.6634
 9550TIP3   OH250064   1.649   0.291   6.448 -0.0850 -0.0805 -0.1238
 9550TIP3    H150065   1.644   0.353   6.521 -0.6556  0.2946 -0.4695
 9550TIP3    H250066   1.575   0.315   6.392  0.1575 -0.5743 -0.6605
 9551TIP3   OH250067   5.179   3.739   2.780  0.3418  0.0319 -0.0518
 9551TIP3    H150068   5.101   3.732   2.724 -0.1274 -0.1837  0.6052
 9551TIP3    H250069   5.185   3.653   2.822  1.8009 -0.4485 -1.1861
 9552TIP3   OH250070   4.334   4.710  14.818  0.3159 -0.3209  0.1907
 9552TIP3    H150071   4.357   4.792  14.861 -0.1266  0.3376 -0.8108
 9552TIP3    H250072   4.417   4.664  14.808  0.5853  0.0662  0.6069
 9553TIP3   OH250073   6.095   0.903  11.431  0.1159 -0.0555 -0.1180
 9553TIP3    H150074   6.149   0.848  11.488  2.5554  4.3828  2.4474
 9553TIP3    H250075   6.156   0.936  11.365 -0.4748  1.7241  0.1866
 9554TIP3   OH250076   3.662   2.965   5.183  0.5602  0.2654 -0.3090
 9554TIP3    H150077   3.688   2.999   5.097 -0.6872 -1.2546 -1.3475
 9554TIP3    H250078   3.677   2.871   5.177 -2.5047 -0.3472 -0.0613
 9555TIP3   OH250079   5.341   0.798   4.812  0.1218 -0.0990  0.2809
 9555TIP3    H150080   5.334   0.728   4.747  0.2517  0.2962 -0.1610
 9555TIP3    H250081   5.414   0.772   4.868  0.2488 -0.2562  0.0435
 9556TIP3   OH250082   1.479   5.315   1.065 -0.1969  0.5896  0.2744
 9556TIP3    H150083   1.503   5.288   1.153  0.1050  1.2012  0.3856
 9556TIP3    H250084   1.387   5.340   1.071 -0.3120  0.1778  0.3013
 9557TIP3   OH250085   5.266   3.233   2.509  0.0004 -0.4579  0.1465
 9557TIP3    H150086   5.250   3.326   2.495 -1.7934 -0.8570 -0.7493
 9557TIP3    H250087   5.181   3.192   2.494  1.1210 -2.4244 -1.2051
 9558TIP3   OH250088   1.510   5.387   5.609 -0.2370 -0.0393 -0.2735
 9558TIP3    H150089   1.419   5.416   5.617  0.1903  0.8773  2.3322
 9558TIP3    H250090   1.561   5.468   5.604  0.4995 -0.5170 -0.7065
 9559TIP3   OH250091   0.267   5.221  11.527  0.4655  0.1248 -0.1413
 9559TIP3    H150092   0.207   5.150  11.504  0.3647  0.2744 -0.3358
 9559TIP3    H250093   0.283   5.209  11.621 -0.2693  0.3835  0.0203
 9560TIP3   OH250094   4.407   1.440  12.992 -0.3740 -0.2337  0.1914
 9560TIP3    H150095   4.354   1.425  12.914 -0.0801  0.1003 -0.0799
 9560TIP3    H250096   4.383   1.369  13.051  0.1745 -1.1194 -0.6136
 9561TIP3   OH250097   4.632   3.580  12.650  0.0136 -0.3469  0.2691
 9561TIP3    H150098   4.583   3.538  12.721 -0.0880 -0.3701  0.1854
 9561TIP3    H250099   4.682   3.649  12.694  0.6603 -0.9491  0.5063
 9562TIP3   OH250100   5.134   5.703  12.886  0.3282  0.2368 -0.3522
 9562TIP3    H150101   5.065   5.769  12.886  0.8712  0.8997 -2.5963
 9562TIP3    H250102   5.203   5.740  12.942 -0.1685  0.6587 -0.0205
 9563TIP3   OH250103   2.213   2.842  16.404 -0.3533  0.4377  0.4876
 9563TIP3    H150104   2.204   2.937  16.397 -0.9733  0.5689  2.5054
 9563TIP3    H250105   2.292   2.830  16.457 -0.5302 -0.1651  0.6176
 9564TIP3   OH250106   0.031   3.155  13.686 -0.1990  0.2372  0.3611
 9564TIP3    H150107   0.057   3.167  13.594 -0.5154  1.4900  0.4150
 9564TIP3    H250108   0.094   3.207  13.736  0.2889 -0.8546  0.9105
 9565TIP3   OH250109   4.325   0.378  11.829 -0.8973 -0.0172  0.2639
 9565TIP3    H150110   4.332   0.349  11.738  1.4050  0.7793  0.1311
 9565TIP3    H250111   4.307   0.472  11.822 -0.4344  0.1004  0.6028
 9566TIP3   OH250112   1.468   2.762  13.663 -0.3795 -0.1162 -0.1929
 9566TIP3    H150113   1.544   2.721  13.622  0.7886  1.1308  0.6076
 9566TIP3    H250114   1.505   2.829  13.721 -2.1446  1.6321 -0.9546
 9567TIP3   OH250115   1.470   5.098  13.336 -0.2413  0.2784 -0.4967
 9567TIP3    H150116   1.452   5.069  13.247  3.4864  0.9225 -1.6659
 9567TIP3    H250117   1.461   5.193  13.333 -2.1527  0.1764  0.4714
 9568TIP3   OH250118   4.694   3.391  14.592  0.2357  0.6346  0.2190
 9568TIP3    H150119   4.651   3.329  14.533 -0.9681  0.5756  1.1064
 9568TIP3    H250120   4.700   3.472  14.542  0.2143  0.2872 -0.3497
 9569TIP3   OH250121   1.002   6.540   5.659 -0.3543 -0.0081 -1.1065
 9569TIP3    H150122   1.016   6.586   5.577  3.4986 -0.5461 -0.9219
 9569TIP3    H250123   1.086   6.546   5.705 -1.4746 -2.2105  1.5275
 9570TIP3   OH250124   3.768   6.515   6.600 -0.3012 -0.3087  0.3798
 9570TIP3    H150125   3.700   6.462   6.557 -0.4484 -0.7601  1.1399
 9570TIP3    H250126   3.724   6.553   6.676 -0.2818  1.1962 -0.3364
 9571TIP3   OH250127   0.429   6.068  16.808  0.0709  0.1130  0.0566
 9571TIP3    H150128   0.406   6.161  16.820 -0.1861 -0.0283  0.7425
 9571TIP3    H250129   0.347   6.027  16.779 -0.6175 -0.3908  2.5008
 9572TIP3   OH250130   3.461   3.313  11.831 -0.4310  0.2593 -0.0724
 9572TIP3    H150131   3.550   3.344  11.848  0.2124 -1.3352 -0.2906
 9572TIP3    H250132   3.438   3.353  11.747 -0.7020  2.1956  0.8699
 9573TIP3   OH250133   0.561   0.471  16.282  0.2427 -0.0259  0.5083
 9573TIP3    H150134   0.546   0.384  16.318 -0.4834  0.3155  1.0516
 9573TIP3    H250135   0.494   0.481  16.214  1.0414 -0.3178 -0.3554
 9574TIP3   OH250136   4.281   3.532  12.965 -0.3054  0.9375 -0.0328
 9574TIP3    H150137   4.186   3.531  12.950 -0.3648  0.4176  0.3558
 9574TIP3    H250138   4.291   3.509  13.057  0.2170  0.5995 -0.1703
 9575TIP3   OH250139   1.506   4.356   6.388  0.0622  0.1537 -0.2003
 9575TIP3    H150140   1.594   4.323   6.368  0.2445  0.8863 -0.6798
 9575TIP3    H250141   1.452   4.278   6.397  0.3792 -0.2907 -1.7675
 9576TIP3   OH250142   1.534   2.638  12.360  0.3431 -0.0824  0.3518
 9576TIP3    H150143   1.542   2.726  12.325  0.8624 -0.3752 -0.2921
 9576TIP3    H250144   1.522   2.650  12.454  0.5108  0.6673  0.2812
 9577TIP3   OH250145   1.189   4.915   3.085  0.1714  0.1988  0.2085
 9577TIP3    H150146   1.097   4.918   3.113 -0.0477 -0.8227 -0.3367
 9577TIP3    H250147   1.188   4.949   2.995  0.5455  1.4591  0.6652
 9578TIP3   OH250148   5.465   6.193  12.584 -0.1548 -0.3235  0.2671
 9578TIP3    H150149   5.398   6.130  12.555  0.3405 -1.0691  0.7141
 9578TIP3    H250150   5.544   6.140  12.595  0.4842  0.5301 -0.1480
 9579TIP3   OH250151   5.523   2.012  15.668 -0.2701  0.5666  0.3798
 9579TIP3    H150152   5.440   1.974  15.699  0.0658  0.9727  1.8480
 9579TIP3    H250153   5.583   1.937  15.663 -0.3801  0.4677  0.5307
 9580TIP3   OH250154   0.738   5.820   3.293 -0.3970  0.4919  0.7648
 9580TIP3    H150155   0.653   5.844   3.255 -0.1945  0.0460  0.0167
 9580TIP3    H250156   0.793   5.798   3.218  0.0984 -0.1375  1.2963
 9581TIP3   OH250157   4.773   1.352   3.472  0.2817 -0.5156  0.3317
 9581TIP3    H150158   4.763   1.286   3.404 -0.8942 -0.8193  0.7892
 9581TIP3    H250159   4.701   1.337   3.532 -0.3548  1.5399  0.1600
 9582TIP3   OH250160   5.043   0.210  12.895  1.1098 -0.0776 -0.0329
 9582TIP3    H150161   5.029   0.228  12.802  2.6779 -0.2521 -0.3245
 9582TIP3    H250162   5.029   0.294  12.939 -0.6096 -0.2030 -0.2864
 9583TIP3   OH250163   3.417   1.328   4.227  0.0889 -0.1963 -0.1068
 9583TIP3    H150164   3.436   1.237   4.252  0.5841 -0.0002  0.2570
 9583TIP3    H250165   3.471   1.342   4.149 -0.6474 -0.4775 -0.6784
 9584TIP3   OH250166   3.615   3.923  13.393 -0.0887 -0.0547 -0.2665
 9584TIP3    H150167   3.577   3.982  13.328  0.7363  0.0137 -0.6914
 9584TIP3    H250168   3.543   3.906  13.454 -1.3728 -1.4538 -2.0814
 9585TIP3   OH250169   5.851   1.525  17.375  0.1611  0.3860  0.1855
 9585TIP3    H150170   5.874   1.483  17.458 -0.0772 -0.8965 -0.3668
 9585TIP3    H250171   5.911   1.486  17.312  1.2611  2.3292 -0.0598
 9586TIP3   OH250172   0.715   2.756   2.943  0.0330  0.0368 -0.2945
 9586TIP3    H150173   0.688   2.711   2.863 -0.7624  0.4944 -0.2931
 9586TIP3    H250174   0.795   2.711   2.971  0.4357  0.0059 -1.4613
 9587TIP3   OH250175   2.173   5.214  16.075  0.0050 -0.5147  0.1540
 9587TIP3    H150176   2.106   5.159  16.115  0.8327 -1.6370  0.0663
 9587TIP3    H250177   2.188   5.284  16.138  0.0447 -1.2787  1.0156
 9588TIP3   OH250178   6.707   4.656   2.907 -0.3526 -0.5628  0.4180
 9588TIP3    H150179   6.615   4.681   2.899 -0.5346 -0.8462  1.4807
 9588TIP3    H250180   6.718   4.587   2.842 -0.4453  0.6186 -0.8950
 9589TIP3   OH250181   5.103   5.219  14.235 -0.1327  0.2188 -0.1428
 9589TIP3    H150182   5.084   5.220  14.329 -1.1861 -2.0013 -0.2773
 9589TIP3    H250183   5.026   5.259  14.195 -0.5920 -0.6770 -0.1664
 9590TIP3   OH250184   1.774   3.499   1.535  0.2399 -0.3193  0.5431
 9590TIP3    H150185   1.812   3.580   1.501 -0.7378 -0.1407 -0.1565
 9590TIP3    H250186   1.837   3.468   1.599  0.4541  1.1878  1.0863
 9591TIP3   OH250187   4.636   1.185   5.188 -0.4354 -0.4385  0.1345
 9591TIP3    H150188   4.656   1.200   5.096 -2.7373 -1.7685 -0.6618
 9591TIP3    H250189   4.614   1.271   5.223  0.7214  0.1152 -0.4548
 9592TIP3   OH250190   6.442   0.091  11.639  0.0067  0.0582 -0.3231
 9592TIP3    H150191   6.468   0.129  11.723  2.5015 -0.0956 -0.9198
 9592TIP3    H250192   6.509   0.121  11.578 -0.7529 -1.2414 -1.8736
 9593TIP3   OH250193   3.549   1.080   1.645 -0.3949  0.3960  0.1728
 9593TIP3    H150194   3.485   1.062   1.713 -1.3765 -0.5283 -0.9430
 9593TIP3    H250195   3.612   1.139   1.686 -1.3844  0.5005  1.6178
 9594TIP3   OH250196   5.275   1.784  14.518  0.6505  0.2659 -0.2198
 9594TIP3    H150197   5.309   1.697  14.541 -0.0596  0.0426  0.0069
 9594TIP3    H250198   5.320   1.806  14.437 -0.0191 -0.8237 -0.9119
 9595TIP3   OH250199   0.226   0.805  15.694  0.0699  0.4023  0.2092
 9595TIP3    H150200   0.133   0.804  15.713 -0.0237 -0.9201 -0.2215
 9595TIP3    H250201   0.235   0.859  15.615 -0.3111  0.6908  0.3684
 9596TIP3   OH250202   1.180   4.710  16.496  0.2666  0.6871 -0.2549
 9596TIP3    H150203   1.154   4.709  16.403 -1.4203  0.1507  0.1895
 9596TIP3    H250204   1.249   4.645  16.502  0.6649  0.9934 -1.1990
 9597TIP3   OH250205   5.321   6.543   1.393  0.1502 -0.6182  0.3468
 9597TIP3    H150206   5.293   6.461   1.352 -2.3573 -0.2506  1.1296
 9597TIP3    H250207   5.389   6.516   1.455 -0.1070 -2.0174  0.0688
 9598TIP3   OH250208   3.411   2.256   1.323  0.5269  0.8842 -0.0754
 9598TIP3    H150209   3.477   2.311   1.281  0.0011  1.1680 -0.5446
 9598TIP3    H250210   3.431   2.168   1.293 -0.9475  1.2630 -2.5148
 9599TIP3   OH250211   0.118   5.779   5.835  0.3376 -0.0580 -0.2727
 9599TIP3    H150212   0.138   5.810   5.923  0.8090 -3.4247  0.9554
 9599TIP3    H250213   0.023   5.789   5.827  0.4726  1.7481 -0.0787
 9600TIP3   OH250214   6.013   6.496  13.138  0.0201 -0.1864  0.6774
 9600TIP3    H150215   5.973   6.581  13.153  1.1983  0.1468  2.2697
 9600TIP3    H250216   6.100   6.515  13.104  0.0588 -0.7836  0.4134
 9601TIP3   OH250217   0.862   2.615  12.443 -0.4555  0.4516 -0.3685
 9601TIP3    H150218   0.911   2.637  12.364 -1.2104  2.6562 -0.2922
 9601TIP3    H250219   0.788   2.563  12.412 -0.4850  0.9018 -1.0603
 9602TIP3   OH250220   2.114   5.589   2.056 -0.2491  0.3110 -0.0315
 9602TIP3    H150221   2.194   5.539   2.071 -1.3002 -0.7177  2.9529
 9602TIP3    H250222   2.121   5.664   2.115 -2.3462 -0.9829  2.0242
 9603TIP3   OH250223   4.806   3.561  14.846  0.5359  0.0012  0.2569
 9603TIP3    H150224   4.754   3.505  14.788 -0.5981  1.0533  0.2162
 9603TIP3    H250225   4.891   3.517  14.852  0.0464 -1.1240 -0.6641
 9604TIP3   OH250226   4.376   2.316   2.931 -1.1765 -0.9326 -0.2700
 9604TIP3    H150227   4.453   2.342   2.983 -2.0971  1.1349  0.1716
 9604TIP3    H250228   4.413   2.276   2.852  0.4962  1.4496 -0.8259
 9605TIP3   OH250229   2.919   3.484  15.987  0.2422  0.4582  0.1283
 9605TIP3    H150230   3.005   3.507  15.951  0.1889 -2.2024 -1.9600
 9605TIP3    H250231   2.927   3.501  16.081  2.6769  1.2484 -0.1541
 9606TIP3   OH250232   5.051   6.261  13.060  0.3619  0.1043 -0.3637
 9606TIP3    H150233   5.035   6.321  13.134  1.1429 -0.8701  0.6352
 9606TIP3    H250234   4.964   6.230  13.035  0.0082  1.0981 -0.4332
 9607TIP3   OH250235   0.743   3.016  12.229 -0.3951  0.7087 -0.0280
 9607TIP3    H150236   0.666   3.061  12.265 -1.0531  0.9374 -1.6381
 9607TIP3    H250237   0.710   2.969  12.153  0.8473 -0.2032 -0.0413
 9608TIP3   OH250238   1.650   4.536   0.674 -0.5462 -0.1031 -0.1200
 9608TIP3    H150239   1.581   4.470   0.670 -0.7817  0.0830  0.6345
 9608TIP3    H250240   1.624   4.592   0.747  2.0302 -1.9293  2.4403
 9609TIP3   OH250241   3.495   1.750  11.882  0.9865  0.3905 -0.3757
 9609TIP3    H150242   3.541   1.688  11.826  0.1999 -0.1920 -0.3813
 9609TIP3    H250243   3.503   1.834  11.836 -0.9809 -0.3367 -2.1898
 9610TIP3   OH250244   3.757   4.663  16.965 -1.0521  0.3003 -0.4004
 9610TIP3    H150245   3.747   4.619  16.881 -1.3691 -0.6484  0.1295
 9610TIP3    H250246   3.851   4.678  16.974 -0.6243 -2.4850  0.5075
 9611TIP3   OH250247   3.782   6.149   5.891 -0.0643  0.1703 -0.0351
 9611TIP3    H150248   3.796   6.128   5.798 -1.1803 -1.2767  0.0946
 9611TIP3    H250249   3.689   6.169   5.897 -0.1358 -0.4078  0.8918
 9612TIP3   OH250250   1.366   2.354   1.631  0.3961 -0.2155  0.0247
 9612TIP3    H150251   1.408   2.268   1.639 -0.1483 -0.7651 -2.3489
 9612TIP3    H250252   1.429   2.407   1.583 -0.0869  0.0986 -0.2736
 9613TIP3   OH250253   1.498   2.887  12.229 -0.4376  0.3276  0.3711
 9613TIP3    H150254   1.557   2.867  12.156 -0.1277 -0.2777  0.7778
 9613TIP3    H250255   1.427   2.937  12.189  0.1564  0.7368 -0.1950
 9614TIP3   OH250256   4.654   6.330   4.278 -0.4368  0.2471  1.3285
 9614TIP3    H150257   4.592   6.303   4.346 -0.4488  0.2608  1.3232
 9614TIP3    H250258   4.603   6.385   4.219 -1.0552 -1.6664 -0.0173
 9615TIP3   OH250259   3.733   0.957   1.195 -0.2363 -0.0839  0.3623
 9615TIP3    H150260   3.762   1.048   1.205  0.5220 -0.4630  1.9431
 9615TIP3    H250261   3.650   0.952   1.242 -0.8558  0.0250 -0.6772
 9616TIP3   OH250262   0.377   2.911   2.394  0.2754  0.6998 -0.3730
 9616TIP3    H150263   0.306   2.976   2.398  0.3510  0.7460  0.2479
 9616TIP3    H250264   0.420   2.917   2.479  0.9671  0.5980 -0.7109
 9617TIP3   OH250265   2.319   6.266  12.207  0.2510  0.0295  0.1204
 9617TIP3    H150266   2.296   6.352  12.243 -1.7821 -0.7564  0.8506
 9617TIP3    H250267   2.278   6.265  12.120 -0.8452 -0.6269  0.6173
 9618TIP3   OH250268   6.337   2.014  14.464  0.5470 -0.8408  0.3857
 9618TIP3    H150269   6.271   1.946  14.463  0.4368 -0.7483 -1.0600
 9618TIP3    H250270   6.416   1.971  14.496  0.7716 -1.9832 -1.5112
 9619TIP3   OH250271   1.773   2.225  17.226  0.4334 -0.0355  0.0899
 9619TIP3    H150272   1.756   2.286  17.298  1.0240  0.2745 -0.0247
 9619TIP3    H250273   1.734   2.143  17.254 -2.5601  0.9702 -0.7829
 9620TIP3   OH250274   3.955   6.523  16.611 -0.3840  0.1901 -0.7117
 9620TIP3    H150275   3.939   6.447  16.555  0.7575 -0.4344 -0.2194
 9620TIP3    H250276   4.001   6.488  16.687  0.6038  1.4225 -0.6965
 9621TIP3   OH250277   3.419   4.189  15.429 -0.6294  0.6341 -0.0581
 9621TIP3    H150278   3.480   4.177  15.502  1.0228 -0.6914 -1.5666
 9621TIP3    H250279   3.389   4.279  15.438  0.9375  1.0819  1.2309
 9622TIP3   OH250280   4.141   2.297  13.830  0.1059 -0.3490  0.4726
 9622TIP3    H150281   4.170   2.237  13.761  0.5880 -0.8447  1.0885
 9622TIP3    H250282   4.223   2.334  13.864 -0.0278 -1.0716  1.6277
 9623TIP3   OH250283   6.602   6.501   3.995  0.0845  0.0548 -0.2337
 9623TIP3    H150284   6.686   6.538   3.968 -1.1576  1.9816 -1.6643
 9623TIP3    H250285   6.557   6.572   4.040 -1.2056 -0.6055 -0.4297
 9624TIP3   OH250286   1.034   5.347   1.703  0.8450  0.1136 -0.0715
 9624TIP3    H150287   0.940   5.329   1.711  0.6953  0.3769 -1.1650
 9624TIP3    H250288   1.056   5.393   1.785 -0.4160  1.8731 -0.6567
 9625TIP3   OH250289   1.095   2.479   4.101 -0.1416 -0.4501 -0.2589
 9625TIP3    H150290   1.142   2.542   4.155 -0.2918  0.4221 -1.1218
 9625TIP3    H250291   1.117   2.503   4.011 -0.5042 -1.3937 -0.6129
 9626TIP3   OH250292   2.335   4.047  11.183  0.1997 -0.3266 -0.1326
 9626TIP3    H150293   2.271   4.118  11.194 -0.6835 -0.7639 -2.0403
 9626TIP3    H250294   2.420   4.092  11.181 -0.1876  0.4635  0.5324
 9627TIP3   OH250295   6.009   6.640  16.884  0.0055 -0.4888 -0.1991
 9627TIP3    H150296   6.027   6.623  16.977 -0.0095 -0.2175 -0.1460
 9627TIP3    H250297   5.913   6.647  16.880  0.0897  2.5751  0.3297
 9628TIP3   OH250298   0.331   2.400  13.263  0.1114 -0.4275 -0.5411
 9628TIP3    H150299   0.268   2.330  13.279  1.5798 -1.3499  1.6534
 9628TIP3    H250300   0.385   2.403  13.342  1.8215  1.3965 -1.6710
 9629TIP3   OH250301   0.710   6.414   1.642  0.0913 -0.9081 -0.0025
 9629TIP3    H150302   0.746   6.371   1.719 -0.3243 -1.7197 -0.2410
 9629TIP3    H250303   0.694   6.342   1.580 -0.5964 -0.4026 -0.4276
 9630TIP3   OH250304   2.530   4.672  15.869 -0.6230 -0.2061 -0.0234
 9630TIP3    H150305   2.566   4.729  15.937 -0.5358 -0.5318  0.2030
 9630TIP3    H250306   2.591   4.680  15.795  0.1984 -1.1329  0.5283
 9631TIP3   OH250307   6.125   4.401   1.865  0.5828 -0.4948  0.5316
 9631TIP3    H150308   6.148   4.451   1.786 -0.0782 -1.1258 -0.0689
 9631TIP3    H250309   6.057   4.340   1.836  2.4449 -2.8581  0.8489
 9632TIP3   OH250310   3.951   4.057   0.905 -0.0742  0.6888  0.0282
 9632TIP3    H150311   3.881   4.101   0.953 -2.0305 -1.9865 -0.1396
 9632TIP3    H250312   3.918   4.050   0.816 -0.0119 -1.3063  0.1114
 9633TIP3   OH250313   6.342   3.381   4.555  0.6767 -0.2458  0.3276
 9633TIP3    H150314   6.384   3.449   4.503  0.6376 -0.7586 -0.3786
 9633TIP3    H250315   6.339   3.418   4.644  1.7424  0.1828  0.2045
 9634TIP3   OH250316   1.971   3.879   3.547 -0.3630  0.4178  0.0423
 9634TIP3    H150317   1.984   3.973   3.536 -0.3831  0.5545  1.0555
 9634TIP3    H250318   1.876   3.867   3.546 -0.3717  0.4621  0.2953
 9635TIP3   OH250319   0.555   4.958  15.155  0.0656 -0.0486 -0.1790
 9635TIP3    H150320   0.600   5.042  15.157 -0.5684  0.3245 -0.9991
 9635TIP3    H250321   0.481   4.972  15.095 -0.7470 -0.8332  0.6124
 9636TIP3   OH250322   0.238   0.764  15.086 -0.2206 -0.2601  0.2591
 9636TIP3    H150323   0.244   0.694  15.021  0.3324 -1.0711  1.1595
 9636TIP3    H250324   0.271   0.842  15.041  0.2468 -0.8282 -0.3920
 9637TIP3   OH250325   2.211   1.482   5.485 -0.0955 -0.2957 -0.0265
 9637TIP3    H150326   2.142   1.424   5.454  1.1003 -1.3134 -0.8705
 9637TIP3    H250327   2.166   1.563   5.508 -1.3894 -0.4291 -1.9084
 9638TIP3   OH250328   4.396   1.484  13.656 -0.3821  0.1446  0.7586
 9638TIP3    H150329   4.442   1.564  13.632 -0.1242 -0.0533  0.5929
 9638TIP3    H250330   4.340   1.510  13.730  1.2540  0.0193  2.1082
 9639TIP3   OH250331   4.409   3.046  16.601  0.1200  0.1832 -0.0861
 9639TIP3    H150332   4.314   3.039  16.596  0.1135  0.3611 -0.2527
 9639TIP3    H250333   4.439   2.961  16.633 -0.1181  0.2325  0.2783
 9640TIP3   OH250334   1.200   5.726   4.155 -0.0757 -0.0086  0.7553
 9640TIP3    H150335   1.290   5.740   4.124 -0.0328  1.4037  1.4648
 9640TIP3    H250336   1.201   5.755   4.246 -1.8024  2.3635  0.0974
 9641TIP3   OH250337   6.187   1.692  13.922 -0.5573  0.7195 -0.3242
 9641TIP3    H150338   6.144   1.628  13.865 -0.1429  0.1442 -0.0121
 9641TIP3    H250339   6.280   1.688  13.897 -0.1452 -0.4889  1.2203
 9642TIP3   OH250340   6.434   0.827  12.442 -0.4978 -0.0516 -0.5828
 9642TIP3    H150341   6.343   0.826  12.412  0.0348 -0.9681 -2.2695
 9642TIP3    H250342   6.445   0.913  12.482 -1.8353  0.4319 -1.2095
 9643TIP3   OH250343   1.780   0.204   1.133 -0.0523  0.1228  0.3629
 9643TIP3    H150344   1.698   0.238   1.169  0.0574 -1.2267  2.0495
 9643TIP3    H250345   1.755   0.120   1.094  0.4117 -0.0095  0.3503
 9644TIP3   OH250346   6.628   6.573   1.674  0.6520  0.9847 -0.6579
 9644TIP3    H150347   6.609   6.484   1.645  0.0422  1.4203 -1.6640
 9644TIP3    H250348   6.548   6.622   1.655  1.4836  2.0621 -1.5271
 9645TIP3   OH250349   0.513   0.296  12.791 -0.2380  0.1143 -0.4206
 9645TIP3    H150350   0.519   0.244  12.871  3.2354  0.0173 -0.6068
 9645TIP3    H250351   0.499   0.385  12.821  1.9811  0.2312  0.4337
 9646TIP3   OH250352   6.441   5.092   2.007  0.0035  0.1711  0.0997
 9646TIP3    H150353   6.375   5.090   1.938  0.4436  1.8929 -0.4127
 9646TIP3    H250354   6.523   5.113   1.962  0.4929  0.2528  1.0027
 9647TIP3   OH250355   1.381   2.355   3.867  0.4169 -0.2764 -0.0846
 9647TIP3    H150356   1.344   2.283   3.816 -0.4577  0.7914 -1.0377
 9647TIP3    H250357   1.384   2.428   3.805 -0.6237  1.0575  1.3604
 9648TIP3   OH250358   6.325   0.851  13.614  0.3758 -0.1122 -0.1060
 9648TIP3    H150359   6.386   0.900  13.560  0.0267 -0.4365 -0.8020
 9648TIP3    H250360   6.271   0.917  13.657 -0.1338  0.1211 -1.0800
 9649TIP3   OH250361   0.460   1.801   0.094 -0.1915  0.4047 -0.2678
 9649TIP3    H150362   0.468   1.801  -0.001 -0.2968 -0.3985 -0.2851
 9649TIP3    H250363   0.534   1.854   0.125 -0.2491  0.7965 -0.7981
 9650TIP3   OH250364   0.000   3.584  16.035  0.1522 -0.1099  0.4006
 9650TIP3    H150365   0.030   3.567  15.946  0.0624  0.4601  0.2595
 9650TIP3    H250366  -0.060   3.512  16.055  0.5932 -0.5370  0.2024
 9651TIP3   OH250367   2.929   2.249  11.257 -0.1893 -0.1431  0.1614
 9651TIP3    H150368   2.936   2.165  11.213  2.2159 -0.7650  1.5754
 9651TIP3    H250369   2.894   2.308  11.190 -0.8283 -1.9681 -1.1932
 9652TIP3   OH250370   0.842   3.646  11.960 -0.1054 -0.4435 -0.1213
 9652TIP3    H150371   0.911   3.580  11.956 -0.5946 -0.9925  0.4269
 9652TIP3    H250372   0.762   3.597  11.980 -0.1239  0.5218  2.5984
 9653TIP3   OH250373   1.205   0.193  13.931 -0.8331 -0.0435 -0.3358
 9653TIP3    H150374   1.114   0.186  13.902 -1.3888 -1.0357  1.4304
 9653TIP3    H250375   1.252   0.129  13.878 -1.5593 -0.9253  0.0557
 9654TIP3   OH250376   2.605   0.157  16.349  0.0948  0.7906  0.2366
 9654TIP3    H150377   2.515   0.140  16.375  1.0647 -1.9682  2.2371
 9654TIP3    H250378   2.634   0.228  16.406 -0.4177  0.7335  0.5713
 9655TIP3   OH250379   4.371   1.869   1.352  0.7291  0.0585 -0.1940
 9655TIP3    H150380   4.372   1.801   1.419 -0.3242 -0.5450 -0.7635
 9655TIP3    H250381   4.457   1.863   1.310  1.8812  1.2291  1.8165
 9656TIP3   OH250382   0.226   2.229  17.312 -0.4348  0.1147  0.0257
 9656TIP3    H150383   0.283   2.239  17.235 -0.3642  1.4969  0.2336
 9656TIP3    H250384   0.282   2.190  17.378 -0.6098 -1.5038 -0.7341
 9657TIP3   OH250385   5.283   6.111  13.591 -0.4144  0.5939  0.3346
 9657TIP3    H150386   5.228   6.078  13.521 -1.2607  1.3234  0.6412
 9657TIP3    H250387   5.327   6.187  13.554  3.7937 -2.2727 -1.3608
 9658TIP3   OH250388   1.640   2.905   3.287  0.5458 -0.2870  0.0304
 9658TIP3    H150389   1.657   2.946   3.203 -0.3426 -0.1840 -0.1168
 9658TIP3    H250390   1.626   2.812   3.266  1.3455 -0.4554  0.2057
 9659TIP3   OH250391   1.516   1.611   1.094 -0.3907 -0.2008 -0.7004
 9659TIP3    H150392   1.589   1.636   1.037  0.1575 -2.0484 -0.8596
 9659TIP3    H250393   1.439   1.618   1.037 -0.2411  0.7905 -0.8099
 9660TIP3   OH250394   2.062   0.008   3.294 -0.1640 -0.2360  0.8190
 9660TIP3    H150395   2.033   0.029   3.383  1.8672 -0.4146  1.5756
 9660TIP3    H250396   2.049  -0.087   3.286 -0.0514 -0.2707  1.0431
 9661TIP3   OH250397   2.203   1.270  15.980 -0.3320  0.1476 -0.3612
 9661TIP3    H150398   2.290   1.252  16.015 -0.3908  1.3299  0.4270
 9661TIP3    H250399   2.186   1.196  15.921  0.5996 -0.8550  0.5652
 9662TIP3   OH250400   5.035   5.975  16.696  0.6214  0.0879  0.1825
 9662TIP3    H150401   5.075   5.975  16.783  1.5221  0.2866 -0.2136
 9662TIP3    H250402   5.109   5.961  16.636 -0.0863 -0.8501 -0.5084
 9663TIP3   OH250403   2.440   4.036  11.835 -0.3066  0.1843 -0.3548
 9663TIP3    H150404   2.355   4.063  11.801 -1.6569 -0.6585  2.0817
 9663TIP3    H250405   2.441   3.941  11.824  0.2378  0.1640 -0.1755
 9664TIP3   OH250406   3.629   0.099   5.512 -0.1045  0.1683  0.7765
 9664TIP3    H150407   3.702   0.041   5.490 -1.3219 -1.1203  0.0059
 9664TIP3    H250408   3.560   0.041   5.543 -1.2282  1.2366  0.3822
 9665TIP3   OH250409   6.474   0.859   0.233  0.1491 -0.2311 -0.2490
 9665TIP3    H150410   6.419   0.868   0.155 -0.2215 -2.2555 -0.2617
 9665TIP3    H250411   6.418   0.888   0.305  0.0326  0.3716 -0.5771
 9666TIP3   OH250412   3.105   5.293   1.605 -0.3298  0.1385  0.1779
 9666TIP3    H150413   3.177   5.353   1.585 -0.1896  0.7229  2.2844
 9666TIP3    H250414   3.148   5.212   1.632 -0.5126 -0.1988 -0.4997
 9667TIP3   OH250415   1.952   6.118  11.806 -0.1134 -0.6830  0.1763
 9667TIP3    H150416   2.028   6.061  11.815 -0.4787 -1.4097 -1.1329
 9667TIP3    H250417   1.941   6.129  11.712  0.0140  1.6774  0.3828
 9668TIP3   OH250418   0.466   2.644   3.124 -0.4036  0.2284 -0.3802
 9668TIP3    H150419   0.507   2.612   3.043 -0.3995  0.6647 -0.5539
 9668TIP3    H250420   0.471   2.740   3.117  2.2639  0.3451  1.4612
 9669TIP3   OH250421   3.230   1.355   5.468  0.0297 -0.1701  0.3599
 9669TIP3    H150422   3.275   1.341   5.385  1.1539  0.3425  0.8567
 9669TIP3    H250423   3.252   1.279   5.521 -1.1632 -0.7821  0.0084
 9670TIP3   OH250424   6.723   2.680   4.538 -0.3107 -0.2345  0.0902
 9670TIP3    H150425   6.787   2.653   4.604  0.8984  1.9003 -0.1097
 9670TIP3    H250426   6.655   2.726   4.587 -1.1477 -1.5250  0.1762
 9671TIP3   OH250427   4.427   0.482  14.122  0.6391  0.4491 -0.3748
 9671TIP3    H150428   4.472   0.552  14.075  1.2482  1.1724  1.2101
 9671TIP3    H250429   4.373   0.527  14.187 -0.5558 -0.4999 -0.6776
 9672TIP3   OH250430   1.256   2.010   3.922 -0.6955 -0.0598  0.3602
 9672TIP3    H150431   1.332   1.953   3.933 -0.8080 -0.3374 -0.3012
 9672TIP3    H250432   1.284   2.075   3.857 -0.5413  0.6985  1.1607
 9673TIP3   OH250433   6.065   0.030  12.893 -0.1923  0.6137 -0.4388
 9673TIP3    H150434   6.148   0.074  12.877 -0.1249 -0.4061 -3.5139
 9673TIP3    H250435   5.999   0.100  12.892  0.5034  1.3741  1.6350
 9674TIP3   OH250436   1.878   4.872   2.614 -0.2529 -0.0089  0.3405
 9674TIP3    H150437   1.918   4.953   2.582 -2.0350  0.6901 -0.2264
 9674TIP3    H250438   1.934   4.802   2.579  0.8640  0.9401  0.1767
 9675TIP3   OH250439   5.157   2.600   0.123  0.0478  0.2111 -0.2060
 9675TIP3    H150440   5.139   2.649   0.043 -1.3029 -1.6826 -1.1321
 9675TIP3    H250441   5.085   2.538   0.130 -1.5410  2.2338  4.1528
 9676TIP3   OH250442   5.208   4.125   1.151  0.4739  0.1648  0.0874
 9676TIP3    H150443   5.298   4.107   1.121  1.1381 -0.0239  2.0568
 9676TIP3    H250444   5.183   4.205   1.106  0.5666 -1.1845 -2.5818
 9677TIP3   OH250445   1.504   2.088  15.829  0.5660 -0.5690  0.6432
 9677TIP3    H150446   1.470   2.065  15.742  0.9425  1.3999 -0.0824
 9677TIP3    H250447   1.556   2.012  15.856  1.8267 -0.6049 -1.6237
 9678TIP3   OH250448   3.414   5.317   4.636  0.0499 -0.1297  0.0010
 9678TIP3    H150449   3.416   5.317   4.540 -1.4709 -0.6626 -0.0659
 9678TIP3    H250450   3.361   5.393   4.659  1.6772  0.9066  0.5187
 9679TIP3   OH250451   1.901   6.121   4.983 -0.6935  0.2233  0.3707
 9679TIP3    H150452   1.891   6.209   5.020 -2.8617 -0.7432  2.3531
 9679TIP3    H250453   1.935   6.136   4.895 -0.5065  3.0053  0.8131
 9680TIP3   OH250454   2.615   4.115   4.785 -0.1518 -0.8737 -0.5137
 9680TIP3    H150455   2.636   4.200   4.824 -0.9420 -0.0628 -1.7462
 9680TIP3    H250456   2.582   4.062   4.857  0.7622 -0.2836  0.3626
 9681TIP3   OH250457   5.270   4.618   3.733 -0.3890  0.0974  0.5097
 9681TIP3    H150458   5.251   4.701   3.689  0.0486 -0.7836 -1.4521
 9681TIP3    H250459   5.185   4.575   3.742 -0.5029  0.3636  0.7153
 9682TIP3   OH250460   0.324   3.741   5.392 -0.3955 -0.4976 -0.4107
 9682TIP3    H150461   0.398   3.745   5.453 -1.0637  1.6582  0.3460
 9682TIP3    H250462   0.345   3.668   5.334  1.5846 -0.9075  0.7246
 9683TIP3   OH250463   6.313   1.602  13.595 -0.4444  0.2879  0.4286
 9683TIP3    H150464   6.402   1.637  13.601  0.5862 -2.1640  0.6351
 9683TIP3    H250465   6.302   1.580  13.503 -0.6956  0.2317  0.4718
 9684TIP3   OH250466   0.736   5.534   1.140  0.1220 -0.1379  0.5585
 9684TIP3    H150467   0.718   5.482   1.061  1.9117 -1.3473  0.8905
 9684TIP3    H250468   0.813   5.493   1.179  0.0575  1.2322  2.2565
 9685TIP3   OH250469   1.439   4.092  14.413  1.0513 -0.0938  0.2309
 9685TIP3    H150470   1.358   4.109  14.462  1.1241  1.6883 -0.1999
 9685TIP3    H250471   1.446   4.166  14.352  1.3121 -1.8551 -2.0247
 9686TIP3   OH250472   2.914   5.839  11.845 -0.1602  0.5694  0.1285
 9686TIP3    H150473   2.885   5.881  11.926 -0.7764 -0.1928  0.3066
 9686TIP3    H250474   2.854   5.766  11.832 -0.8077  1.3582 -1.6504
 9687TIP3   OH250475   1.440   5.954  15.470 -0.5361  0.1333 -0.3780
 9687TIP3    H150476   1.381   5.881  15.490 -1.3319  1.3839  2.1439
 9687TIP3    H250477   1.476   5.980  15.554  1.4158  1.3094 -1.4983
 9688TIP3   OH250478   6.360   3.979   3.808  0.3331 -0.0216 -0.0603
 9688TIP3    H150479   6.381   3.917   3.879  1.7091  0.2294 -0.2240
 9688TIP3    H250480   6.391   3.935   3.729  1.6663  1.0209 -0.1355
 9689TIP3   OH250481   5.090   0.079   3.353 -0.5566  0.6125  0.1625
 9689TIP3    H150482   5.030   0.149   3.378 -0.7950  1.5015 -2.5825
 9689TIP3    H250483   5.076   0.068   3.259  0.4080 -2.2677  0.2684
 9690TIP3   OH250484   4.168   2.108  15.023  0.0966  0.0821  0.1015
 9690TIP3    H150485   4.075   2.091  15.039 -0.0547  0.0804 -0.7377
 9690TIP3    H250486   4.171   2.199  14.994  0.2233 -0.2165 -0.8608
 9691TIP3   OH250487   6.538   4.745  11.694  0.3410 -0.1002 -0.1685
 9691TIP3    H150488   6.451   4.782  11.685 -0.3654 -1.5549  0.2632
 9691TIP3    H250489   6.537   4.702  11.780  0.9835 -1.3240 -0.7392
 9692TIP3   OH250490   5.800   6.332  16.571 -0.2942 -0.0413 -0.7389
 9692TIP3    H150491   5.792   6.344  16.476  0.1565  1.2970 -0.6401
 9692TIP3    H250492   5.893   6.310  16.584 -0.1324  0.7188 -0.5457
 9693TIP3   OH250493   1.710   6.025  12.330 -0.1676  0.0290  0.2682
 9693TIP3    H150494   1.693   5.946  12.280  0.7072  0.9899 -1.6509
 9693TIP3    H250495   1.673   6.096  12.277  1.6523  1.1902  0.4545
 9694TIP3   OH250496   4.595   1.654   1.055  0.2736 -0.5261  0.5526
 9694TIP3    H150497   4.593   1.603   1.136 -2.2853  1.3877  1.8447
 9694TIP3    H250498   4.577   1.744   1.082  0.9583  0.4747 -1.9938
 9695TIP3   OH250499   2.128   3.510   2.647  0.0644  0.2028  0.3437
 9695TIP3    H150500   2.167   3.440   2.699 -2.2653 -0.0905  1.8593
 9695TIP3    H250501   2.189   3.583   2.655  1.4287 -0.9300  0.6087
 9696TIP3   OH250502   0.645   3.937   2.909 -0.6133  0.4749 -0.6801
 9696TIP3    H150503   0.699   3.901   2.979 -1.1054  2.2799  0.7366
 9696TIP3    H250504   0.698   4.007   2.871 -1.0131  0.6562 -0.9114
 9697TIP3   OH250505   3.197   5.698   0.258 -0.9113  0.0996  0.7442
 9697TIP3    H150506   3.253   5.774   0.246 -0.4461 -0.3389  0.0351
 9697TIP3    H250507   3.182   5.665   0.170  0.6082 -1.8343  1.1288
 9698TIP3   OH250508   0.048   3.172  15.079 -0.1812 -0.0770 -0.2261
 9698TIP3    H150509  -0.003   3.242  15.039 -2.2642 -0.2307  1.9061
 9698TIP3    H250510   0.072   3.206  15.166  1.1933 -0.9832 -0.2215
 9699TIP3   OH250511   6.585   3.863  13.924 -0.2660 -0.3637 -0.6879
 9699TIP3    H150512   6.533   3.839  13.848 -0.2560 -1.1911 -0.4369
 9699TIP3    H250513   6.675   3.866  13.892 -0.4295  0.9912 -1.1038
 9700TIP3   OH250514   4.058   5.835   2.293 -0.1748  0.0055  0.2159
 9700TIP3    H150515   4.010   5.753   2.286  1.3190 -1.0200  1.4574
 9700TIP3    H250516   4.027   5.887   2.219 -1.3458 -1.5543 -0.4435
 9701TIP3   OH250517   6.020   1.888   4.129 -0.1563 -0.6396  0.2336
 9701TIP3    H150518   6.038   1.889   4.223 -0.5587 -0.7551  0.3148
 9701TIP3    H250519   5.980   1.974   4.112  1.7687  0.2158 -0.2163
 9702TIP3   OH250520   6.269   0.565   0.062  0.7480 -1.1754  0.1720
 9702TIP3    H150521   6.264   0.597   0.152 -3.2088  2.2806 -0.9406
 9702TIP3    H250522   6.227   0.479   0.066  0.3834 -0.9653  1.6127
 9703TIP3   OH250523   4.065   0.650   3.482  0.2443  0.0217 -0.4076
 9703TIP3    H150524   4.115   0.728   3.461 -0.2937  0.5383  0.1899
 9703TIP3    H250525   4.068   0.597   3.402  0.7700  0.5606 -0.7515
 9704TIP3   OH250526   3.661   0.654  11.385  0.6342  0.6498  0.0085
 9704TIP3    H150527   3.747   0.614  11.373  0.7191  1.2093 -1.3589
 9704TIP3    H250528   3.640   0.638  11.477  1.4057 -1.0605 -0.0781
 9705TIP3   OH250529   5.858   3.852  11.176 -0.1868 -0.1643 -0.1277
 9705TIP3    H150530   5.931   3.912  11.160 -0.1774 -0.1768 -0.1306
 9705TIP3    H250531   5.877   3.775  11.123  1.0498 -1.2347  1.7744
 9706TIP3   OH250532   0.525   2.180  16.859 -0.1670  0.8389  0.2268
 9706TIP3    H150533   0.600   2.220  16.815  0.2868 -1.0824 -0.8171
 9706TIP3    H250534   0.452   2.189  16.797  0.3162 -1.2764 -0.7280
 9707TIP3   OH250535   0.649   0.752   5.033  0.0781  0.4638  0.7204
 9707TIP3    H150536   0.652   0.757   5.128 -0.4093 -0.3104  0.7767
 9707TIP3    H250537   0.738   0.776   5.006  0.1229  1.0389  1.3451
 9708TIP3   OH250538   1.255   3.365  14.275  1.1513  0.3270  0.0022
 9708TIP3    H150539   1.164   3.373  14.304  1.2201  0.4551  0.1892
 9708TIP3    H250540   1.290   3.454  14.282  0.7290  0.7006 -1.9834
 9709TIP3   OH250541   4.910   3.863  16.083 -0.5479 -0.6551  0.1981
 9709TIP3    H150542   4.947   3.776  16.097 -0.0620 -0.4962 -0.0650
 9709TIP3    H250543   4.921   3.907  16.168  2.1325  0.2093 -0.4864
 9710TIP3   OH250544   3.074   2.463   2.465 -0.1648  0.4978  0.1505
 9710TIP3    H150545   2.998   2.432   2.416 -0.1645  1.8924 -0.8014
 9710TIP3    H250546   3.041   2.483   2.552 -1.2790  2.5184 -0.6698
 9711TIP3   OH250547   0.546   2.688  13.145  0.0923  0.1947  0.4660
 9711TIP3    H150548   0.594   2.729  13.217 -1.9490  1.8511  0.9781
 9711TIP3    H250549   0.454   2.692  13.172 -0.9298  2.2656 -2.8221
 9712TIP3   OH250550   1.930   6.510  11.885  0.2132 -0.0895  0.1440
 9712TIP3    H150551   1.836   6.527  11.879 -0.0497 -1.7439 -1.3431
 9712TIP3    H250552   1.947   6.503  11.978 -0.6213  2.6366  0.6015
 9713TIP3   OH250553   2.230   0.575  12.739 -0.5707 -0.2159  0.1497
 9713TIP3    H150554   2.299   0.636  12.765  0.2627 -0.7539 -0.7218
 9713TIP3    H250555   2.165   0.580  12.809  1.2334 -1.0877  1.9896
 9714TIP3   OH250556   3.322   5.300   5.193 -0.1975  0.2442 -0.0015
 9714TIP3    H150557   3.399   5.300   5.249 -0.5369  0.9075  0.4890
 9714TIP3    H250558   3.337   5.373   5.132 -1.6060  2.2032  1.8272
 9715TIP3   OH250559   0.576   3.243  16.122  0.6049 -0.3161  0.5660
 9715TIP3    H150560   0.518   3.309  16.162  0.0343 -1.5629  1.9174
 9715TIP3    H250561   0.522   3.202  16.055 -0.1192 -1.3958  1.7460
 9716TIP3   OH250562   5.592   6.499   3.564 -0.0122 -0.0233  0.3649
 9716TIP3    H150563   5.608   6.514   3.471 -0.0984 -0.8583  0.2028
 9716TIP3    H250564   5.545   6.576   3.594 -0.9051 -0.2122 -0.5283
 9717TIP3   OH250565   4.207   6.746  12.442 -0.5521 -0.0875  0.0293
 9717TIP3    H150566   4.168   6.665  12.476  0.7279 -0.1400  1.5033
 9717TIP3    H250567   4.213   6.732  12.348  1.4297 -2.5773  0.4191
 9718TIP3   OH250568   4.433   2.637  13.830  0.1905 -0.1681  0.3007
 9718TIP3    H150569   4.513   2.689  13.820  0.3488 -0.0600  1.9320
 9718TIP3    H250570   4.362   2.700  13.817  0.3835  0.2980  1.3986
 9719TIP3   OH250571   3.219   6.079  11.353  0.1954 -0.0385 -0.0483
 9719TIP3    H150572   3.287   6.127  11.401  0.4201 -0.2570 -0.1475
 9719TIP3    H250573   3.164   6.041  11.421  0.1577  0.1578  0.0317
 9720TIP3   OH250574   2.633   0.791  15.473  0.3155 -0.2608 -0.5073
 9720TIP3    H150575   2.615   0.697  15.479 -2.1049  0.0201 -1.8694
 9720TIP3    H250576   2.659   0.817  15.561 -2.1929 -1.6541  0.7480
 9721TIP3   OH250577   4.594   2.665   0.490  0.0008 -0.1986  0.2994
 9721TIP3    H150578   4.680   2.652   0.450 -0.3194 -0.2326 -0.3972
 9721TIP3    H250579   4.533   2.665   0.416 -0.7022 -1.1330  0.8559
 9722TIP3   OH250580   4.045   4.353   0.316  0.0030  0.3525  0.0255
 9722TIP3    H150581   4.044   4.258   0.309 -2.4176  0.4083 -1.5366
 9722TIP3    H250582   4.089   4.383   0.237 -0.6986  0.5386 -0.3019
 9723TIP3   OH250583   6.551   4.413  11.811 -0.5768  0.6117 -0.0167
 9723TIP3    H150584   6.547   4.496  11.858 -1.3753  0.2183  0.6317
 9723TIP3    H250585   6.462   4.377  11.818  0.0789 -0.9067  0.8200
 9724TIP3   OH250586   0.359   2.123   6.089 -0.2397 -0.0034 -0.4748
 9724TIP3    H150587   0.352   2.064   6.163  0.4721 -0.0218 -0.4079
 9724TIP3    H250588   0.287   2.185   6.100  0.2325  0.3819  0.5917
 9725TIP3   OH250589   5.803   6.506  13.443  0.0218 -0.1063  0.5848
 9725TIP3    H150590   5.717   6.469  13.459  0.7083 -0.9712  2.6645
 9725TIP3    H250591   5.863   6.432  13.451  1.0193  0.5794 -0.2588
 9726TIP3   OH250592   2.379   3.892   0.651 -0.2951  0.6231  0.6312
 9726TIP3    H150593   2.470   3.888   0.621 -0.4591  1.5722 -0.0036
 9726TIP3    H250594   2.329   3.846   0.584 -0.2836 -0.0512  1.0654
 9727TIP3   OH250595   3.827   1.238   1.171 -0.0097 -0.4044  0.1216
 9727TIP3    H150596   3.869   1.298   1.232 -1.7446  1.1139 -0.0810
 9727TIP3    H250597   3.748   1.284   1.142  0.3951 -1.3057 -2.8060
 9728TIP3   OH250598   0.415   3.955   0.225 -0.0034  0.1730 -1.1466
 9728TIP3    H150599   0.406   3.921   0.314  1.1989  1.1991 -0.5965
 9728TIP3    H250600   0.509   3.972   0.216 -0.3068  1.5108 -2.0564
 9729TIP3   OH250601   1.473   2.411  15.891  0.3497 -0.2174  0.3819
 9729TIP3    H150602   1.481   2.372  15.804 -0.9549 -1.4780  0.7808
 9729TIP3    H250603   1.558   2.397  15.932  0.2347 -1.7680  0.1379
 9730TIP3   OH250604   4.423   0.461   5.410  0.7716 -0.2947  0.1234
 9730TIP3    H150605   4.372   0.380   5.408 -0.1344  0.2298  0.9308
 9730TIP3    H250606   4.478   0.453   5.488  0.4006  0.0187  0.4228
 9731TIP3   OH250607   4.372   3.578  13.997  0.4009 -0.4276 -0.2031
 9731TIP3    H150608   4.378   3.660  13.948 -0.5012 -0.8152 -0.9965
 9731TIP3    H250609   4.344   3.513  13.933  2.1269 -1.6139  0.1682
 9732TIP3   OH250610   6.189   4.876  13.453 -0.6509 -0.2569  0.3405
 9732TIP3    H150611   6.233   4.925  13.523 -0.6090 -0.0367  0.1590
 9732TIP3    H250612   6.135   4.813  13.500 -0.4463 -0.2640  0.5719
 9733TIP3   OH250613   3.230   5.856   1.893  0.4501 -0.7549 -0.0192
 9733TIP3    H150614   3.300   5.891   1.838 -0.8617  1.3447 -0.4859
 9733TIP3    H250615   3.150   5.875   1.844 -0.5230 -2.3420  0.8717
 9734TIP3   OH250616   0.553   5.780   3.044  0.2694  0.0985 -0.1364
 9734TIP3    H150617   0.558   5.850   2.980  1.0740  0.7441  0.5919
 9734TIP3    H250618   0.627   5.723   3.022  2.2457  1.7293  1.7286
 9735TIP3   OH250619   4.822   3.756   3.589  0.0576  0.7277 -0.1216
 9735TIP3    H150620   4.755   3.690   3.609  1.1259 -0.1970  0.5384
 9735TIP3    H250621   4.782   3.811   3.522 -0.9551 -0.4637 -0.5402
 9736TIP3   OH250622   4.708   0.826  15.143 -0.5134  0.5694  0.2109
 9736TIP3    H150623   4.748   0.883  15.209 -0.9979 -0.5536  1.5204
 9736TIP3    H250624   4.634   0.876  15.109 -0.7214  0.8775  1.0918
 9737TIP3   OH250625   1.062   1.327  14.159 -0.2506 -0.2783  0.0831
 9737TIP3    H150626   1.083   1.383  14.234  2.1550 -0.3001 -0.4977
 9737TIP3    H250627   1.018   1.251  14.198 -2.7392  1.4787  0.9845
 9738TIP3   OH250628   2.016   0.922  11.397  0.5487  0.0741  0.6848
 9738TIP3    H150629   1.926   0.894  11.382  0.5459  0.0026  0.8291
 9738TIP3    H250630   2.016   0.958  11.485  0.6915 -0.0572  0.7395
 9739TIP3   OH250631   3.332   3.980  14.421 -0.1115  0.2758 -0.0168
 9739TIP3    H150632   3.390   4.042  14.376 -0.6033  0.8903  0.1813
 9739TIP3    H250633   3.249   4.027  14.428 -0.4490 -0.3611  0.2646
 9740TIP3   OH250634   1.239   6.082   5.382 -0.1738  0.4634 -0.4525
 9740TIP3    H150635   1.172   6.113   5.443 -0.4695 -0.5984 -0.2220
 9740TIP3    H250636   1.272   6.162   5.340  0.1762  1.2450  1.2241
 9741TIP3   OH250637   1.673   5.421   4.293  0.2587  0.3561 -0.3371
 9741TIP3    H150638   1.673   5.332   4.257  0.2221  1.2784 -2.7659
 9741TIP3    H250639   1.746   5.420   4.356  0.7890 -1.1592 -0.9092
 9742TIP3   OH250640   1.710   3.443   5.346 -0.4183  0.4588  0.5037
 9742TIP3    H150641   1.623   3.477   5.366 -1.3359  0.7063 -3.1159
 9742TIP3    H250642   1.729   3.475   5.257  2.6692 -0.9530  0.4964
 9743TIP3   OH250643   5.005   2.287   0.789 -0.2654  0.3554 -0.8254
 9743TIP3    H150644   4.972   2.266   0.877  0.4608  1.3985 -0.2839
 9743TIP3    H250645   5.100   2.287   0.799 -0.1869  0.7479 -1.5503
 9744TIP3   OH250646   2.439   5.586   4.047  0.4357  0.4385  0.0135
 9744TIP3    H150647   2.426   5.509   3.992  1.3179  0.1717  0.1709
 9744TIP3    H250648   2.350   5.617   4.066  0.1082  0.9879 -2.1451
 9745TIP3   OH250649   5.846   2.534  14.630  0.6820 -0.1973  0.2449
 9745TIP3    H150650   5.803   2.475  14.568  0.4404  0.4250 -0.1893
 9745TIP3    H250651   5.804   2.618  14.615  2.0640  0.4375 -0.2093
 9746TIP3   OH250652   1.383   4.679  12.059  0.2976  0.2837  0.3346
 9746TIP3    H150653   1.391   4.592  12.097 -0.5242  0.4726  0.9522
 9746TIP3    H250654   1.463   4.690  12.007  0.0877 -1.1043 -0.3079
 9747TIP3   OH250655   6.314   4.370  15.967  0.2429  1.1917  0.2403
 9747TIP3    H150656   6.288   4.462  15.973  0.0492  1.2263 -0.8393
 9747TIP3    H250657   6.380   4.369  15.898 -0.8127  0.3227 -0.7866
 9748TIP3   OH250658   6.275   6.456   1.494 -0.2025  0.2529 -0.7880
 9748TIP3    H150659   6.272   6.361   1.490 -0.4562  0.1445  1.1096
 9748TIP3    H250660   6.322   6.482   1.415  0.0994 -1.4554 -1.2011
 9749TIP3   OH250661   6.361   6.658   2.624 -0.7742 -0.0103 -0.0060
 9749TIP3    H150662   6.444   6.619   2.652 -1.6352 -0.2954  2.3141
 9749TIP3    H250663   6.321   6.592   2.568  0.5890  0.1948 -1.3044
 9750TIP3   OH250664   2.502   2.559   5.529 -0.0131  0.1889 -0.2631
 9750TIP3    H150665   2.593   2.557   5.557 -0.1431 -0.8526  0.1355
 9750TIP3    H250666   2.502   2.517   5.443 -0.0151  0.8848 -0.6106
 9751TIP3   OH250667   2.665   3.479  17.205 -0.1416 -0.1396 -0.0995
 9751TIP3    H150668   2.628   3.567  17.194 -1.3659 -0.8544 -2.1142
 9751TIP3    H250669   2.751   3.485  17.163 -0.6515 -0.1473 -1.1815
 9752TIP3   OH250670   6.173   3.553   1.071  0.0584 -0.3611 -0.1453
 9752TIP3    H150671   6.108   3.483   1.069 -1.0129  0.6134 -0.0734
 9752TIP3    H250672   6.152   3.603   1.150  2.8297 -1.8034  1.6876
 9753TIP3   OH250673   2.993   3.960   5.192  0.4929 -0.0247 -0.6422
 9753TIP3    H150674   2.949   4.042   5.216  0.1512 -0.4073  0.0644
 9753TIP3    H250675   3.085   3.984   5.183  0.1171  0.8698 -2.5304
 9754TIP3   OH250676   4.266   4.264  13.537 -0.4282 -0.0932  0.7906
 9754TIP3    H150677   4.254   4.293  13.627 -2.0019 -1.7735  1.1852
 9754TIP3    H250678   4.205   4.191  13.527 -0.6960  0.3964 -1.8110
 9755TIP3   OH250679   0.999   6.480   1.237 -0.0493 -0.7543  0.0384
 9755TIP3    H150680   1.061   6.538   1.193  0.1393 -0.5962  0.5058
 9755TIP3    H250681   1.053   6.409   1.271 -0.2625 -1.1445 -0.4196
 9756TIP3   OH250682   1.557   4.759   2.941 -0.7599 -0.1552  0.1536
 9756TIP3    H150683   1.635   4.722   2.983 -0.2072  0.7823 -0.0291
 9756TIP3    H250684   1.490   4.758   3.010 -0.3782 -0.2758  0.5265
 9757TIP3   OH250685   0.486   4.013  16.180  0.3794  0.3980 -0.7534
 9757TIP3    H150686   0.563   4.046  16.226  0.0737  0.5751 -0.3606
 9757TIP3    H250687   0.511   4.012  16.088  1.0237 -0.0166 -0.5851
 9758TIP3   OH250688   0.337   2.452   0.722 -0.4809 -0.2382 -0.1308
 9758TIP3    H150689   0.301   2.392   0.656  0.8835 -2.2605  0.8343
 9758TIP3    H250690   0.425   2.473   0.690  0.5322 -1.9228  1.3120
 9759TIP3   OH250691   3.069   3.182  11.119  0.0291  0.3368  0.2552
 9759TIP3    H150692   2.981   3.182  11.156 -0.5982  0.7303 -1.1751
 9759TIP3    H250693   3.062   3.235  11.040  1.4009 -0.1614 -0.2305
 9760TIP3   OH250694   6.523   3.565  15.688 -0.1742 -0.8064  0.3026
 9760TIP3    H150695   6.488   3.645  15.726 -0.2345  0.7402 -2.6962
 9760TIP3    H250696   6.599   3.543  15.742  0.1349  1.5583  0.9370
 9761TIP3   OH250697   6.681   4.920  12.399  0.4990 -0.9614  0.5292
 9761TIP3    H150698   6.759   4.976  12.394 -0.6288  0.7509  1.1873
 9761TIP3    H250699   6.689   4.875  12.483  0.3726 -0.1203  1.0022
 9762TIP3   OH250700   4.528   3.646  11.650  0.2396  0.4351 -0.7485
 9762TIP3    H150701   4.517   3.629  11.556 -1.7314  0.5614 -0.5717
 9762TIP3    H250702   4.591   3.718  11.654  1.4069 -0.4658 -1.8918
 9763TIP3   OH250703   0.419   5.804  14.409 -0.7142 -0.2468 -0.7957
 9763TIP3    H150704   0.395   5.814  14.501 -0.2794 -1.5250 -0.5226
 9763TIP3    H250705   0.445   5.892  14.381  0.0534 -0.0219  0.5623
 9764TIP3   OH250706   1.219   6.651  15.725 -0.5611 -0.2958  0.2651
 9764TIP3    H150707   1.191   6.675  15.813 -0.4360 -0.6382  0.4037
 9764TIP3    H250708   1.314   6.660  15.727 -0.6065  0.2380 -0.0059
 9765TIP3   OH250709   6.209   2.914   1.343 -0.2419 -0.4177  0.1763
 9765TIP3    H150710   6.231   2.900   1.435  2.8948  0.3192 -0.3619
 9765TIP3    H250711   6.252   2.843   1.296 -1.7399 -0.7482 -0.7866
 9766TIP3   OH250712   1.979   1.333   5.398 -0.0186 -0.8674 -0.4582
 9766TIP3    H150713   1.918   1.339   5.472 -1.4650 -0.5858 -1.6043
 9766TIP3    H250714   1.922   1.318   5.322  1.2823  0.1796 -1.7002
 9767TIP3   OH250715   6.162   4.250   4.470  0.3680  0.5413 -0.7671
 9767TIP3    H150716   6.103   4.197   4.522  1.5296 -0.2487 -0.2093
 9767TIP3    H250717   6.109   4.280   4.396 -0.5655 -0.6048 -0.5864
 9768TIP3   OH250718   3.089   6.349  15.850  0.1556 -0.2181 -0.0982
 9768TIP3    H150719   3.046   6.366  15.766  2.1118  1.1601 -0.8794
 9768TIP3    H250720   3.175   6.314  15.826  0.8453  0.4349  1.3296
 9769TIP3   OH250721   1.757   4.334   4.735  0.2807  0.2749  0.2980
 9769TIP3    H150722   1.767   4.291   4.650 -1.4705  0.1956  0.0976
 9769TIP3    H250723   1.819   4.289   4.792 -1.6701 -2.8449  0.1902
 9770TIP3   OH250724   6.113   5.987  11.594 -0.0181 -0.1558 -0.2090
 9770TIP3    H150725   6.082   6.024  11.677  0.0631 -0.8873  0.1495
 9770TIP3    H250726   6.130   6.064  11.539  0.6076  0.3708  0.6868
 9771TIP3   OH250727   4.115   4.933   6.070  0.1827  0.7898 -0.5042
 9771TIP3    H150728   4.063   4.933   6.151 -0.7772 -0.5973 -1.0801
 9771TIP3    H250729   4.179   4.863   6.083 -0.1362  0.3940 -1.0360
 9772TIP3   OH250730   5.150   3.860  11.974  0.2895 -0.1325 -0.6163
 9772TIP3    H150731   5.203   3.824  11.902 -1.3890 -0.1947 -1.8769
 9772TIP3    H250732   5.114   3.941  11.938  1.3458  1.1473  1.0379
 9773TIP3   OH250733   0.917   2.382   4.616 -0.2807  0.1110  0.2350
 9773TIP3    H150734   0.903   2.435   4.537 -0.0370 -1.1588 -0.7055
 9773TIP3    H250735   0.982   2.430   4.667 -1.0398  1.3523  0.0531
 9774TIP3   OH250736   1.522   3.011   4.968  0.0271 -0.1009  0.7931
 9774TIP3    H150737   1.617   3.012   4.979 -0.0458  0.4394  1.4616
 9774TIP3    H250738   1.508   3.035   4.876  0.5191  0.5521  0.8850
 9775TIP3   OH250739   4.581   2.792   2.970  0.3940 -0.3357  0.0632
 9775TIP3    H150740   4.551   2.859   2.908  1.2551 -0.7365 -0.8141
 9775TIP3    H250741   4.628   2.841   3.038 -0.9884  0.1598  0.7076
 9776TIP3   OH250742   5.051   6.139  11.936  0.3514  0.7812  0.2880
 9776TIP3    H150743   5.136   6.183  11.940  0.0992  1.2937 -0.0046
 9776TIP3    H250744   5.052   6.092  11.853 -0.1353  1.7814 -0.2943
 9777TIP3   OH250745   3.920   3.363  13.340 -0.2561  0.0464  0.2321
 9777TIP3    H150746   3.918   3.302  13.414  0.4946  1.6228  1.6142
 9777TIP3    H250747   3.843   3.418  13.353  0.1876  0.6904  0.1453
 9778TIP3   OH250748   5.928   5.299  16.862  0.6116  0.8899 -0.8372
 9778TIP3    H150749   5.941   5.212  16.901 -2.1216  0.0844 -1.4778
 9778TIP3    H250750   6.012   5.344  16.875  1.1410 -0.6862  2.3478
 9779TIP3   OH250751   3.548   4.927  12.483 -0.1636 -0.7792  0.0918
 9779TIP3    H150752   3.628   4.914  12.432 -1.4947  0.7678 -2.6568
 9779TIP3    H250753   3.495   4.850  12.463  1.4085 -3.1668  3.9845
 9780TIP3   OH250754   3.503   2.894  10.573  0.8170  0.0034 -0.3551
 9780TIP3    H150755   3.493   2.799  10.564 -0.9246  0.2146 -0.9171
 9780TIP3    H250756   3.441   2.918  10.642 -0.9113  1.0721 -2.1948
 9781TIP3   OH250757   2.758   3.049   0.939  0.1821 -0.0573  0.3716
 9781TIP3    H150758   2.673   3.005   0.930  0.5373 -0.4061 -1.8472
 9781TIP3    H250759   2.743   3.116   1.006 -1.6354 -0.6080  0.5715
 9782TIP3   OH250760   5.421   0.187   3.895 -0.1798  0.9356 -0.1519
 9782TIP3    H150761   5.498   0.134   3.872 -1.4685 -0.4287 -1.6908
 9782TIP3    H250762   5.443   0.275   3.867  1.5656  1.0134  1.3167
 9783TIP3   OH250763   6.388   4.168  13.357  0.0472 -0.3283 -0.4270
 9783TIP3    H150764   6.422   4.166  13.446  1.1895  0.5279 -0.8179
 9783TIP3    H250765   6.340   4.251  13.352  0.3453 -0.1713 -0.7259
 9784TIP3   OH250766   2.111   1.942  13.785 -0.5473  0.0289  0.1599
 9784TIP3    H150767   2.184   1.976  13.837  1.6938 -0.9896 -2.0880
 9784TIP3    H250768   2.135   1.962  13.694 -2.2974 -1.7701 -0.7738
 9785TIP3   OH250769   1.815   5.048   3.950 -0.5530  0.1608  0.3017
 9785TIP3    H150770   1.812   5.122   3.890  0.8603  0.3651  0.4596
 9785TIP3    H250771   1.820   4.971   3.893  2.2579  0.4215  0.0954
 9786TIP3   OH250772   6.509   3.465   1.949  0.4378  0.0979  0.1373
 9786TIP3    H150773   6.503   3.465   1.854 -0.8840 -1.7804  0.1608
 9786TIP3    H250774   6.598   3.433   1.968 -0.2948 -2.5675 -0.5353
 9787TIP3   OH250775   0.435   1.435  16.860  0.3630 -0.0386 -0.0304
 9787TIP3    H150776   0.443   1.493  16.784 -1.2421  0.2868  0.0194
 9787TIP3    H250777   0.382   1.361  16.828 -2.6421  1.3587  1.3882
 9788TIP3   OH250778   3.277   2.633   1.866  0.1947 -0.4884  0.3077
 9788TIP3    H150779   3.345   2.583   1.822  0.6619 -0.0727  0.5561
 9788TIP3    H250780   3.258   2.582   1.945 -1.0840 -1.5662 -0.6358
 9789TIP3   OH250781   4.082   4.700  14.324  0.6268  0.3675  0.0676
 9789TIP3    H150782   4.112   4.659  14.406 -0.7827 -0.5906  0.1477
 9789TIP3    H250783   4.160   4.741  14.288  1.6586 -0.6336  1.0500
 9790TIP3   OH250784   3.642   6.415  17.069 -0.5463 -0.5309 -0.3912
 9790TIP3    H150785   3.728   6.444  17.100 -1.5157  0.9988  0.9660
 9790TIP3    H250786   3.605   6.491  17.026 -1.3629 -1.1005 -0.7164
 9791TIP3   OH250787   4.703   1.217  16.816  0.0454  0.5082 -0.1743
 9791TIP3    H150788   4.789   1.209  16.775  0.3797  2.9322 -0.0623
 9791TIP3    H250789   4.708   1.162  16.894  1.3619  0.3148 -0.3840
 9792TIP3   OH250790   5.187   2.317   3.752 -0.4224 -0.6199 -0.9029
 9792TIP3    H150791   5.235   2.269   3.684 -0.1022 -1.0384 -0.3922
 9792TIP3    H250792   5.196   2.409   3.728  1.3945 -0.6120 -0.3477
 9793TIP3   OH250793   5.203   0.153  13.966  0.4515  0.1194 -0.2989
 9793TIP3    H150794   5.269   0.202  14.014 -0.4219 -0.8456  2.0315
 9793TIP3    H250795   5.239   0.143  13.878  1.6425  2.9182 -0.2241
 9794TIP3   OH250796   0.531   5.541  14.750 -0.2835  0.1440 -0.3488
 9794TIP3    H150797   0.605   5.481  14.757 -1.1356 -0.7801  1.8483
 9794TIP3    H250798   0.465   5.492  14.702 -1.4335 -1.3266  2.4895
 9795TIP3   OH250799   0.729   4.248   4.948 -0.6242  0.2208  0.0015
 9795TIP3    H150800   0.662   4.241   4.880 -0.7556 -0.6638  0.2084
 9795TIP3    H250801   0.797   4.187   4.920  0.3855  1.5449 -0.5164
 9796TIP3   OH250802   6.391   0.658  15.484  0.1801 -0.0683  0.2335
 9796TIP3    H150803   6.478   0.669  15.522  0.0020  2.1337  0.1051
 9796TIP3    H250804   6.383   0.730  15.421 -1.8295 -0.0721  0.4412
 9797TIP3   OH250805   0.455   6.719  14.309  0.2784  0.2995 -0.8300
 9797TIP3    H150806   0.526   6.733  14.371  0.7705  0.2291 -1.3620
 9797TIP3    H250807   0.482   6.768  14.230 -0.2217  0.2021 -1.0697
 9798TIP3   OH250808   3.481   0.868  15.264  0.1836 -0.0712 -0.0786
 9798TIP3    H150809   3.515   0.798  15.208 -1.3533 -0.0906 -1.0445
 9798TIP3    H250810   3.529   0.859  15.346 -1.3230 -3.5743  0.5973
 9799TIP3   OH250811   4.151   0.342  12.738  0.0847 -0.7052  0.4191
 9799TIP3    H150812   4.105   0.265  12.771 -1.5615  0.4123  0.8894
 9799TIP3    H250813   4.221   0.358  12.802 -2.6809  1.0669  3.2981
 9800TIP3   OH250814   2.086   0.337  13.005  0.3686  0.0849  0.5061
 9800TIP3    H150815   2.088   0.290  13.088  0.8390 -1.0556 -0.1381
 9800TIP3    H250816   2.001   0.317  12.967  1.0817 -1.3950 -0.3916
 9801TIP3   OH250817   5.878   6.511   1.514 -0.1511 -0.2624 -0.3476
 9801TIP3    H150818   5.948   6.551   1.462  0.2558  0.2555  0.5744
 9801TIP3    H250819   5.857   6.430   1.468 -1.1613  1.0857 -2.4115
 9802TIP3   OH250820   5.771   6.244   1.386 -0.4386 -0.3700 -0.4421
 9802TIP3    H150821   5.837   6.197   1.436  1.5177 -0.4311 -2.8877
 9802TIP3    H250822   5.715   6.176   1.348 -0.1850 -0.4866 -0.6061
 9803TIP3   OH250823   1.978   2.589   4.141  0.0826  0.3490  0.0652
 9803TIP3    H150824   2.072   2.585   4.124 -0.1539 -1.6392 -1.0762
 9803TIP3    H250825   1.967   2.663   4.200  2.1035  2.0210 -1.5146
 9804TIP3   OH250826   6.410   6.019   0.645 -0.6138 -0.4137  0.1500
 9804TIP3    H150827   6.467   5.966   0.701 -0.3116  0.2969  0.5250
 9804TIP3    H250828   6.469   6.056   0.580 -0.8907 -0.8606 -0.3640
 9805TIP3   OH250829   4.405   3.958   3.012  0.5092  0.2998  0.4845
 9805TIP3    H150830   4.448   3.989   3.091 -0.3227  0.3984  0.9139
 9805TIP3    H250831   4.455   3.996   2.940  0.4108  1.4153  0.9849
 9806TIP3   OH250832   6.093   3.654   0.680  0.1127 -0.5604  0.0654
 9806TIP3    H150833   6.138   3.584   0.728  0.0576  0.6254  1.9483
 9806TIP3    H250834   6.002   3.626   0.676  0.2394 -0.9796  0.0793
 9807TIP3   OH250835   6.682   3.552  13.578  0.2634  0.1632 -0.4143
 9807TIP3    H150836   6.726   3.520  13.499 -1.9684  0.1631 -1.7396
 9807TIP3    H250837   6.739   3.524  13.650  1.3791 -1.5797 -1.8757
 9808TIP3   OH250838   1.215   1.107  14.658  0.6919 -1.0638  0.4644
 9808TIP3    H150839   1.197   1.013  14.664 -0.3693 -1.1925 -2.7462
 9808TIP3    H250840   1.128   1.147  14.660  0.9793 -0.3736 -0.4932
 9809TIP3   OH250841   0.855   3.484   6.085  0.0888 -0.0861  0.3529
 9809TIP3    H150842   0.839   3.547   6.155 -2.6897  0.3361 -0.5453
 9809TIP3    H250843   0.933   3.437   6.113  0.2019  1.3552  2.7721
 9810TIP3   OH250844   5.497   4.954  14.286  0.0683  0.3528  0.4810
 9810TIP3    H150845   5.511   5.039  14.328  0.5491  0.5280 -0.0191
 9810TIP3    H250846   5.412   4.961  14.244 -0.5278  0.0952  1.6076
 9811TIP3   OH250847   6.690   2.967   4.217 -0.2903  0.0456 -0.4386
 9811TIP3    H150848   6.716   2.936   4.130  0.7061  0.9385 -0.4766
 9811TIP3    H250849   6.766   2.951   4.273 -0.2135  1.2350 -0.1766
 9812TIP3   OH250850   1.278   5.186  15.311  0.0911  0.2553 -0.0320
 9812TIP3    H150851   1.221   5.254  15.346 -0.1228  0.4121 -0.6714
 9812TIP3    H250852   1.271   5.114  15.374 -1.4517 -0.0414 -0.4973
 9813TIP3   OH250853   2.569   0.367  12.204  0.1826 -0.2990  0.0957
 9813TIP3    H150854   2.508   0.395  12.136  1.1684 -1.0877 -1.1669
 9813TIP3    H250855   2.643   0.330  12.156  1.8431  0.9521  1.5477
 9814TIP3   OH250856   1.045   2.707  12.053 -0.3517  0.1135  0.4052
 9814TIP3    H150857   1.105   2.703  11.978 -1.2930 -0.3750 -0.3510
 9814TIP3    H250858   1.102   2.705  12.129  0.6178  0.1037 -0.2966
 9815TIP3   OH250859   6.208   0.448   4.212  0.1510 -0.7724 -0.3287
 9815TIP3    H150860   6.297   0.440   4.176 -0.3715  0.0521 -1.8511
 9815TIP3    H250861   6.166   0.364   4.191 -0.7862  0.3813 -3.5680
 9816TIP3   OH250862   4.898   3.521   4.062  0.5963 -0.2439  0.1625
 9816TIP3    H150863   4.951   3.591   4.100 -0.9361  0.6345  0.7261
 9816TIP3    H250864   4.926   3.517   3.971  0.3953  1.4064  0.0076
 9817TIP3   OH250865   1.613   1.507   1.903  0.8134  0.1962  0.1313
 9817TIP3    H150866   1.552   1.434   1.913 -0.1659  1.0356  0.3530
 9817TIP3    H250867   1.602   1.536   1.813  0.0701  1.0505  0.4866
 9818TIP3   OH250868   6.728   5.603  14.292  0.0964 -0.0646  0.0908
 9818TIP3    H150869   6.747   5.547  14.217 -0.6378  1.7844 -1.5634
 9818TIP3    H250870   6.814   5.627  14.327  0.4624 -0.7258 -0.3421
 9819TIP3   OH250871   1.936   6.697   0.520  0.1500 -0.1683  0.1374
 9819TIP3    H150872   2.006   6.747   0.477 -1.4642  2.1035 -0.0390
 9819TIP3    H250873   1.873   6.764   0.547 -1.2880 -2.0126  1.5582
 9820TIP3   OH250874   1.221   0.590  15.309  0.4101 -0.1182 -0.3274
 9820TIP3    H150875   1.283   0.520  15.330 -1.4646 -1.9573 -0.5963
 9820TIP3    H250876   1.218   0.644  15.389  1.6947 -0.4707 -0.0197
 9821TIP3   OH250877   3.644   4.514  11.255 -0.7075 -0.4307 -0.2350
 9821TIP3    H150878   3.713   4.564  11.300 -0.4920 -0.0830 -0.9258
 9821TIP3    H250879   3.690   4.473  11.181 -1.7100  2.1780 -2.4927
 9822TIP3   OH250880   4.085   3.728  16.243 -0.4694  0.3857  0.0546
 9822TIP3    H150881   4.158   3.692  16.294  1.0316  0.2718 -2.0289
 9822TIP3    H250882   4.027   3.654  16.229  0.8159 -0.4455 -1.1893
 9823TIP3   OH250883   0.947   5.647  16.789 -0.5916 -0.2120 -0.4185
 9823TIP3    H150884   0.881   5.681  16.728 -0.2123  1.7068  0.1756
 9823TIP3    H250885   0.901   5.637  16.872 -0.3305  0.3663 -0.2008
 9824TIP3   OH250886   5.547   4.275  11.752  0.7758  0.2810 -0.3972
 9824TIP3    H150887   5.485   4.307  11.819  0.6313 -0.6826 -0.0517
 9824TIP3    H250888   5.631   4.311  11.779  0.3508  1.8250 -1.0167
 9825TIP3   OH250889   0.101   1.646  15.622  0.2063 -0.9054  0.3049
 9825TIP3    H150890   0.056   1.651  15.537  1.0843  0.2210 -0.1131
 9825TIP3    H250891   0.041   1.689  15.683 -0.1931 -1.2530  0.1684
 9826TIP3   OH250892   4.393   2.260  14.753  0.1156 -0.3621  0.0694
 9826TIP3    H150893   4.449   2.194  14.712  0.6039  0.0431  0.0630
 9826TIP3    H250894   4.426   2.344  14.719 -1.8395 -0.1791 -1.5938
 9827TIP3   OH250895   1.095   3.781   5.377 -0.0228 -0.0194 -0.1238
 9827TIP3    H150896   1.124   3.694   5.349  1.2422  0.2967  0.1611
 9827TIP3    H250897   1.110   3.836   5.300 -0.5865  0.0030 -0.2203
 9828TIP3   OH250898   6.401   1.801   1.301  0.3443 -0.1384  0.3219
 9828TIP3    H150899   6.359   1.730   1.348 -0.8356  0.3542  0.0582
 9828TIP3    H250900   6.448   1.851   1.368  0.1094 -0.4276  0.6998
 9829TIP3   OH250901   5.406   3.677  15.994 -0.2446 -0.8364 -0.4461
 9829TIP3    H150902   5.377   3.587  16.005  0.1517 -0.7876  1.3583
 9829TIP3    H250903   5.498   3.670  15.968 -0.2572 -0.9461 -0.4618
 9830TIP3   OH250904   5.098   2.141  16.457  0.4501 -0.2029  0.3052
 9830TIP3    H150905   5.101   2.207  16.527  0.4649 -0.4864  0.5752
 9830TIP3    H250906   5.134   2.186  16.381  0.4955  0.0907  0.4963
 9831TIP3   OH250907   0.592   1.994  15.657  0.0957 -0.1582  0.5722
 9831TIP3    H150908   0.628   1.923  15.710  0.0401 -1.3521 -0.9147
 9831TIP3    H250909   0.579   1.955  15.570 -2.1864  0.9868  0.3088
 9832TIP3   OH250910   3.243   1.556  13.493  0.1072  0.2223  0.2504
 9832TIP3    H150911   3.210   1.563  13.403 -3.1048 -2.2861  1.0265
 9832TIP3    H250912   3.219   1.640  13.533  0.7948  1.0306 -0.9423
 9833TIP3   OH250913   0.496   1.486   2.635  0.6863  0.1523  0.3325
 9833TIP3    H150914   0.537   1.483   2.721 -0.1314 -1.8463  0.7107
 9833TIP3    H250915   0.486   1.394   2.609 -4.0163  0.3163  0.5669
 9834TIP3   OH250916   0.540   4.008   4.165  0.2478 -0.1709  0.1723
 9834TIP3    H150917   0.621   4.059   4.154 -0.9815  1.8808  0.1812
 9834TIP3    H250918   0.543   3.945   4.093  1.6375  0.1621 -0.1127
 9835TIP3   OH250919   6.268   4.213   2.217 -0.0793  0.1704 -0.4279
 9835TIP3    H150920   6.323   4.138   2.240 -0.0990  0.1926 -0.3039
 9835TIP3    H250921   6.198   4.176   2.163  0.1707  0.1766 -0.7547
 9836TIP3   OH250922   4.091   0.509   5.335  0.2533 -0.0115  0.6464
 9836TIP3    H150923   4.159   0.576   5.346  0.6440 -0.1505 -0.7551
 9836TIP3    H250924   4.137   0.426   5.342  0.2258 -0.1058 -0.1618
 9837TIP3   OH250925   4.234   1.878  15.908  0.0718 -0.4283  0.4384
 9837TIP3    H150926   4.266   1.798  15.950 -0.8555  0.1306  2.3136
 9837TIP3    H250927   4.307   1.939  15.914  0.9640 -1.2498 -1.4596
 9838TIP3   OH250928   2.829   6.216  15.481 -0.3198 -0.1703 -0.1831
 9838TIP3    H150929   2.890   6.151  15.447 -1.5631 -1.4203 -0.1263
 9838TIP3    H250930   2.758   6.164  15.519 -2.2198  1.2028 -1.6765
 9839TIP3   OH250931   5.266   1.813   6.182  0.7090  0.2177  0.1189
 9839TIP3    H150932   5.226   1.831   6.097  0.5373 -2.5940 -0.4944
 9839TIP3    H250933   5.206   1.851   6.246  0.8274  2.3605 -0.9434
 9840TIP3   OH250934   6.312   1.052   5.289  0.3401 -0.3027  0.1217
 9840TIP3    H150935   6.327   1.131   5.340 -2.0292 -0.1489  0.7296
 9840TIP3    H250936   6.386   0.995   5.309  0.8147  0.7871  1.6386
 9841TIP3   OH250937   3.153   2.256   2.220  0.5566  0.6297  0.2791
 9841TIP3    H150938   3.127   2.315   2.291  1.0271 -0.3554  1.2893
 9841TIP3    H250939   3.095   2.181   2.229  1.4756 -0.0763  0.4391
 9842TIP3   OH250940   1.261   6.471   5.069  0.2465  0.3845 -0.3253
 9842TIP3    H150941   1.178   6.494   5.028 -0.0106 -0.7290 -0.4580
 9842TIP3    H250942   1.305   6.555   5.083 -0.7527  0.9612 -0.5527
 9843TIP3   OH250943   1.299   1.277  14.000  0.0759 -0.1416 -0.4698
 9843TIP3    H150944   1.246   1.285  14.080  1.2981 -0.9192  0.4546
 9843TIP3    H250945   1.369   1.341  14.011 -0.1779  0.2940 -1.3033
 9844TIP3   OH250946   4.254   6.287   3.617  0.0402  0.0688 -0.0923
 9844TIP3    H150947   4.234   6.260   3.707  0.0253  0.1015 -0.0853
 9844TIP3    H250948   4.334   6.241   3.595 -1.5965 -2.4319 -1.1906
 9845TIP3   OH250949   2.140   5.168  11.110  0.6094  0.1487 -0.2375
 9845TIP3    H150950   2.227   5.165  11.071  0.5657 -0.7523 -0.2747
 9845TIP3    H250951   2.083   5.123  11.048 -0.1835  1.9583 -0.8992
 9846TIP3   OH250952   0.886   0.343   5.983 -0.0427 -0.0036 -0.2002
 9846TIP3    H150953   0.815   0.316   5.925  0.5863  0.1896 -1.0807
 9846TIP3    H250954   0.843   0.364   6.066 -1.0150  0.1700 -0.7399
 9847TIP3   OH250955   2.227   2.177   0.046  0.5827  0.2954 -0.6837
 9847TIP3    H150956   2.322   2.168   0.047  0.5153 -0.4924 -1.0710
 9847TIP3    H250957   2.200   2.143  -0.039  0.0002  1.1036 -0.8428
 9848TIP3   OH250958   5.038   1.705  11.825  0.2010 -0.1794  0.6153
 9848TIP3    H150959   5.081   1.643  11.767  1.0430  0.1224  0.9000
 9848TIP3    H250960   4.986   1.761  11.767 -1.6068 -1.9114  0.4565
 9849TIP3   OH250961   0.499   1.025  16.541  0.0368  0.4506  0.0145
 9849TIP3    H150962   0.415   0.984  16.521  0.4446 -0.5173  0.2153
 9849TIP3    H250963   0.530   1.059  16.457  0.8092 -1.8189 -0.7088
 9850TIP3   OH250964   6.671   0.330   5.404  0.6092  0.1906 -0.0194
 9850TIP3    H150965   6.724   0.400   5.442  0.3077 -0.8303  2.4484
 9850TIP3    H250966   6.616   0.299   5.476 -0.3501 -1.5906 -1.4253
 9851TIP3   OH250967   6.290   1.733  15.341  0.0930 -0.2591  0.0175
 9851TIP3    H150968   6.280   1.703  15.431 -0.2029 -0.7758 -0.1809
 9851TIP3    H250969   6.238   1.813  15.336 -0.5060 -0.6368  0.1121
 9852TIP3   OH250970   3.018   3.399   0.801  0.8855 -0.2788  0.1722
 9852TIP3    H150971   2.990   3.433   0.886  1.4884 -1.0763  0.7166
 9852TIP3    H250972   2.988   3.464   0.738  1.8056  1.1645  1.1320
 9853TIP3   OH250973   6.444   6.610  14.534 -0.9806  0.0865  0.5967
 9853TIP3    H150974   6.384   6.620  14.459  0.5409 -2.0745 -1.0130
 9853TIP3    H250975   6.522   6.660  14.508 -0.8503  0.2167  1.2372
 9854TIP3   OH250976   6.499   4.153  17.326 -0.0875 -0.3269 -0.3037
 9854TIP3    H150977   6.565   4.111  17.382 -0.2085 -0.4170 -0.2278
 9854TIP3    H250978   6.544   4.167  17.243 -0.2543 -1.2621 -0.5630
 9855TIP3   OH250979   5.200   6.246   5.492  0.2034 -0.2304 -0.4944
 9855TIP3    H150980   5.289   6.269   5.463 -0.1069  0.1468 -1.1859
 9855TIP3    H250981   5.189   6.155   5.466  0.3849 -0.2755 -0.4164
 9856TIP3   OH250982   2.032   1.949   5.398 -0.4474 -0.1713  0.0048
 9856TIP3    H150983   2.025   2.036   5.358  0.8669  0.7638  1.6941
 9856TIP3    H250984   1.941   1.924   5.415 -0.7956  1.7636  1.2793
 9857TIP3   OH250985   0.608   4.418   5.944  0.4110  0.3703  0.0947
 9857TIP3    H150986   0.664   4.477   5.895 -0.5390  1.3044  0.0900
 9857TIP3    H250987   0.623   4.440   6.036 -0.5572  1.2313  0.0657
 9858TIP3   OH250988   3.174   3.717  14.823 -0.4294  0.4280  0.3121
 9858TIP3    H150989   3.168   3.632  14.867 -1.2318  0.6576  0.6759
 9858TIP3    H250990   3.249   3.760  14.864  0.4558 -0.3936 -0.4062
 9859TIP3   OH250991   4.016   2.172  13.407  0.3915  0.3705  0.2803
 9859TIP3    H150992   3.929   2.133  13.415  0.2378  0.2504 -1.5551
 9859TIP3    H250993   4.058   2.153  13.490 -0.7116 -1.1535  0.5410
 9860TIP3   OH250994   4.111   5.285   5.704 -0.3330 -0.4408 -0.3088
 9860TIP3    H150995   4.180   5.219   5.702  1.1100  0.9477  1.0683
 9860TIP3    H250996   4.041   5.245   5.755  0.7070 -0.7713  0.8919
 9861TIP3   OH250997   2.327   2.889   0.646  0.2570  0.0465  0.1161
 9861TIP3    H150998   2.251   2.900   0.589  0.3032  0.9256  0.2200
 9861TIP3    H250999   2.384   2.963   0.627  1.3197 -0.8406 -0.2819
 9862TIP3   OH251000   1.766   1.205   3.975 -0.9707  0.2594 -0.3922
 9862TIP3    H151001   1.743   1.121   4.015  0.2701  0.1365  0.1295
 9862TIP3    H251002   1.767   1.267   4.049 -1.6902  0.7071 -0.7428
 9863TIP3   OH251003   2.892   3.579   0.633 -0.2882 -0.0686 -0.4569
 9863TIP3    H151004   2.893   3.585   0.537 -0.9705  0.1859 -0.4536
 9863TIP3    H251005   2.852   3.661   0.662 -2.5803 -1.2258 -0.0855
 9864TIP3   OH251006   1.050   3.975   2.458  0.0468  0.4440 -0.2484
 9864TIP3    H151007   1.105   4.037   2.505 -0.2814 -0.0872  0.8698
 9864TIP3    H251008   1.104   3.945   2.385  0.5988  1.2211 -0.1677
 9865TIP3   OH251009   1.527   6.554   2.585  0.0601  0.5280  0.3283
 9865TIP3    H151010   1.445   6.532   2.630  0.9959  0.6867  2.2074
 9865TIP3    H251011   1.526   6.650   2.580  0.0327  0.5188  0.1503
 9866TIP3   OH251012   5.013   0.588   2.152  0.2404 -0.1837 -0.2080
 9866TIP3    H151013   4.918   0.587   2.140  0.1381 -0.2819  0.5359
 9866TIP3    H251014   5.048   0.621   2.069 -0.4417 -0.1437 -0.4840
 9867TIP3   OH251015   1.560   3.803   5.123  0.9113  0.1608 -0.3339
 9867TIP3    H151016   1.485   3.799   5.183  1.6758  0.7792  0.6922
 9867TIP3    H251017   1.529   3.857   5.050 -0.2419 -1.1119 -0.8409
 9868TIP3   OH251018   6.421   6.373   2.504  0.3541  0.0940  0.5143
 9868TIP3    H151019   6.433   6.303   2.440  0.0853 -0.2883  0.8768
 9868TIP3    H251020   6.377   6.331   2.577  1.9368  0.1888  1.5723
 9869TIP3   OH251021   2.846   3.372   2.540 -0.0415  0.1940 -0.0861
 9869TIP3    H151022   2.760   3.408   2.562  0.3491  0.1726  1.6274
 9869TIP3    H251023   2.855   3.296   2.597  2.0310  1.5075  1.5039
 9870TIP3   OH251024   1.488   2.326  12.329  0.6409  0.3358 -1.1677
 9870TIP3    H151025   1.454   2.355  12.414  0.1718 -0.6279 -1.0022
 9870TIP3    H251026   1.580   2.305  12.346  0.3483 -0.6166 -0.6847
 9871TIP3   OH251027   2.335   1.326  12.558 -0.1523 -0.1397  0.5538
 9871TIP3    H151028   2.268   1.392  12.541 -0.3705 -0.7114 -1.0144
 9871TIP3    H251029   2.407   1.349  12.498  0.7397 -0.0002  1.6394
 9872TIP3   OH251030   4.916   4.060  15.140  0.0885  0.4193 -0.0248
 9872TIP3    H151031   4.989   4.000  15.157  0.8142  0.9903 -1.0510
 9872TIP3    H251032   4.854   4.008  15.089  0.2201  0.2234  0.0135
 9873TIP3   OH251033   1.564   0.973   3.823 -0.5622  0.1920 -0.4335
 9873TIP3    H151034   1.474   0.939   3.825 -0.6086  0.2915 -0.7330
 9873TIP3    H251035   1.608   0.930   3.896 -0.3020 -1.3719 -1.4626
 9874TIP3   OH251036   2.858   1.581   0.175 -0.6729  0.5651  0.3202
 9874TIP3    H151037   2.942   1.537   0.165 -0.5642  0.9316 -0.4808
 9874TIP3    H251038   2.812   1.531   0.242 -0.4970 -0.6727 -0.4582
 9875TIP3   OH251039   0.609   1.968   0.597 -0.5117 -0.4917 -0.1221
 9875TIP3    H151040   0.563   1.932   0.673 -1.4528  2.0911  0.6469
 9875TIP3    H251041   0.649   1.892   0.555  0.3181 -2.0066  3.1054
 9876TIP3   OH251042   3.179   2.168   1.692 -0.2665 -0.3748 -0.6788
 9876TIP3    H151043   3.270   2.137   1.701 -1.1421 -2.5744  2.1743
 9876TIP3    H251044   3.163   2.218   1.772 -0.8569  2.4446 -2.4028
 9877TIP3   OH251045   3.786   6.339  12.774  0.9094  0.3262  0.3050
 9877TIP3    H151046   3.820   6.429  12.775  1.0200  0.2909  1.6099
 9877TIP3    H251047   3.714   6.340  12.838  1.3564 -0.6637  0.8443
 9878TIP3   OH251048   3.831   0.939  12.531 -0.3294  0.3048 -0.1200
 9878TIP3    H151049   3.818   0.964  12.622  0.0808  1.0449 -0.2609
 9878TIP3    H251050   3.911   0.886  12.532 -0.3999  0.1967 -0.0394
 9879TIP3   OH251051   1.844   5.846  13.661  0.7371  0.0914  0.3105
 9879TIP3    H151052   1.860   5.800  13.578  0.5331 -1.1863  0.9564
 9879TIP3    H251053   1.884   5.789  13.727  2.2455  1.8331  0.9755
 9880TIP3   OH251054   4.700   5.887   2.637 -0.3633 -0.0695  0.2698
 9880TIP3    H151055   4.696   5.964   2.580  0.0665  0.4296  0.9037
 9880TIP3    H251056   4.649   5.912   2.714  0.6284 -0.0335  0.9265
 9881TIP3   OH251057   3.956   0.150  14.112  0.4299  0.3671  0.2247
 9881TIP3    H151058   4.032   0.196  14.149 -0.5356  1.5181  0.8489
 9881TIP3    H251059   3.882   0.182  14.163 -0.6663  0.3128 -1.2772
 9882TIP3   OH251060   2.169   4.550  14.644 -0.2340 -0.2890  0.4034
 9882TIP3    H151061   2.117   4.514  14.572 -0.6687  0.7827  0.1644
 9882TIP3    H251062   2.118   4.531  14.722  0.3530 -1.6693  0.4861
 9883TIP3   OH251063   5.365   6.120  14.229 -0.2162  0.5535  0.1552
 9883TIP3    H151064   5.373   6.047  14.290  1.7506  0.7598  0.2259
 9883TIP3    H251065   5.455   6.137  14.201 -0.8521  1.7475 -1.2874
 9884TIP3   OH251066   1.688   3.882   3.582 -0.3418  0.2143  0.2085
 9884TIP3    H151067   1.671   3.949   3.516  0.1440  0.2495  0.1101
 9884TIP3    H251068   1.651   3.802   3.545  1.7863 -0.2463 -1.1358
 9885TIP3   OH251069   1.235   2.772   0.461  0.3279 -0.8538  0.1425
 9885TIP3    H151070   1.196   2.849   0.503  0.8732 -0.5674  0.1423
 9885TIP3    H251071   1.196   2.698   0.506 -0.3197 -0.5807  0.0390
 9886TIP3   OH251072   3.494   4.087   4.614  0.0496 -0.4951  0.4521
 9886TIP3    H151073   3.423   4.108   4.553  0.3779  0.0918  0.2683
 9886TIP3    H251074   3.510   3.993   4.600  0.4757 -0.2649 -0.7490
 9887TIP3   OH251075   4.487   6.196   2.302  0.1601 -0.3268 -0.7101
 9887TIP3    H151076   4.477   6.282   2.341  0.6479 -0.3574 -0.5013
 9887TIP3    H251077   4.417   6.143   2.339  1.3210 -0.6887  1.0986
 9888TIP3   OH251078   4.965   1.780   1.830  0.6722  0.4868 -0.4988
 9888TIP3    H151079   5.007   1.836   1.765  0.1057  0.9037 -0.5169
 9888TIP3    H251080   5.035   1.724   1.863  0.9665  0.2498 -1.4817
 9889TIP3   OH251081   5.820   4.774   3.447 -0.1996  0.2638 -0.2552
 9889TIP3    H151082   5.874   4.749   3.372  1.8386  1.8206  0.5691
 9889TIP3    H251083   5.883   4.786   3.519 -1.5210  2.7025  0.6361
 9890TIP3   OH251084   2.146   3.603  14.386 -0.5252  0.0109 -1.2278
 9890TIP3    H151085   2.186   3.581  14.302  1.9771 -0.5588  0.0086
 9890TIP3    H251086   2.081   3.535  14.401  1.2383 -1.7990 -1.3198
 9891TIP3   OH251087   1.480   4.799   1.116  0.0182 -0.0617  0.1979
 9891TIP3    H151088   1.391   4.829   1.096 -0.6300 -1.6264  0.5434
 9891TIP3    H251089   1.470   4.746   1.195  1.3024 -0.1229  0.3385
 9892TIP3   OH251090   3.887   1.654  13.275  0.1909  0.0216 -0.4112
 9892TIP3    H151091   3.896   1.723  13.341  0.7055  0.3372 -0.8103
 9892TIP3    H251092   3.835   1.587  13.319 -0.2302  0.6171  0.0128
 9893TIP3   OH251093   5.688   2.654  17.141 -0.1876 -1.2039 -0.6989
 9893TIP3    H151094   5.769   2.612  17.112  0.2713 -0.1715 -0.9842
 9893TIP3    H251095   5.654   2.597  17.210  0.6876 -1.7491 -0.7042
 9894TIP3   OH251096   4.106   5.224   3.229  0.3031 -0.2152  0.1061
 9894TIP3    H151097   4.028   5.272   3.258  0.3619 -0.4445  0.6424
 9894TIP3    H251098   4.177   5.258   3.284  0.7580  0.6177 -0.9599
 9895TIP3   OH251099   1.673   3.074   3.965 -0.0330  0.0755 -0.2743
 9895TIP3    H151100   1.754   3.023   3.965  0.2763  0.3550  2.9133
 9895TIP3    H251101   1.695   3.155   3.919  1.3795 -0.0323  0.1777
 9896TIP3   OH251102   4.880   0.324   0.934  0.2119 -0.4993  0.0495
 9896TIP3    H151103   4.852   0.284   1.017  1.3270 -0.1709  0.6023
 9896TIP3    H251104   4.965   0.284   0.915 -0.3278 -1.0635 -1.3021
 9897TIP3   OH251105   6.027   0.482  14.418  0.6683 -0.6672 -0.5136
 9897TIP3    H151106   5.996   0.485  14.509  0.2357  0.2002 -0.6793
 9897TIP3    H251107   6.075   0.563  14.406 -0.1194 -0.3118 -1.3496
 9898TIP3   OH251108   4.948   1.681   4.494  0.4686 -0.0438 -0.4879
 9898TIP3    H151109   4.925   1.589   4.501  1.0190 -0.1290  0.3478
 9898TIP3    H251110   5.029   1.682   4.443  1.1037 -0.1312  0.4965
 9899TIP3   OH251111   4.994   4.049   5.034  0.2296 -0.1941  0.0990
 9899TIP3    H151112   4.910   4.096   5.036 -0.6036 -1.6215  1.3870
 9899TIP3    H251113   5.040   4.078   5.113  1.6092  1.5909 -1.2677
 9900TIP3   OH251114   2.437   6.734   2.641  0.2822  0.1151  0.0207
 9900TIP3    H151115   2.405   6.811   2.594  1.0610  0.5502  0.1842
 9900TIP3    H251116   2.376   6.665   2.618 -0.6349  0.8599  0.1315
 9901TIP3   OH251117   6.237   1.663   5.960 -0.1792 -0.1323  0.0367
 9901TIP3    H151118   6.142   1.667   5.965 -0.3318 -1.2828 -1.3043
 9901TIP3    H251119   6.266   1.754   5.953 -1.0006  0.3944  2.4532
 9902TIP3   OH251120   1.392   4.367   2.243 -0.3005  0.6142 -0.3626
 9902TIP3    H151121   1.401   4.426   2.169 -0.2810 -1.5630 -2.2096
 9902TIP3    H251122   1.307   4.325   2.231  0.2204 -0.6508  0.1582
 9903TIP3   OH251123   1.997   1.497   3.579  0.0995 -0.0835 -0.1740
 9903TIP3    H151124   2.058   1.557   3.623  0.7669 -0.8557 -0.0358
 9903TIP3    H251125   1.941   1.555   3.526  1.9034  0.5591 -1.4921
 9904TIP3   OH251126   3.117   6.165   4.121 -0.6927  0.4274  0.3469
 9904TIP3    H151127   3.070   6.111   4.185 -1.5084  0.2841 -0.3511
 9904TIP3    H251128   3.096   6.126   4.037  2.8549 -1.2936  0.1238
 9905TIP3   OH251129   2.755   1.106  12.335  0.5883 -0.1295  0.0117
 9905TIP3    H151130   2.736   1.181  12.279 -1.2704 -0.5562  0.0294
 9905TIP3    H251131   2.776   1.145  12.420 -2.1776  0.3656  0.5387
 9906TIP3   OH251132   1.841   0.138   1.826  0.4619  0.0916  0.8107
 9906TIP3    H151133   1.874   0.206   1.767  1.5715 -0.3519  0.8927
 9906TIP3    H251134   1.868   0.167   1.913 -0.4963  0.3513  1.0390
 9907TIP3   OH251135   1.588   1.725   5.555 -0.1428  0.3845 -0.3135
 9907TIP3    H151136   1.616   1.805   5.599 -0.9170  0.8746 -0.6935
 9907TIP3    H251137   1.540   1.755   5.478 -2.1714 -0.3698  0.5674
 9908TIP3   OH251138   1.811   5.993  15.376  0.2158 -0.4011  0.5803
 9908TIP3    H151139   1.848   5.921  15.427 -3.3963 -2.6373  0.3434
 9908TIP3    H251140   1.787   5.953  15.292  1.6166  2.0849 -1.1478
 9909TIP3   OH251141   2.981   0.290   1.344  0.7403  0.1872  0.3597
 9909TIP3    H151142   2.910   0.231   1.370  0.5554  0.3053  0.1254
 9909TIP3    H251143   3.012   0.328   1.426 -0.0524  0.8041  0.3842
 9910TIP3   OH251144   6.138   1.581   6.405  0.3089 -0.0729 -0.0502
 9910TIP3    H151145   6.219   1.561   6.358 -0.1432  1.5089 -1.5977
 9910TIP3    H251146   6.107   1.663   6.367  0.3532  1.9040  3.6402
 9911TIP3   OH251147   5.674   2.515  15.814 -0.0560 -0.2281 -0.5748
 9911TIP3    H151148   5.626   2.505  15.896 -1.1918  5.2604 -0.1584
 9911TIP3    H251149   5.759   2.551  15.840 -0.2800  1.2018 -1.6702
 9912TIP3   OH251150   0.780   4.829  12.694  0.3530 -0.1701 -0.1110
 9912TIP3    H151151   0.862   4.805  12.652  1.8556  1.1923  1.8562
 9912TIP3    H251152   0.783   4.787  12.780 -0.9380  0.0269  0.0611
 9913TIP3   OH251153   5.845   2.476   0.600 -0.1637 -0.0375 -0.0758
 9913TIP3    H151154   5.762   2.516   0.576  0.6899  2.2769  0.5687
 9913TIP3    H251155   5.876   2.436   0.518 -0.4456  1.8715 -1.1858
 9914TIP3   OH251156   0.578   3.836  11.347 -0.2297  0.0394  0.0620
 9914TIP3    H151157   0.541   3.831  11.436 -1.5557  2.5360 -0.2330
 9914TIP3    H251158   0.501   3.840  11.290  0.5565  1.0400 -0.9684
 9915TIP3   OH251159   4.662   0.253   5.329 -0.2790 -0.6747  0.0242
 9915TIP3    H151160   4.585   0.309   5.316  0.6796  1.5506  2.7530
 9915TIP3    H251161   4.626   0.169   5.358 -1.7733  0.6264  2.2302
 9916TIP3   OH251162   5.833   1.949   6.131 -0.2652  0.1961  0.0203
 9916TIP3    H151163   5.763   1.921   6.071 -2.0411  0.6014  1.8135
 9916TIP3    H251164   5.889   2.005   6.077 -3.0653  2.4430 -0.8153
 9917TIP3   OH251165   0.938   3.234  10.629  0.2919 -0.4519  0.3448
 9917TIP3    H151166   0.882   3.308  10.607 -0.3321 -1.5113 -1.9863
 9917TIP3    H251167   0.924   3.220  10.723  0.0535  2.0187  0.7429
 9918TIP3   OH251168   0.148   2.716   2.406  0.2775  0.6597  0.1843
 9918TIP3    H151169   0.228   2.757   2.373  0.7544 -0.5630 -0.2538
 9918TIP3    H251170   0.087   2.721   2.333 -0.0703  1.6266  0.5312
 9919TIP3   OH251171   2.746   2.431   0.095  0.3669  0.0725 -0.6211
 9919TIP3    H151172   2.765   2.385   0.013 -1.2581 -1.8847  0.0238
 9919TIP3    H251173   2.773   2.370   0.164  1.0631  1.4114  0.3427
 9920TIP3   OH251174   1.782   6.541  16.056  0.1565  0.3165 -0.0627
 9920TIP3    H151175   1.799   6.575  16.144  0.2092 -3.4284  1.5391
 9920TIP3    H251176   1.866   6.547  16.012  0.2980  1.5944  0.3148
 9921TIP3   OH251177   4.231   1.713   0.916  0.2535 -0.1451  0.0732
 9921TIP3    H151178   4.200   1.677   0.999 -1.7914  0.2706 -0.4513
 9921TIP3    H251179   4.270   1.797   0.939 -1.6400  0.6679  0.5059
 9922TIP3   OH251180   4.514   0.805  12.223 -0.0432 -0.0512 -0.7297
 9922TIP3    H151181   4.424   0.797  12.192  0.4781  0.1244 -2.4125
 9922TIP3    H251182   4.531   0.722  12.269 -0.8130 -0.4131 -1.0728
 9923TIP3   OH251183   2.721   5.400   5.386  0.3863  0.3377  0.5226
 9923TIP3    H151184   2.810   5.429   5.406  0.1640  0.1513  1.9562
 9923TIP3    H251185   2.703   5.433   5.299  1.1511  2.0841  0.9936
 9924TIP3   OH251186   6.659   2.211   3.813 -0.0924  0.5350  0.1067
 9924TIP3    H151187   6.638   2.289   3.864  0.7603  0.4419  0.6303
 9924TIP3    H251188   6.678   2.243   3.725  1.6746  1.1340  0.6550
 9925TIP3   OH251189   4.974   5.889  12.776 -0.0737 -0.3792  0.4988
 9925TIP3    H151190   4.878   5.897  12.777 -0.0353  0.3416 -0.1503
 9925TIP3    H251191   5.000   5.934  12.696  0.9732  1.3606  1.7497
 9926TIP3   OH251192   0.756   2.647   1.162  0.6631 -0.1287 -0.0685
 9926TIP3    H151193   0.690   2.683   1.222 -2.0583 -3.2819 -0.8361
 9926TIP3    H251194   0.729   2.678   1.076  2.0681  1.0218 -0.1145
 9927TIP3   OH251195   1.800   2.857  14.648 -0.7410 -0.1002  0.4888
 9927TIP3    H151196   1.889   2.889  14.661 -0.5549 -0.6166  0.4868
 9927TIP3    H251197   1.761   2.921  14.588  0.0053 -0.5188 -0.4740
 9928TIP3   OH251198   6.187   0.678   1.444 -0.4051 -0.0073 -0.6556
 9928TIP3    H151199   6.159   0.586   1.449  0.2184 -0.1487  0.4789
 9928TIP3    H251200   6.157   0.716   1.526  2.4631 -0.1139  0.5396
 9929TIP3   OH251201   2.371   4.425   4.558  0.2421  0.4391 -0.5394
 9929TIP3    H151202   2.417   4.342   4.552  0.3350  0.5251 -1.0714
 9929TIP3    H251203   2.415   4.472   4.629  0.2060  0.0497 -0.2572
 9930TIP3   OH251204   5.414   0.499   1.490 -0.1761 -0.2015 -0.3432
 9930TIP3    H151205   5.341   0.558   1.511 -1.2969 -1.1377 -1.4696
 9930TIP3    H251206   5.392   0.463   1.405  0.4061 -2.3378  0.3545
 9931TIP3   OH251207   6.229   4.017  13.813  0.0906 -0.3533 -0.4764
 9931TIP3    H151208   6.214   3.941  13.756 -1.8976  0.3876 -1.0388
 9931TIP3    H251209   6.197   3.989  13.899  0.7478 -0.6264 -0.3130
 9932TIP3   OH251210   2.057   5.303   4.732 -0.1235 -0.2857  0.0537
 9932TIP3    H151211   2.140   5.289   4.686  0.1975  3.4265 -0.8612
 9932TIP3    H251212   1.991   5.306   4.662 -0.5394 -0.1240  0.4443
 9933TIP3   OH251213   4.422   0.998   5.172  0.5598 -0.1654  0.4969
 9933TIP3    H151214   4.377   0.968   5.251 -2.2201  0.7012 -0.6374
 9933TIP3    H251215   4.483   1.065   5.203 -0.4186  0.1084  1.9325
 9934TIP3   OH251216   1.282   3.423   1.335  0.2535  0.5956 -0.5977
 9934TIP3    H151217   1.246   3.507   1.364 -0.3676  0.4195 -0.8441
 9934TIP3    H251218   1.372   3.424   1.365  0.1672  1.2332 -0.3468
 9935TIP3   OH251219   3.979   1.371  17.046  0.1301 -0.2136 -0.4410
 9935TIP3    H151220   3.986   1.457  17.005  0.2592 -0.3312 -0.6718
 9935TIP3    H251221   3.953   1.388  17.136 -0.1832  0.0504 -0.5815
 9936TIP3   OH251222   2.638   3.769   2.036 -0.4719  0.3842 -0.4952
 9936TIP3    H151223   2.568   3.796   1.976 -0.9236 -0.2455 -0.2687
 9936TIP3    H251224   2.601   3.694   2.083  0.7766 -0.7071 -1.2057
 9937TIP3   OH251225   1.323   0.891   4.105 -0.2195  0.1780  0.2217
 9937TIP3    H151226   1.305   0.970   4.156 -1.4779  0.0579 -0.0042
 9937TIP3    H251227   1.246   0.881   4.049 -0.7100 -1.9444  1.1969
 9938TIP3   OH251228   1.620   3.807   0.779 -0.3234  0.2443 -0.8342
 9938TIP3    H151229   1.548   3.770   0.830  0.1264 -0.1276 -0.4530
 9938TIP3    H251230   1.599   3.901   0.773 -0.2974  0.3311  0.2003
 9939TIP3   OH251231   2.639   6.648   0.654  0.1826  0.2270 -0.5498
 9939TIP3    H151232   2.544   6.631   0.658  0.1575  0.6639  1.6051
 9939TIP3    H251233   2.649   6.738   0.685  1.4063 -0.2940  0.6502
 9940TIP3   OH251234   3.411   6.121  15.299  0.0835 -0.9494 -0.5574
 9940TIP3    H151235   3.478   6.137  15.365  1.6187 -0.7091 -2.1241
 9940TIP3    H251236   3.413   6.197  15.242  1.7689 -2.8808 -3.3253
 9941TIP3   OH251237   2.787   0.898   2.063  0.0617  0.2030 -0.2658
 9941TIP3    H151238   2.808   0.832   2.129 -1.8038  1.0777  1.2876
 9941TIP3    H251239   2.836   0.976   2.091  1.6506 -0.2287 -1.6684
 9942TIP3   OH251240   2.509   6.718  12.383 -0.1226 -0.1751  0.0390
 9942TIP3    H151241   2.477   6.738  12.295  0.1359 -2.0998 -0.5335
 9942TIP3    H251242   2.552   6.798  12.411  0.0107  0.4051 -1.6926
 9943TIP3   OH251243   2.143   1.685  13.058 -0.2484  0.2057 -0.1887
 9943TIP3    H151244   2.196   1.699  13.136 -1.2304  2.4841  0.1412
 9943TIP3    H251245   2.074   1.624  13.086  0.9299 -1.1236 -0.0680
 9944TIP3   OH251246   1.701   1.190  14.087 -0.3146  0.0431 -0.2582
 9944TIP3    H151247   1.665   1.188  14.175 -0.2522 -0.4351 -0.2435
 9944TIP3    H251248   1.758   1.114  14.082  2.9502  2.2460  0.6339
 9945TIP3   OH251249   3.926   3.455   2.924 -0.2282 -0.6881  0.0138
 9945TIP3    H151250   4.018   3.439   2.942 -0.5147 -1.1134  1.1401
 9945TIP3    H251251   3.919   3.446   2.829  0.5422 -2.4990  0.0979
 9946TIP3   OH251252   2.167   0.157   5.029  0.6614  0.1220  0.3094
 9946TIP3    H151253   2.242   0.191   5.079 -0.3017  0.6743  1.4483
 9946TIP3    H251254   2.107   0.125   5.096 -0.2082 -0.1216 -0.5743
 9947TIP3   OH251255   3.465   1.103  12.969 -0.0974 -0.1252 -0.4387
 9947TIP3    H151256   3.390   1.112  13.028 -0.8706  0.6047 -1.4924
 9947TIP3    H251257   3.540   1.093  13.027 -0.8908  0.0797  0.6620
 9948TIP3   OH251258   1.820   0.188   0.627  0.4525 -0.2171  0.1584
 9948TIP3    H151259   1.819   0.272   0.673  0.3806  0.1622 -0.5249
 9948TIP3    H251260   1.738   0.185   0.579 -0.0485 -1.1710  1.0108
 9949TIP3   OH251261   0.896   1.528   1.590  1.2888 -0.0274 -0.2488
 9949TIP3    H151262   0.884   1.497   1.680  1.3948  0.7375  0.0392
 9949TIP3    H251263   0.985   1.563   1.588  1.9071 -1.5545 -1.1260
 9950TIP3   OH251264   1.344   0.316   2.763 -0.1963 -0.2884  0.4190
 9950TIP3    H151265   1.413   0.275   2.710 -0.3027 -0.7752  0.6494
 9950TIP3    H251266   1.368   0.295   2.853 -0.1293  0.3576  0.5572
 9951TIP3   OH251267   2.736   2.648  11.885 -0.1769  0.0787  0.8208
 9951TIP3    H151268   2.770   2.737  11.889  0.4009 -0.1119  0.2879
 9951TIP3    H251269   2.642   2.658  11.904  0.1312  0.6203  2.0960
 9952TIP3   OH251270   1.605   5.823  10.621 -0.3621  0.0807 -0.0418
 9952TIP3    H151271   1.598   5.800  10.528 -0.8947  0.3924 -0.0785
 9952TIP3    H251272   1.692   5.863  10.628  0.0509 -0.7611 -0.2236
 9953TIP3   OH251273   0.789   3.878   3.639  0.0794 -0.6197  0.5066
 9953TIP3    H151274   0.722   3.928   3.592  0.4387 -1.6506 -1.1595
 9953TIP3    H251275   0.871   3.899   3.594  0.8074  0.0481  2.0601
 9954TIP3   OH251276   0.260   1.328   1.380 -0.3060  0.5047  0.3329
 9954TIP3    H151277   0.199   1.399   1.358  0.0426  0.1216 -2.1309
 9954TIP3    H251278   0.261   1.272   1.302  0.5490 -1.4231  1.6519
 9955TIP3   OH251279   2.991   3.686  11.999  0.3732 -0.2846 -1.1158
 9955TIP3    H151280   3.074   3.732  12.011 -0.2985  0.2479  3.1632
 9955TIP3    H251281   3.015   3.593  11.994  1.3484  0.0389 -3.3021
 9956TIP3   OH251282   4.975   6.347  10.545  0.8132  0.3672 -0.1597
 9956TIP3    H151283   4.965   6.415  10.612  1.3796  1.5123 -1.1869
 9956TIP3    H251284   5.062   6.310  10.561  0.2891 -0.5132  0.7324
 9957TIP3   OH251285   1.832   2.742   1.178 -0.1944  0.1284  0.0490
 9957TIP3    H151286   1.760   2.780   1.127  0.0218  0.0955 -0.2850
 9957TIP3    H251287   1.796   2.660   1.212  0.2273 -0.8178 -1.6227
 9958TIP3   OH251288   1.252   3.409   1.911 -0.1833 -0.4145  0.4631
 9958TIP3    H151289   1.191   3.409   1.837  1.1846 -0.8091 -0.7094
 9958TIP3    H251290   1.300   3.326   1.902  2.6656  1.1963 -0.5433
 9959TIP3   OH251291   5.034   2.667  13.165 -0.1303  0.3327  0.1368
 9959TIP3    H151292   5.023   2.573  13.155  1.2293  0.2114 -0.4297
 9959TIP3    H251293   5.101   2.690  13.100 -0.8615  1.7823 -0.1323
 9960TIP3   OH251294   6.461   2.563  15.734  0.3020  0.2840  0.5219
 9960TIP3    H151295   6.405   2.604  15.668  1.8750  1.2244 -0.2740
 9960TIP3    H251296   6.516   2.502  15.685 -0.3048 -0.9719  1.3609
 9961TIP3   OH251297   2.399   0.517   6.452  0.0228 -0.1021  0.3857
 9961TIP3    H151298   2.451   0.558   6.521 -0.4261  2.1118 -0.4905
 9961TIP3    H251299   2.308   0.529   6.480 -0.1328 -0.1458 -0.0847
 9962TIP3   OH251300   2.510   2.183   0.354  0.1133 -0.6576 -0.1880
 9962TIP3    H151301   2.576   2.252   0.342 -0.3596 -0.5582 -2.5860
 9962TIP3    H251302   2.427   2.230   0.358 -0.0382 -0.9598  0.3088
 9963TIP3   OH251303   6.378   1.915  12.944 -0.2698  0.1543 -0.9126
 9963TIP3    H151304   6.317   1.854  12.902  0.4011 -1.3445  0.1796
 9963TIP3    H251305   6.459   1.865  12.952 -0.2114  0.5348  1.6249
 9964TIP3   OH251306   1.954   5.473  12.270 -0.4227  0.4824  0.0062
 9964TIP3    H151307   1.994   5.391  12.299 -1.8304 -0.1335  0.2803
 9964TIP3    H251308   1.962   5.532  12.345  0.0421  0.4015  0.0222
 9965TIP3   OH251309   0.068   2.449  16.476 -0.3992 -0.1559  0.5055
 9965TIP3    H151310  -0.020   2.483  16.491 -0.6086 -0.7247  0.5757
 9965TIP3    H251311   0.085   2.393  16.551  0.2213  0.3385  0.7473
 9966TIP3   OH251312   5.351   3.120  15.624 -0.3592  0.0474  0.0793
 9966TIP3    H151313   5.405   3.047  15.595 -0.5437 -0.2228  0.4160
 9966TIP3    H251314   5.285   3.081  15.680  0.0746  0.5835  0.9853
 9967TIP3   OH251315   2.979   5.062   2.553 -0.0266  0.4522 -0.5198
 9967TIP3    H151316   2.932   4.978   2.558 -0.1272  0.3309 -2.5924
 9967TIP3    H251317   2.984   5.092   2.644 -0.4680 -1.5287  0.2156
 9968TIP3   OH251318   3.829   3.477   1.880 -0.1786  0.2486 -0.2123
 9968TIP3    H151319   3.863   3.483   1.791 -0.5242 -2.9069 -0.6606
 9968TIP3    H251320   3.825   3.383   1.898 -0.9124  0.7600  2.8482
 9969TIP3   OH251321   0.220   2.148   4.717  0.0020  0.1943  0.3920
 9969TIP3    H151322   0.309   2.180   4.707  0.0761 -0.1120  0.0261
 9969TIP3    H251323   0.219   2.065   4.668  0.0558 -0.8128  2.0180
 9970TIP3   OH251324   5.697   5.114   3.649 -0.7950  0.2318  0.5206
 9970TIP3    H151325   5.635   5.136   3.719 -1.6941 -0.5890  0.0040
 9970TIP3    H251326   5.771   5.172   3.664 -0.5940 -0.4916  2.6760
 9971TIP3   OH251327   5.094   0.594   1.206  0.1734  0.4277 -0.4607
 9971TIP3    H151328   5.019   0.624   1.154 -0.5733  1.5326  1.1655
 9971TIP3    H251329   5.064   0.512   1.246  0.4467  0.0121 -1.0945
 9972TIP3   OH251330   6.708   0.838  11.919  0.4596  0.4825 -0.2972
 9972TIP3    H151331   6.673   0.910  11.971 -0.2054  0.2147 -0.3728
 9972TIP3    H251332   6.640   0.818  11.855  1.2233  0.7372 -1.2093
 9973TIP3   OH251333   0.759   3.619   3.648 -0.2478 -0.0083  0.3107
 9973TIP3    H151334   0.772   3.713   3.651  0.2869 -0.0763  0.1949
 9973TIP3    H251335   0.703   3.600   3.723 -2.6789  0.7479 -1.1876
 9974TIP3   OH251336   5.182   1.600   6.555  0.0439  0.2964  0.1333
 9974TIP3    H151337   5.221   1.597   6.643  0.7184  0.9193 -0.1321
 9974TIP3    H251338   5.252   1.568   6.497 -0.4906 -0.3738 -0.1557
 9975TIP3   OH251339   5.917   1.091   2.115 -0.0282  0.2635  0.3454
 9975TIP3    H151340   5.918   1.185   2.130  1.3584  0.2673  0.3429
 9975TIP3    H251341   5.942   1.080   2.023  1.7054 -0.1524  0.8308
 9976TIP3   OH251342   1.117   0.159   3.386  0.6060 -0.6868  0.1226
 9976TIP3    H151343   1.105   0.064   3.399  0.1227 -0.3226  2.9081
 9976TIP3    H251344   1.145   0.191   3.471  0.8126  1.7066 -0.7902
 9977TIP3   OH251345   4.029   2.912  17.359 -0.0098 -0.3218 -0.2554
 9977TIP3    H151346   4.053   2.967  17.433  0.9154  0.4626 -1.1223
 9977TIP3    H251347   3.960   2.961  17.314  0.5372 -0.0408 -0.8010
 9978TIP3   OH251348   1.078   4.477   2.265  0.0899 -0.1138  0.2208
 9978TIP3    H151349   0.986   4.487   2.242  0.1206  0.6054  0.3863
 9978TIP3    H251350   1.095   4.383   2.256 -0.9511 -0.4313  1.3082
 9979TIP3   OH251351   1.016   6.613   4.572 -0.0304  0.0991  0.6687
 9979TIP3    H151352   1.055   6.688   4.615  0.7784 -0.3598  0.7493
 9979TIP3    H251353   1.087   6.549   4.566  0.0201  0.2998 -1.7209
 9980TIP3   OH251354   5.273   6.488  10.556  0.4596  0.1130  0.4319
 9980TIP3    H151355   5.242   6.465  10.469  1.8321  3.2454 -1.0198
 9980TIP3    H251356   5.202   6.538  10.595 -0.8083 -2.6099  1.8918
 9981TIP3   OH251357   0.108   3.952  12.396 -0.1563 -0.0259  0.1360
 9981TIP3    H151358   0.131   4.045  12.398  1.5640 -0.4168  0.3916
 9981TIP3    H251359   0.032   3.948  12.339  0.5505  1.3930 -0.9953
 9982TIP3   OH251360   5.908   4.615  12.881 -0.2238 -0.5336 -0.2428
 9982TIP3    H151361   5.869   4.539  12.840 -0.3867 -0.3204 -0.4877
 9982TIP3    H251362   6.001   4.609  12.860 -0.3348 -0.3274 -0.8038
 9983TIP3   OH251363   0.791   3.336  16.815 -0.0499  0.3723  0.3526
 9983TIP3    H151364   0.717   3.338  16.754 -2.3338 -2.3591  2.7566
 9983TIP3    H251365   0.847   3.266  16.782 -0.0560  0.4634  0.1458
 9984TIP3   OH251366   5.856   5.996   5.350  0.1187  0.3626  0.6539
 9984TIP3    H151367   5.787   6.042   5.301 -1.0159 -1.1154  0.7969
 9984TIP3    H251368   5.936   6.043   5.328 -0.6141  0.8158 -1.2680
 9985TIP3   OH251369   4.074   3.311   2.143  0.2699  0.0984  0.0350
 9985TIP3    H151370   4.033   3.241   2.092  0.2585  0.8323 -0.9915
 9985TIP3    H251371   4.013   3.384   2.137  0.4002  0.2889  0.8878
 9986TIP3   OH251372   5.332   0.855   0.697 -0.1738  0.1776 -0.5601
 9986TIP3    H151373   5.307   0.816   0.613 -1.9787 -0.8442  0.3873
 9986TIP3    H251374   5.253   0.847   0.752  1.4525 -0.8650  1.8083
 9987TIP3   OH251375   2.694   2.436  14.364 -0.0818  0.3669 -0.0540
 9987TIP3    H151376   2.754   2.490  14.313  1.8171 -1.4948  0.0574
 9987TIP3    H251377   2.720   2.346  14.343 -2.5006 -0.5216  0.4547
 9988TIP3   OH251378   4.595   4.935   4.494  0.1862  0.0597 -0.6412
 9988TIP3    H151379   4.577   4.846   4.464 -1.8626  0.1975  0.0354
 9988TIP3    H251380   4.536   4.991   4.444 -0.3579  0.7389  0.6954
 9989TIP3   OH251381   0.939   0.398   2.459 -0.1467 -0.4061  0.0802
 9989TIP3    H151382   0.993   0.470   2.491  0.0853  0.0901 -1.3360
 9989TIP3    H251383   0.962   0.323   2.514  0.8254  0.1891  0.5014
 9990TIP3   OH251384   2.119   5.169  15.581  0.4775  0.2721  0.2200
 9990TIP3    H151385   2.098   5.124  15.662 -0.5510  1.4737  0.6512
 9990TIP3    H251386   2.092   5.259  15.596  0.9749  0.6786 -1.1897
 9991TIP3   OH251387   1.594   1.754   6.509 -0.3668 -0.2436  0.0035
 9991TIP3    H151388   1.536   1.769   6.435  0.2237  1.1500 -0.2177
 9991TIP3    H251389   1.536   1.754   6.585 -0.9124 -1.1711 -0.4021
 9992TIP3   OH251390   2.027   0.443   5.148 -0.2924  0.4744 -0.4059
 9992TIP3    H151391   2.022   0.372   5.212  0.7671 -0.2544 -1.1073
 9992TIP3    H251392   2.108   0.489   5.170  0.1216  0.1642 -1.2788
 9993TIP3   OH251393   3.054   2.570  17.203 -0.8752  0.2912 -0.2215
 9993TIP3    H151394   3.122   2.504  17.188 -0.2605  0.9041 -0.1610
 9993TIP3    H251395   2.987   2.551  17.138 -1.7086 -1.6996  1.0974
 9994TIP3   OH251396   3.198   4.232   2.390  0.1924 -0.4908 -0.2763
 9994TIP3    H151397   3.225   4.317   2.427 -0.7826  0.3114 -1.3352
 9994TIP3    H251398   3.221   4.237   2.298 -3.0246  0.1113 -1.1921
 9995TIP3   OH251399   5.944   5.863  14.796  0.1749 -0.1058  0.7214
 9995TIP3    H151400   5.899   5.900  14.720  1.6263 -1.2858 -0.7889
 9995TIP3    H251401   5.989   5.937  14.836 -0.8635  0.5853  0.6513
 9996TIP3   OH251402   4.284   3.643  12.328 -0.6277  0.1395  0.3633
 9996TIP3    H151403   4.248   3.611  12.245 -1.0039  0.7605  0.2862
 9996TIP3    H251404   4.219   3.619  12.394 -0.2768 -0.4552  0.5034
 9997TIP3   OH251405   2.177   0.463   4.921  0.1692 -0.4337 -0.1177
 9997TIP3    H151406   2.225   0.381   4.904  1.3488 -0.2748  1.9978
 9997TIP3    H251407   2.113   0.439   4.988  1.1899  0.4956  1.2668
 9998TIP3   OH251408   2.240   1.265  12.145  0.3445  0.1235 -0.4764
 9998TIP3    H151409   2.257   1.237  12.235 -1.7771 -2.0190 -0.6449
 9998TIP3    H251410   2.300   1.212  12.092 -0.0700 -0.3608 -0.4655
 9999TIP3   OH251411   3.551   1.134  11.103 -0.2408  0.0471  0.0493
 9999TIP3    H151412   3.508   1.187  11.170  0.6273  1.7745 -0.7001
 9999TIP3    H251413   3.548   1.187  11.024 -1.1918 -1.9149 -1.3211
10000TIP3   OH251414   5.581   2.622  11.478  0.3843  0.5758 -0.1746
10000TIP3    H151415   5.641   2.625  11.553 -1.0647 -1.2457  1.1544
10000TIP3    H251416   5.600   2.538  11.436 -1.0170  0.0972  0.1089
10001TIP3   OH251417   2.696   1.942   4.162 -0.6695  0.2046 -0.8930
10001TIP3    H151418   2.638   1.876   4.199  0.0585 -0.2052 -0.4477
10001TIP3    H251419   2.750   1.970   4.236  0.1828  0.0475 -1.4420
10002TIP3   OH251420   5.735   0.844   3.402 -0.1691  0.2950 -0.0994
10002TIP3    H151421   5.740   0.939   3.389 -0.1471  0.6627  2.1973
10002TIP3    H251422   5.800   0.826   3.470  0.0719 -1.4394 -0.7410
10003TIP3   OH251423   2.504   6.260   0.404 -0.1037  0.3440 -0.0673
10003TIP3    H151424   2.560   6.300   0.338  1.0805  0.6098  1.0563
10003TIP3    H251425   2.433   6.322   0.416 -0.9559 -0.2008 -1.8350
10004TIP3   OH251426   1.820   0.517   1.134 -0.7950 -0.7651  0.4077
10004TIP3    H151427   1.896   0.553   1.088 -2.5129 -0.5452 -2.5127
10004TIP3    H251428   1.832   0.423   1.130 -1.4636 -0.8257 -1.7699
10005TIP3   OH251429   6.370   2.534  16.188 -0.1083 -0.3339 -0.8914
10005TIP3    H151430   6.373   2.589  16.109  0.5936  0.7461 -0.1383
10005TIP3    H251431   6.396   2.447  16.158  1.1021  0.2771 -1.6907
10006TIP3   OH251432   4.333   2.812  16.940 -0.5892 -0.6077 -0.4994
10006TIP3    H151433   4.318   2.725  16.977 -0.0884 -0.9334 -1.0331
10006TIP3    H251434   4.397   2.797  16.870 -1.6609 -0.0599 -1.6496
10007TIP3   OH251435   0.214   4.535   0.402  0.4231 -0.3280  0.2270
10007TIP3    H151436   0.303   4.561   0.424 -0.0124  1.0914  0.3905
10007TIP3    H251437   0.214   4.526   0.307  0.3718  1.1890  0.0671
10008TIP3   OH251438   1.333   1.689  13.850 -0.8628 -0.5202 -0.8983
10008TIP3    H151439   1.363   1.778  13.868 -1.0070 -0.8558  1.3967
10008TIP3    H251440   1.257   1.700  13.793 -0.2053  0.7373 -1.5696
10009TIP3   OH251441   1.531   5.016  14.180 -0.2827 -0.2547  0.2180
10009TIP3    H151442   1.444   5.012  14.142  0.3731  2.0027 -1.7477
10009TIP3    H251443   1.525   4.962  14.260 -2.3737 -3.3891 -1.8213
10010TIP3   OH251444   4.236   3.689  14.827  0.3273 -0.3197 -0.4712
10010TIP3    H151445   4.316   3.741  14.814  0.4945 -0.0678  1.3268
10010TIP3    H251446   4.222   3.646  14.743  2.2949 -0.2665 -0.8813
10011TIP3   OH251447   6.094   4.298  14.724 -0.7998  0.7713 -0.0907
10011TIP3    H151448   6.183   4.322  14.700 -0.3710 -0.6786 -0.0146
10011TIP3    H251449   6.078   4.343  14.807 -0.0801  0.9118 -0.0256
10012TIP3   OH251450   3.044   2.256  15.361  0.5306 -0.4258 -0.2402
10012TIP3    H151451   3.103   2.219  15.427  0.2308  1.4049  1.1290
10012TIP3    H251452   3.095   2.253  15.279  1.8955 -0.4127  0.5796
10013TIP3   OH251453   4.192   1.516   1.504  0.1763 -0.3851  0.0187
10013TIP3    H151454   4.249   1.535   1.579 -1.8498 -1.0307  1.7997
10013TIP3    H251455   4.192   1.421   1.497 -0.7156 -0.3898  0.0568
10014TIP3   OH251456   6.690   1.259  11.179 -0.2535 -0.5595  0.1400
10014TIP3    H151457   6.706   1.189  11.116 -0.9181  0.5327 -1.2846
10014TIP3    H251458   6.698   1.339  11.128  0.0509  0.3995  1.6466
10015TIP3   OH251459   0.796   3.537  13.073  0.0588 -0.1880  0.5014
10015TIP3    H151460   0.861   3.589  13.026  1.6336 -1.2809  1.3701
10015TIP3    H251461   0.720   3.594  13.079  1.4485  1.7502  0.7608
10016TIP3   OH251462   5.687   2.166   0.411  0.3716  0.0311 -0.8510
10016TIP3    H151463   5.750   2.185   0.480 -0.8464  0.5414  0.1421
10016TIP3    H251464   5.732   2.193   0.330  1.0682  1.2834 -0.0833
10017TIP3   OH251465   0.986   3.161  16.711  0.6236 -0.5012  0.2841
10017TIP3    H151466   1.009   3.131  16.799  0.6314  0.7148  0.7194
10017TIP3    H251467   1.033   3.102  16.653  1.1897 -0.8928  1.1122
10018TIP3   OH251468   1.118   2.151   4.715 -0.3781  0.3360  0.5748
10018TIP3    H151469   1.068   2.180   4.791 -1.0076  0.9578 -0.0692
10018TIP3    H251470   1.053   2.139   4.646  0.3447  1.1702 -0.2879
10019TIP3   OH251471   0.582   6.550  15.441  0.3355 -0.0642 -0.0281
10019TIP3    H151472   0.657   6.583  15.392  0.5306  0.2024  0.4497
10019TIP3    H251473   0.516   6.531  15.374  0.1837  1.3604 -0.3146
10020TIP3   OH251474   6.182   3.504  15.892  0.2231  0.2845 -0.0395
10020TIP3    H151475   6.261   3.473  15.936  0.6015  0.7767 -0.3516
10020TIP3    H251476   6.150   3.575  15.947  0.0082  0.0900  0.0822
10021TIP3   OH251477   6.080   4.984  15.950  0.0191 -0.0458  0.1368
10021TIP3    H151478   5.998   5.029  15.928 -1.0620 -2.7637 -2.0280
10021TIP3    H251479   6.130   4.985  15.869  0.5000 -1.5862  0.3936
10022TIP3   OH251480   1.804   5.052   6.043  0.1303  0.0521 -0.3202
10022TIP3    H151481   1.814   5.041   6.138  0.4658 -0.0133 -0.3634
10022TIP3    H251482   1.742   5.124   6.034  0.7709  0.6509 -0.0590
10023TIP3   OH251483   5.535   2.019  16.932  0.0355  0.0981 -0.7349
10023TIP3    H151484   5.594   2.001  17.006  0.8071  1.8283 -0.8925
10023TIP3    H251485   5.448   2.007  16.968  0.4012 -2.4104 -0.4612
10024TIP3   OH251486   6.210   6.486   4.485 -0.7903 -0.1592  0.0442
10024TIP3    H151487   6.211   6.493   4.580 -1.5326 -1.9186  0.2245
10024TIP3    H251488   6.117   6.482   4.462 -0.6084 -1.2715 -0.5872
10025TIP3   OH251489   4.364   0.065   4.045 -0.4097  0.5366 -0.1685
10025TIP3    H151490   4.424   0.039   4.115 -0.4500  0.2393 -0.2403
10025TIP3    H251491   4.296   0.115   4.089 -1.3571 -1.0741  0.2994
10026TIP3   OH251492   2.445   6.019  15.996  0.0225  0.2152  0.2940
10026TIP3    H151493   2.392   6.092  16.029 -1.3186 -1.1925  1.4348
10026TIP3    H251494   2.387   5.943  16.004  1.0606 -0.8500 -1.6907
10027TIP3   OH251495   3.509   3.477  12.416 -0.5814 -0.3776  0.2745
10027TIP3    H151496   3.453   3.554  12.405 -0.7443 -0.4074  0.8259
10027TIP3    H251497   3.504   3.458  12.510 -0.4344 -0.9786  0.1618
10028TIP3   OH251498   5.570   6.155  11.797  0.2417 -0.2731  0.1102
10028TIP3    H151499   5.575   6.249  11.785  1.7460 -0.4076 -0.5539
10028TIP3    H251500   5.525   6.122  11.719  0.3304 -0.1668  0.0146
10029TIP3   OH251501   4.195   3.407   4.961 -0.3305  0.5039 -0.3867
10029TIP3    H151502   4.262   3.382   5.025 -0.4823  0.0304 -0.4112
10029TIP3    H251503   4.116   3.362   4.990 -0.3293  0.0333 -1.0800
10030TIP3   OH251504   3.634   5.465   2.469 -0.1150 -0.5648 -0.2317
10030TIP3    H151505   3.551   5.483   2.425 -0.3253 -0.4464  0.2039
10030TIP3    H251506   3.610   5.405   2.540  0.1339 -0.3466  0.0382
10031TIP3   OH251507   1.426   4.243  17.233  0.4662  0.7181 -0.7236
10031TIP3    H151508   1.335   4.235  17.204  0.7204  1.4511 -1.7964
10031TIP3    H251509   1.447   4.158  17.271 -0.5935  0.4620 -0.6871
10032TIP3   OH251510   5.766   1.918   3.530  0.1026 -0.1320 -0.2095
10032TIP3    H151511   5.859   1.896   3.538 -0.4654 -2.0600  2.4101
10032TIP3    H251512   5.751   1.981   3.600 -0.2221  1.7812 -1.9124
10033TIP3   OH251513   0.619   3.231   0.005  0.7302 -0.1473  0.1385
10033TIP3    H151514   0.599   3.258   0.095 -0.1810  0.0160 -0.1088
10033TIP3    H251515   0.534   3.228  -0.039  1.1190 -0.7161 -0.5874
10034TIP3   OH251516   1.805   4.321   6.271  0.1949 -0.1821  0.4641
10034TIP3    H151517   1.851   4.393   6.314  0.3296 -1.4478  2.5866
10034TIP3    H251518   1.861   4.245   6.284 -1.3672 -1.2863  1.0449
10035TIP3   OH251519   2.967   1.829   4.684 -0.6043 -0.2872  0.6516
10035TIP3    H151520   3.027   1.798   4.752 -0.5536 -0.7257  0.4076
10035TIP3    H251521   2.992   1.921   4.671 -0.7417 -0.1416  1.3559
10036TIP3   OH251522   0.733   4.458  14.891  0.2665  0.1265 -0.3241
10036TIP3    H151523   0.646   4.440  14.927  0.4318 -0.2365 -0.1031
10036TIP3    H251524   0.793   4.407  14.946  0.6088  0.2855 -0.5461
10037TIP3   OH251525   5.443   3.150   6.118  0.5748  0.2230 -0.2109
10037TIP3    H151526   5.483   3.209   6.054  0.4276  1.5993  0.9056
10037TIP3    H251527   5.360   3.193   6.140  0.7724 -0.0639  1.1299
10038TIP3   OH251528   4.003   1.216  15.616  0.3905  0.3666  0.6376
10038TIP3    H151529   3.917   1.216  15.657  0.7992  1.5485  1.5681
10038TIP3    H251530   4.050   1.144  15.658 -0.2357 -0.5043 -0.1232
10039TIP3   OH251531   3.729   2.826   5.915 -0.3494  0.3693  0.7485
10039TIP3    H151532   3.679   2.892   5.867 -0.0593  0.8849  1.1561
10039TIP3    H251533   3.786   2.876   5.973 -0.4715 -0.2480  1.4036
10040TIP3   OH251534   5.155   2.211  16.025 -0.3880  0.1570 -0.5068
10040TIP3    H151535   5.237   2.162  16.021 -1.2311 -1.3935  0.1544
10040TIP3    H251536   5.109   2.188  15.945 -1.3038 -1.1488  0.3611
10041TIP3   OH251537   1.538   3.701  15.231 -0.1419  0.0632 -0.1227
10041TIP3    H151538   1.580   3.622  15.266  0.2174  0.5873  0.6618
10041TIP3    H251539   1.445   3.679  15.225 -0.0220 -0.4685 -0.0523
10042TIP3   OH251540   2.391   2.612  12.452 -0.7126 -0.0876  1.1525
10042TIP3    H151541   2.373   2.519  12.438 -1.7483  0.3967 -1.1869
10042TIP3    H251542   2.317   2.643  12.504 -0.7606 -0.4116  1.2813
10043TIP3   OH251543   6.683   2.211  14.405  0.6181  0.5360  0.0426
10043TIP3    H151544   6.667   2.233  14.314 -1.3480  0.2016  0.2623
10043TIP3    H251545   6.725   2.126  14.403  0.1168  0.2996 -0.5446
10044TIP3   OH251546   6.114   5.501   4.205  0.3291 -0.5190 -0.7797
10044TIP3    H151547   6.032   5.452   4.212 -0.3518  0.6695 -0.3334
10044TIP3    H251548   6.176   5.449   4.256 -0.4419 -0.7962 -0.1027
10045TIP3   OH251549   2.415   4.876  11.565 -0.0870  0.2420  0.1075
10045TIP3    H151550   2.383   4.939  11.501 -0.0090 -0.0463 -0.2174
10045TIP3    H251551   2.483   4.923  11.614  0.5749  0.1483 -0.6996
10046TIP3   OH251552   1.591   3.219  12.080  0.1195  0.2056 -0.0437
10046TIP3    H151553   1.504   3.179  12.084  0.5954 -0.8003  0.8087
10046TIP3    H251554   1.600   3.265  12.164  0.4470  0.2190 -0.0866
10047TIP3   OH251555   4.323   1.058   2.576 -0.0475 -0.1369 -0.3864
10047TIP3    H151556   4.274   1.102   2.645  0.8762  0.3574 -0.0274
10047TIP3    H251557   4.323   1.120   2.503  1.4535  0.6002  0.2007
10048TIP3   OH251558   6.724   3.094  11.411 -0.1379 -0.1221  0.2349
10048TIP3    H151559   6.631   3.108  11.393 -0.2463 -1.1233 -0.0733
10048TIP3    H251560   6.739   3.133  11.497 -0.7905  0.2598  0.1756
10049TIP3   OH251561   1.165   5.415  15.474 -0.7099  0.6092  0.6041
10049TIP3    H151562   1.100   5.485  15.489 -1.2609 -0.2883  2.8043
10049TIP3    H251563   1.121   5.355  15.414 -0.9577  1.1883  0.1864
10050TIP3   OH251564   1.008   5.641   3.441  0.0966 -0.2358 -0.4905
10050TIP3    H151565   1.014   5.556   3.483  3.0262 -0.7486 -1.7199
10050TIP3    H251566   1.041   5.703   3.507 -0.1429 -0.3056 -0.3014
10051TIP3   OH251567   6.514   0.004  11.958 -0.3303 -0.3700 -0.6947
10051TIP3    H151568   6.495  -0.038  11.874 -1.4796  1.0535 -1.1992
10051TIP3    H251569   6.584  -0.049  11.996 -0.5052 -1.6666 -2.0648
10052TIP3   OH251570   4.060   5.300   0.266 -0.1156  0.8177 -0.0721
10052TIP3    H151571   4.052   5.212   0.303  3.7927  0.0437 -0.5873
10052TIP3    H251572   4.096   5.352   0.338 -2.2412  2.0336  0.1755
10053TIP3   OH251573   0.742   4.186  15.376  0.1878  0.2156 -0.1302
10053TIP3    H151574   0.678   4.257  15.369 -2.8719 -2.1996  1.0451
10053TIP3    H251575   0.770   4.169  15.286  1.2746  3.0060 -0.4025
10054TIP3   OH251576   5.160   5.764   5.998 -0.2906 -0.0712  0.3286
10054TIP3    H151577   5.113   5.815   5.932 -0.6736  0.0055  0.6582
10054TIP3    H251578   5.180   5.681   5.953  1.4011  0.7922 -0.6094
10055TIP3   OH251579   3.516   4.386  15.682  0.0334  0.1318 -0.2689
10055TIP3    H151580   3.516   4.314  15.744 -0.6986 -0.4392 -0.9261
10055TIP3    H251581   3.428   4.386  15.644  0.1588  1.0958 -0.5950
10056TIP3   OH251582   2.304   5.428   3.855 -0.0484 -0.6007  0.4639
10056TIP3    H151583   2.220   5.383   3.870 -0.9998 -0.3080 -3.0150
10056TIP3    H251584   2.357   5.363   3.808  1.2848 -0.3818  1.6141
10057TIP3   OH251585   3.375   5.461  14.260 -0.1469 -0.6599  0.2520
10057TIP3    H151586   3.368   5.497  14.171 -1.3083 -1.0985  0.1448
10057TIP3    H251587   3.467   5.469  14.282 -0.0242  0.4340 -0.5887
10058TIP3   OH251588   0.920   2.648  16.772 -0.0653 -0.3686  0.0926
10058TIP3    H151589   0.996   2.593  16.790 -0.9933 -1.5166  0.6533
10058TIP3    H251590   0.901   2.691  16.855  0.9814  1.2899 -0.4724
10059TIP3   OH251591   4.981   5.322  12.152  0.2076 -0.3716 -0.0031
10059TIP3    H151592   4.971   5.251  12.214  1.6823 -0.3759  0.2571
10059TIP3    H251593   4.932   5.395  12.191 -0.8282 -1.0470  0.0001
10060TIP3   OH251594   5.306   4.782   2.293  0.5247  0.4222 -0.1150
10060TIP3    H151595   5.293   4.822   2.380  0.7868  0.7086 -0.2033
10060TIP3    H251596   5.218   4.759   2.264  0.5228 -0.6878  0.6913
10061TIP3   OH251597   5.019   4.359  13.264  0.3033  0.7443 -0.3426
10061TIP3    H151598   5.044   4.451  13.261 -1.1563  1.2122  0.5983
10061TIP3    H251599   4.931   4.359  13.301  0.0972 -1.0082 -0.7210
10062TIP3   OH251600   0.756   4.210   0.970 -0.8463  0.5984 -0.1862
10062TIP3    H151601   0.744   4.289   0.918 -0.0912  2.4169  2.2572
10062TIP3    H251602   0.673   4.199   1.017 -1.7079 -1.3157 -1.9871
10063TIP3   OH251603   2.568   6.670  13.144  0.2412 -0.4355 -0.3565
10063TIP3    H151604   2.609   6.713  13.220 -1.0752 -0.8531  0.6308
10063TIP3    H251605   2.474   6.684  13.156  0.0229  0.0213 -2.2697
10064TIP3   OH251606   6.136   6.728  14.269  0.2036  0.3668  0.0440
10064TIP3    H151607   6.137   6.812  14.316 -0.3510  0.5864 -0.3305
10064TIP3    H251608   6.204   6.738  14.203  0.9418  0.0817  0.7432
10065TIP3   OH251609   6.390   0.903   3.191 -0.1795 -0.2882 -0.1894
10065TIP3    H151610   6.449   0.904   3.267 -0.6067 -1.5784  0.1872
10065TIP3    H251611   6.440   0.948   3.122  0.9532 -0.7042  0.3276
10066TIP3   OH251612   4.306   4.361   2.254 -0.2862  0.0949  0.0233
10066TIP3    H151613   4.308   4.305   2.176  0.7357  1.7154 -1.1912
10066TIP3    H251614   4.262   4.309   2.320 -1.3635 -1.2768 -1.6950
10067TIP3   OH251615   2.905   5.696   3.337  0.0836  0.2171  0.2144
10067TIP3    H151616   2.975   5.760   3.329  1.5261 -1.5073 -2.6249
10067TIP3    H251617   2.948   5.611   3.326 -1.5932 -1.5200  4.5905
10068TIP3   OH251618   5.843   5.718   1.937 -0.2382  0.3044  0.1204
10068TIP3    H151619   5.857   5.656   2.009 -1.5952 -2.1565 -1.6107
10068TIP3    H251620   5.894   5.682   1.864 -1.3622  1.0103 -1.0494
10069TIP3   OH251621   1.101   1.708  12.516 -0.0278 -0.2245  0.3392
10069TIP3    H151622   1.006   1.721  12.515  0.1772  1.4377 -0.5621
10069TIP3    H251623   1.117   1.644  12.447 -0.7744 -3.3688  2.8465
10070TIP3   OH251624   4.892   4.665  15.037  0.1402  0.3471  0.0037
10070TIP3    H151625   4.822   4.711  14.990  1.7794  1.7286 -1.2287
10070TIP3    H251626   4.901   4.713  15.119  0.7252  1.2351 -0.5597
10071TIP3   OH251627   0.294   3.053  12.202  0.2956  0.0602  0.0852
10071TIP3    H151628   0.346   2.985  12.160  1.5014  1.4918 -0.8483
10071TIP3    H251629   0.204   3.021  12.197  0.8850 -1.7738  0.3449
10072TIP3   OH251630   3.024   4.353  16.625  0.9923  1.0065  0.1411
10072TIP3    H151631   3.090   4.422  16.637  0.4155  1.5416  0.2708
10072TIP3    H251632   3.006   4.354  16.531  1.5895  0.4584  0.0151
10073TIP3   OH251633   4.939   6.072   5.604  0.1021 -0.3589  0.3477
10073TIP3    H151634   4.906   6.139   5.663  0.2808  0.4847 -0.4845
10073TIP3    H251635   4.964   6.120   5.525  3.2002 -0.9253  0.8577
10074TIP3   OH251636   0.191   4.447   4.574  0.1420  0.1084  0.0926
10074TIP3    H151637   0.228   4.385   4.636 -1.1175  0.4483  1.2365
10074TIP3    H251638   0.117   4.401   4.535  1.3779 -0.3886 -1.7999
10075TIP3   OH251639   4.363   4.624   1.206  0.1252 -0.0780  0.0800
10075TIP3    H151640   4.423   4.566   1.252 -0.6379  0.4047  1.7510
10075TIP3    H251641   4.376   4.710   1.246 -1.3571  0.1200  0.2229
10076TIP3   OH251642   1.683   4.717   6.099 -0.5466  0.3056 -0.2984
10076TIP3    H151643   1.657   4.717   6.191 -2.3729 -0.3881 -0.7866
10076TIP3    H251644   1.758   4.658   6.095 -1.5440 -1.0552  0.4678
10077TIP3   OH251645   0.904   4.196  16.596  0.4506 -0.0099 -0.8213
10077TIP3    H151646   0.952   4.242  16.665 -0.3801 -0.1414 -0.1371
10077TIP3    H251647   0.971   4.176  16.529  0.9214  1.7406 -0.9200
10078TIP3   OH251648   4.807   4.090  11.814 -0.0759 -0.2146 -0.3750
10078TIP3    H151649   4.858   4.129  11.742 -1.2047  1.4387 -0.3475
10078TIP3    H251650   4.869   4.083  11.886  1.2418 -2.4510 -1.6075
10079TIP3   OH251651   6.392   0.917   5.787  0.1569 -0.5687  0.6569
10079TIP3    H151652   6.452   0.934   5.715  1.0457 -2.0684  1.0034
10079TIP3    H251653   6.437   0.950   5.864 -1.1219  1.7503  0.5018
10080TIP3   OH251654   2.388   4.380  11.310  0.1543 -0.1666 -0.1348
10080TIP3    H151655   2.463   4.338  11.267  0.1970  0.3480 -0.5715
10080TIP3    H251656   2.315   4.319  11.296  0.2895 -0.2506 -0.4759
10081TIP3   OH251657   1.886   6.276   1.922 -0.2228 -0.0233 -0.6892
10081TIP3    H151658   1.819   6.211   1.899 -0.6997  0.5316 -0.8903
10081TIP3    H251659   1.945   6.229   1.980 -0.6681 -0.5871 -0.6789
10082TIP3   OH251660   6.094   2.866   2.124  0.6226 -0.1336 -0.2970
10082TIP3    H151661   6.052   2.780   2.117  0.1383  0.1225 -0.5474
10082TIP3    H251662   6.187   2.846   2.132  0.6895 -0.6303 -1.9838
10083TIP3   OH251663   5.218   4.457   2.353  0.4666  0.0258  0.2267
10083TIP3    H151664   5.217   4.371   2.311  0.8646 -0.3038  0.8727
10083TIP3    H251665   5.295   4.454   2.410 -0.4437  0.2071  1.5010
10084TIP3   OH251666   5.945   1.143   5.928  0.3402  0.7337  0.1615
10084TIP3    H151667   6.040   1.135   5.936  0.6595  2.4648 -1.3205
10084TIP3    H251668   5.929   1.160   5.835 -1.2504  2.2973  0.6549
10085TIP3   OH251669   2.424   3.224   2.545  0.2944 -0.6290  0.4840
10085TIP3    H151670   2.352   3.243   2.606  1.9934  3.2601  1.5838
10085TIP3    H251671   2.476   3.157   2.589 -1.0009 -1.2779  1.0726
10086TIP3   OH251672   3.504   1.418  12.091  0.6966 -0.1436 -0.1027
10086TIP3    H151673   3.556   1.400  12.169  0.5378  0.3128  0.1127
10086TIP3    H251674   3.565   1.405  12.018  1.2880  0.9142  0.1707
10087TIP3   OH251675   0.274   0.516   2.763 -0.2483  0.3351  0.3916
10087TIP3    H151676   0.208   0.531   2.696  1.0058 -0.7990 -1.1961
10087TIP3    H251677   0.297   0.423   2.753  2.0551  0.8361  0.3565
10088TIP3   OH251678   5.431   4.226   0.899 -0.2472  0.4862  0.6223
10088TIP3    H151679   5.503   4.176   0.937 -0.3052 -0.2095 -0.1381
10088TIP3    H251680   5.381   4.161   0.849  0.3528  1.4962 -1.3893
10089TIP3   OH251681   5.123   0.377  15.878 -0.2283  0.1014 -0.7511
10089TIP3    H151682   5.184   0.354  15.807 -1.6461 -1.0612 -1.6525
10089TIP3    H251683   5.107   0.295  15.924 -1.6779  0.2153 -1.0031
10090TIP3   OH251684   4.150   0.798   5.139 -0.5273  0.7353 -0.3426
10090TIP3    H151685   4.098   0.855   5.194 -0.0658  0.9216 -0.0942
10090TIP3    H251686   4.227   0.776   5.192 -0.1551  0.7926 -0.8490
10091TIP3   OH251687   4.105   2.423   5.049  0.0072 -0.1456 -0.3112
10091TIP3    H151688   4.048   2.352   5.078  1.0083 -0.7002  0.3961
10091TIP3    H251689   4.063   2.503   5.082 -0.3896 -0.5367  0.1439
10092TIP3   OH251690   4.107   5.397  15.996 -0.1018  0.3069 -0.4321
10092TIP3    H151691   4.041   5.367  16.058 -0.2268 -0.8087 -1.0926
10092TIP3    H251692   4.059   5.413  15.915  0.2729  0.5065 -0.6185
10093TIP3   OH251693   0.591   6.320   1.944 -0.5608  0.0042 -0.3264
10093TIP3    H151694   0.513   6.332   1.889 -1.0022  0.3009  0.3648
10093TIP3    H251695   0.576   6.374   2.021 -0.4660 -1.2774  0.6307
10094TIP3   OH251696   3.749   4.881  12.303 -0.0841 -0.0763 -0.0230
10094TIP3    H151697   3.747   4.786  12.293 -0.0910  0.0507 -1.5477
10094TIP3    H251698   3.841   4.904  12.285 -0.0624  0.1958  0.4340
10095TIP3   OH251699   6.489   1.078  12.536 -0.2814  0.2144 -0.0060
10095TIP3    H151700   6.569   1.063  12.587 -1.4818 -1.5563  1.5141
10095TIP3    H251701   6.444   1.149  12.582  0.7695  1.8112 -1.3676
10096TIP3   OH251702   5.973   2.618   2.053  0.0813  0.2738 -0.1294
10096TIP3    H151703   5.993   2.600   1.961  0.2697  0.6819 -0.1696
10096TIP3    H251704   5.888   2.576   2.068  0.1155  0.0874 -0.4514
10097TIP3   OH251705   1.788   2.759  14.919 -0.3413 -0.8405  0.0903
10097TIP3    H151706   1.725   2.805  14.974  0.9274 -0.3264  1.1525
10097TIP3    H251707   1.791   2.809  14.838 -0.5862 -0.3059  0.4078
10098TIP3   OH251708   4.228   1.777  13.581 -0.5328  0.2828 -0.1889
10098TIP3    H151709   4.269   1.761  13.665  0.2733  0.2387 -0.5781
10098TIP3    H251710   4.138   1.804  13.602 -0.6737 -0.7753  0.6292
10099TIP3   OH251711   2.934   4.645  12.661 -0.1069  0.6432  0.2664
10099TIP3    H151712   3.007   4.703  12.682 -1.0381  2.1749 -0.5477
10099TIP3    H251713   2.857   4.688  12.698 -0.8645  0.0899 -0.6065
10100TIP3   OH251714   1.499   0.547   4.040  0.1898  0.3626  0.0626
10100TIP3    H151715   1.576   0.518   3.992  0.1780 -0.5893  0.5946
10100TIP3    H251716   1.533   0.606   4.107  0.3511  0.6193 -0.2386
10101TIP3   OH251717   1.880   4.679   1.064 -0.1783  0.1628 -0.2961
10101TIP3    H151718   1.844   4.767   1.053  1.6777  0.8892 -0.8916
10101TIP3    H251719   1.866   4.659   1.157 -0.6961  1.0363 -0.1745
10102TIP3   OH251720   1.053   0.792   4.033  0.0456 -0.0164  0.4571
10102TIP3    H151721   0.983   0.778   3.970 -0.3176 -0.2576  0.9116
10102TIP3    H251722   1.009   0.817   4.114  0.5906  2.6796  0.0071
10103TIP3   OH251723   1.542   1.440  13.325  0.2673 -0.3231 -0.1423
10103TIP3    H151724   1.484   1.413  13.396 -0.7488 -1.4491 -1.3567
10103TIP3    H251725   1.504   1.521  13.292  1.9741  1.4286  1.9554
10104TIP3   OH251726   2.576   3.014   5.971 -0.0085  0.2948 -0.3526
10104TIP3    H151727   2.671   3.012   5.978  0.1164  1.9969 -1.0657
10104TIP3    H251728   2.547   2.932   6.011  1.7305 -0.1176  0.1398
10105TIP3   OH251729   5.502   2.888  12.003 -0.3323  0.5682 -0.1133
10105TIP3    H151730   5.588   2.913  11.969 -0.0727 -1.4875 -1.1421
10105TIP3    H251731   5.456   2.851  11.928 -1.9644  1.2099  0.5252
10106TIP3   OH251732   5.065   3.449   2.200 -0.0703 -0.5555 -0.4573
10106TIP3    H151733   5.073   3.522   2.261 -1.2875  0.2476 -1.1901
10106TIP3    H251734   5.137   3.461   2.138 -0.4574  0.2366 -0.7651
10107TIP3   OH251735   6.660   2.648   5.319  0.2135 -0.7315 -0.1487
10107TIP3    H151736   6.668   2.555   5.339 -1.1759 -0.7392  0.5083
10107TIP3    H251737   6.633   2.650   5.227 -0.2021 -1.0140 -0.0395
10108TIP3   OH251738   3.322   2.095   3.360 -0.4032 -0.1667  0.2760
10108TIP3    H151739   3.297   2.070   3.270  0.4868  0.2110 -0.0826
10108TIP3    H251740   3.343   2.188   3.353 -2.1066  0.3396  1.2677
10109TIP3   OH251741   5.184   1.165   4.113 -0.4131  0.2493 -0.3308
10109TIP3    H151742   5.191   1.194   4.204 -2.4276  0.7943 -0.2971
10109TIP3    H251743   5.275   1.159   4.082  0.3510 -0.8936  1.9746
10110TIP3   OH251744   0.332   4.071   2.774 -0.1846  0.8186  0.1101
10110TIP3    H151745   0.265   4.024   2.824  0.6834  1.1889  1.6592
10110TIP3    H251746   0.355   4.146   2.828 -0.8385  2.5529 -1.8962
10111TIP3   OH251747   5.043   5.124   4.011 -0.1599  0.4116 -0.0412
10111TIP3    H151748   5.069   5.037   3.978  0.3584  0.6619 -0.3106
10111TIP3    H251749   5.047   5.116   4.106  0.9622  0.4464 -0.0735
10112TIP3   OH251750   2.911   0.501   5.273  0.0653 -0.0170 -0.5676
10112TIP3    H151751   2.947   0.415   5.292  0.5681 -0.3674 -2.8572
10112TIP3    H251752   2.964   0.534   5.201  0.4221  2.5960  0.7601
10113TIP3   OH251753   2.435   1.477  13.307 -0.0939 -0.0192 -0.2059
10113TIP3    H151754   2.500   1.504  13.372 -0.8448 -1.1203  1.0632
10113TIP3    H251755   2.396   1.559  13.277  0.7443  0.5532  0.2233
10114TIP3   OH251756   3.723   2.283   1.479 -0.1142  0.0152 -0.8313
10114TIP3    H151757   3.789   2.217   1.458  0.1382  0.6834 -2.2017
10114TIP3    H251758   3.641   2.233   1.486  0.1864 -0.5327 -1.1641
10115TIP3   OH251759   4.898   1.602   1.591  0.2942  0.2154  0.2572
10115TIP3    H151760   4.874   1.675   1.533  0.3471 -0.0973 -0.1688
10115TIP3    H251761   4.894   1.638   1.679 -1.1578  0.3487  0.1635
10116TIP3   OH251762   3.112   0.711  12.456 -0.0944  0.2256 -0.3968
10116TIP3    H151763   3.113   0.773  12.529  0.7086  2.1930 -1.9903
10116TIP3    H251764   3.019   0.688  12.445 -0.5426  1.9268 -0.3898
10117TIP3   OH251765   2.096   4.963  12.077 -0.1402  0.2874  0.1566
10117TIP3    H151766   2.057   4.901  12.016  0.2621 -0.7464  0.9131
10117TIP3    H251767   2.042   4.956  12.156 -0.3045  1.1745  0.1341
10118TIP3   OH251768   6.401   1.220   1.697 -0.0692  0.2183 -0.3166
10118TIP3    H151769   6.449   1.168   1.632 -1.2406  0.0310 -1.0633
10118TIP3    H251770   6.358   1.155   1.752 -0.9805  0.3565 -0.8295
10119TIP3   OH251771   0.018   2.879  16.328  0.4474 -0.0648 -0.0966
10119TIP3    H151772   0.052   2.844  16.409  2.5334 -0.0532 -0.9085
10119TIP3    H251773   0.087   2.937  16.295  0.0497 -0.7178 -2.2888
10120TIP3   OH251774   2.884   3.681   2.776 -0.7720  0.8205  0.0227
10120TIP3    H151775   2.817   3.614   2.787 -1.1436  1.2004  0.1425
10120TIP3    H251776   2.869   3.741   2.849  1.5803 -0.6262  1.8364
10121TIP3   OH251777   0.694   5.418  12.540  0.1998  0.2016 -0.6984
10121TIP3    H151778   0.786   5.430  12.563 -0.1464 -0.3451  1.1608
10121TIP3    H251779   0.688   5.445  12.449  2.2710 -0.1173 -0.9711
10122TIP3   OH251780   2.067   0.139   2.339  0.4674  0.3277 -0.2884
10122TIP3    H151781   2.074   0.091   2.257  0.6401 -0.3045  0.0919
10122TIP3    H251782   1.981   0.180   2.336  0.6426  0.6626 -0.9706
10123TIP3   OH251783   2.378   0.247  14.559  0.1587 -0.0042 -0.1854
10123TIP3    H151784   2.342   0.308  14.624  0.5395 -0.8411  0.8265
10123TIP3    H251785   2.453   0.294  14.521 -1.0411  1.1551 -1.2515
10124TIP3   OH251786   5.982   4.734  15.668 -0.1784 -0.0504 -0.0436
10124TIP3    H151787   5.917   4.723  15.737 -0.5734 -0.9014 -0.5385
10124TIP3    H251788   6.047   4.793  15.706  0.8035 -2.2190  1.9517
10125TIP3   OH251789   1.936   1.219  13.318 -0.1370 -0.2543  0.1781
10125TIP3    H151790   1.896   1.134  13.333 -1.1618  0.1397 -0.2274
10125TIP3    H251791   1.982   1.210  13.235  0.1099 -0.5291  0.3434
10126TIP3   OH251792   3.212   0.671  15.353  0.5228  0.1852  0.0175
10126TIP3    H151793   3.246   0.582  15.339 -1.7794 -0.6652 -0.6381
10126TIP3    H251794   3.231   0.717  15.272  1.8211  0.3728  0.3964
10127TIP3   OH251795   0.192   1.729  15.925  0.1812  0.2311  0.2684
10127TIP3    H151796   0.211   1.791  15.854  0.4913  2.6732  2.3527
10127TIP3    H251797   0.110   1.760  15.963  0.5499 -0.3753  1.6267
10128TIP3   OH251798   5.667   2.136   4.544  0.1289  0.2960  0.1498
10128TIP3    H151799   5.737   2.113   4.482  0.1467 -0.4638  0.4404
10128TIP3    H251800   5.640   2.224   4.518 -1.3166 -0.7649 -2.3202
10129TIP3   OH251801   6.032   2.893  14.703  0.2423  0.0358  0.1528
10129TIP3    H151802   5.974   2.826  14.666 -1.5574  1.2277  0.6936
10129TIP3    H251803   6.086   2.922  14.630  1.4767 -2.3532  0.0204
10130TIP3   OH251804   3.822   2.584   1.227 -0.3744 -0.0068  0.2252
10130TIP3    H151805   3.834   2.579   1.322  0.1858 -0.0890  0.1581
10130TIP3    H251806   3.740   2.538   1.210 -0.2467 -0.3902  0.6242
10131TIP3   OH251807   6.383   1.608   4.805  0.2598  0.4195 -0.1571
10131TIP3    H151808   6.398   1.636   4.896  1.8565 -0.0944 -0.2205
10131TIP3    H251809   6.417   1.681   4.752 -1.4161  1.0830 -0.3885
10132TIP3   OH251810   5.912   1.802   0.857  0.2759  0.2764  0.5054
10132TIP3    H151811   5.889   1.895   0.857  0.0117  0.2642 -1.4384
10132TIP3    H251812   6.002   1.800   0.825  0.4168 -0.1240  0.9162
10133TIP3   OH251813   2.234   2.469   2.398  0.1059 -0.6049 -0.1497
10133TIP3    H151814   2.183   2.523   2.338 -1.8993  2.0911  3.5986
10133TIP3    H251815   2.206   2.379   2.380 -0.2557  0.0169 -3.1851
10134TIP3   OH251816   0.485   3.767   1.415  0.3160 -0.2843  0.3924
10134TIP3    H151817   0.392   3.780   1.436  0.7372  0.1082  2.1807
10134TIP3    H251818   0.517   3.710   1.485  2.1101  2.1065  1.6735
10135TIP3   OH251819   2.151   6.679  12.850 -0.1498 -0.2184 -0.6013
10135TIP3    H151820   2.194   6.713  12.929 -2.1833 -0.5242  0.7127
10135TIP3    H251821   2.189   6.593  12.836 -0.4197 -0.5431  0.6096
10136TIP3   OH251822   5.079   2.042   5.735  0.1394 -0.7081  0.0391
10136TIP3    H151823   5.063   1.953   5.706  1.2859 -1.2884  1.0879
10136TIP3    H251824   5.109   2.088   5.657 -3.2272 -0.3889 -1.2411
10137TIP3   OH251825   0.159   6.611  16.975 -0.0278  0.2240  0.3917
10137TIP3    H151826   0.063   6.615  16.970  0.0077  2.0063  0.4536
10137TIP3    H251827   0.187   6.703  16.971  1.8351 -0.3392 -2.7805
10138TIP3   OH251828   5.519   6.472  11.308 -0.0938  0.0141 -0.1902
10138TIP3    H151829   5.511   6.481  11.403 -2.6163 -0.5881 -0.2811
10138TIP3    H251830   5.554   6.556  11.278 -1.6249  1.1627  1.0794
10139TIP3   OH251831   4.370   4.364  16.277 -0.3521  0.0490 -0.1426
10139TIP3    H151832   4.408   4.384  16.192  0.7000 -0.0319  0.2934
10139TIP3    H251833   4.445   4.345  16.334 -1.0719 -0.8517  0.5593
10140TIP3   OH251834   1.261   1.293   1.575 -0.4757 -0.4137  0.2930
10140TIP3    H151835   1.268   1.377   1.620 -0.3245 -0.7508  0.8980
10140TIP3    H251836   1.351   1.261   1.568 -0.2744  0.4040 -1.7577
10141TIP3   OH251837   0.702   1.184  13.664  0.3957 -0.4408 -0.4052
10141TIP3    H151838   0.636   1.233  13.614 -1.7434 -1.7319  1.0221
10141TIP3    H251839   0.748   1.132  13.597  1.1056  1.6404 -1.6268
10142TIP3   OH251840   2.867   3.074   1.520  0.0326  0.0830  0.2694
10142TIP3    H151841   2.925   3.133   1.568 -0.1124 -0.6286  1.3706
10142TIP3    H251842   2.781   3.117   1.523  0.0851  0.1789  0.4017
10143TIP3   OH251843   2.025   3.035   1.640 -0.1800  0.1084 -0.7316
10143TIP3    H151844   2.051   3.068   1.554  0.2651  1.1574 -0.2086
10143TIP3    H251845   2.106   3.002   1.679 -0.0504  1.1598 -0.0681
10144TIP3   OH251846   1.682   0.586   4.422 -0.0203 -0.0293 -0.7491
10144TIP3    H151847   1.756   0.631   4.462 -1.4782  1.7360  0.0818
10144TIP3    H251848   1.671   0.629   4.337 -1.1152  0.9335 -0.1542
10145TIP3   OH251849   0.940   3.670  14.428 -0.3437  0.3403 -0.2513
10145TIP3    H151850   0.926   3.714  14.511 -0.1975  0.3149 -0.2116
10145TIP3    H251851   1.034   3.676  14.413 -0.5372  1.5871 -1.1151
10146TIP3   OH251852   1.244   5.494   5.594  0.2278  0.5046  0.4254
10146TIP3    H151853   1.261   5.541   5.675 -1.2298  0.8240  0.5778
10146TIP3    H251854   1.222   5.562   5.531 -1.1729  0.1010  0.4515
10147TIP3   OH251855   3.614   1.878   2.879 -0.7921  0.5145 -0.4782
10147TIP3    H151856   3.553   1.845   2.946 -1.2404  0.3759 -0.9485
10147TIP3    H251857   3.698   1.880   2.923 -0.4806 -2.4792 -0.7398
10148TIP3   OH251858   4.280   2.847  12.351 -0.0939  0.7610 -0.1456
10148TIP3    H151859   4.253   2.755  12.357  1.2666  0.3494 -0.0456
10148TIP3    H251860   4.201   2.893  12.322 -1.5799 -0.0162  2.3695
10149TIP3   OH251861   1.913   4.326  13.974  0.5156 -0.3576 -0.8255
10149TIP3    H151862   1.870   4.411  13.981  0.8817 -0.2688  0.6246
10149TIP3    H251863   1.908   4.289  14.062  1.5018 -1.2685 -1.1279
10150TIP3   OH251864   6.411   0.726   5.593  0.5461 -0.0225  0.1082
10150TIP3    H151865   6.365   0.779   5.658  1.0685 -0.1902  0.6337
10150TIP3    H251866   6.477   0.679   5.644 -0.5538 -1.9756 -0.1318
10151TIP3   OH251867   5.665   0.317   0.324 -0.0190 -0.2404  0.0490
10151TIP3    H151868   5.571   0.320   0.336 -0.0100  2.3349  0.1298
10151TIP3    H251869   5.683   0.382   0.256  1.6564 -1.0508 -0.3543
10152TIP3   OH251870   6.028   3.185  12.274  0.0534 -0.4053 -0.0802
10152TIP3    H151871   5.954   3.126  12.286  0.3128 -0.7520 -0.1733
10152TIP3    H251872   6.014   3.222  12.186 -0.7224  0.5505  0.4320
10153TIP3   OH251873   4.652   0.234   0.754  0.3644  0.3713  0.3577
10153TIP3    H151874   4.638   0.298   0.684  1.4410 -0.2097 -0.4202
10153TIP3    H251875   4.736   0.259   0.793  0.3628 -0.0344  0.6335
10154TIP3   OH251876   1.166   4.241   0.500 -0.2942  0.5122  0.3609
10154TIP3    H151877   1.104   4.297   0.454 -1.1802 -0.8234 -0.1666
10154TIP3    H251878   1.157   4.156   0.456  0.3272 -0.2655  1.6910
10155TIP3   OH251879   3.961   1.360   0.799 -0.0216 -0.0703 -0.3520
10155TIP3    H151880   4.027   1.340   0.865 -0.4343 -3.4121 -0.7966
10155TIP3    H251881   3.878   1.346   0.843 -0.5073  2.5916 -0.2480
10156TIP3   OH251882   3.162   5.241   3.726 -0.4753  0.2876 -0.5865
10156TIP3    H151883   3.237   5.229   3.667  0.0992  3.4466 -0.6800
10156TIP3    H251884   3.088   5.259   3.667 -0.4401  0.9993 -0.4216
10157TIP3   OH251885   1.380   6.312   5.248 -0.4671  0.4251 -0.1942
10157TIP3    H151886   1.469   6.290   5.219 -0.8967 -1.0377 -0.5036
10157TIP3    H251887   1.344   6.366   5.177 -1.0453 -2.0212 -1.9061
10158TIP3   OH251888   1.064   6.333   5.895 -0.0640  0.4765 -0.2942
10158TIP3    H151889   1.146   6.335   5.944 -0.0036 -1.8556 -0.1874
10158TIP3    H251890   1.091   6.335   5.803 -0.0654  2.3914 -0.2937
10159TIP3   OH251891   1.021   6.078   2.569 -0.4001  0.6796 -0.4807
10159TIP3    H151892   0.963   6.002   2.566 -0.3901  0.5980  0.7547
10159TIP3    H251893   1.109   6.040   2.566 -0.3837  0.8125 -2.5279
10160TIP3   OH251894   4.639   3.669  13.698 -0.3840  1.0176  0.5827
10160TIP3    H151895   4.620   3.577  13.712 -0.4711  1.0194  0.4708
10160TIP3    H251896   4.700   3.671  13.624  1.0373  0.9182  1.6978
10161TIP3   OH251897   2.946   5.748   3.857 -0.3071  0.1178  0.1958
10161TIP3    H151898   2.866   5.730   3.907 -0.4526 -0.7837 -0.3432
10161TIP3    H251899   2.915   5.778   3.772 -0.0559  1.3755  0.5300
10162TIP3   OH251900   1.773   2.008   1.101  0.1616 -0.0339 -0.0584
10162TIP3    H151901   1.802   2.082   1.048  1.3551 -0.8540 -0.6143
10162TIP3    H251902   1.781   2.039   1.191 -0.3190  0.8414 -0.3124
10163TIP3   OH251903   3.917   5.320  16.562  0.7381 -0.2961  0.0960
10163TIP3    H151904   3.859   5.382  16.517 -0.0418  1.0608  2.7310
10163TIP3    H251905   3.858   5.267  16.616  1.5814 -2.1595 -0.7055
10164TIP3   OH251906   4.010   5.797   4.123  0.3121 -0.4777  0.7356
10164TIP3    H151907   4.034   5.705   4.110  1.9552 -0.1061  0.9330
10164TIP3    H251908   3.971   5.798   4.211  0.3437 -0.9756  0.7634
10165TIP3   OH251909   6.523   5.531   6.671  0.2130 -0.0413 -0.1806
10165TIP3    H151910   6.541   5.454   6.724  0.7934  0.2624  0.0742
10165TIP3    H251911   6.567   5.514   6.588  1.9302  0.7820  0.5071
10166TIP3   OH251912   5.488   6.418  11.972  0.1284 -0.5269  0.0986
10166TIP3    H151913   5.582   6.431  11.980  0.1688 -0.9793  0.3992
10166TIP3    H251914   5.450   6.475  12.039  0.1873 -0.3191 -0.0450
10167TIP3   OH251915   1.433   4.470   5.553  0.4077  0.2068 -0.5455
10167TIP3    H151916   1.500   4.470   5.485  0.8071  2.4041 -0.2265
10167TIP3    H251917   1.482   4.487   5.634 -0.2448 -0.8157  0.0814
10168TIP3   OH251918   4.490   4.871   0.027 -0.4742  0.1064  0.0541
10168TIP3    H151919   4.520   4.787  -0.009  1.7329  0.5955  0.6029
10168TIP3    H251920   4.451   4.916  -0.048  0.6524 -0.3974 -0.8685
10169TIP3   OH251921   5.028   1.249   5.767 -0.5262 -0.5124 -0.0304
10169TIP3    H151922   5.016   1.335   5.728 -2.7130 -1.1996 -1.0357
10169TIP3    H251923   4.955   1.197   5.733 -1.2134 -1.8479  3.0898
10170TIP3   OH251924   3.353   4.392  15.078 -0.4006  0.0682  0.7847
10170TIP3    H151925   3.298   4.464  15.110 -2.0344  0.0767 -1.7653
10170TIP3    H251926   3.432   4.435  15.046 -0.4910  0.4790  1.0962
10171TIP3   OH251927   4.518   3.134  11.791  0.0446 -0.3785 -0.2453
10171TIP3    H151928   4.491   3.189  11.718  0.3197  0.0071 -0.0586
10171TIP3    H251929   4.546   3.196  11.859 -1.0415 -0.6990  0.5243
10172TIP3   OH251930   4.426   4.895  13.326  0.5653  0.5916 -0.2550
10172TIP3    H151931   4.458   4.806  13.340  1.4489  0.8254 -0.7214
10172TIP3    H251932   4.341   4.884  13.285  0.8695 -0.0449 -0.7346
10173TIP3   OH251933   1.830   4.288   3.705 -0.0528 -0.2814  0.0410
10173TIP3    H151934   1.911   4.268   3.752 -1.4638 -2.1284  1.8667
10173TIP3    H251935   1.852   4.275   3.612  1.8061 -0.3939  0.4654
10174TIP3   OH251936   0.797   5.329  14.412 -0.4826 -0.1556  0.4743
10174TIP3    H151937   0.838   5.243  14.405  0.5744  0.3423  0.3003
10174TIP3    H251938   0.780   5.355  14.321  0.1148  0.2278  0.4630
10175TIP3   OH251939   2.209   0.989   0.188 -0.6949  0.1669 -0.4293
10175TIP3    H151940   2.294   1.015   0.152 -0.1387 -2.2539 -1.0237
10175TIP3    H251941   2.224   0.903   0.226 -2.2188  0.9212  2.1497
10176TIP3   OH251942   1.029   4.219   4.077 -1.0526  0.2011  0.2717
10176TIP3    H151943   1.112   4.203   4.123 -0.3237  0.5598 -0.8882
10176TIP3    H251944   1.029   4.158   4.004 -1.3021  0.9431 -0.3672
10177TIP3   OH251945   3.919   5.706   2.931 -0.3657 -0.2306 -0.5930
10177TIP3    H151946   3.848   5.713   2.868  0.5414 -1.6932 -1.8517
10177TIP3    H251947   3.903   5.623   2.977 -0.8028  0.6297  0.8650
10178TIP3   OH251948   1.167   4.265   1.041  0.2652 -0.2345  0.1680
10178TIP3    H151949   1.119   4.275   0.959 -3.4892 -0.0600  2.1563
10178TIP3    H251950   1.111   4.208   1.094  0.8172  2.2325  3.7301
10179TIP3   OH251951   1.370   2.438   5.456 -1.1333  0.1924  0.0719
10179TIP3    H151952   1.290   2.432   5.405 -0.9238 -1.5521 -0.0958
10179TIP3    H251953   1.345   2.408   5.544 -1.0345  1.2611  0.4816
10180TIP3   OH251954   5.858   4.661  17.065  0.0099 -0.8895  0.1184
10180TIP3    H151955   5.934   4.656  17.122 -0.9739  1.3759  1.7662
10180TIP3    H251956   5.784   4.643  17.123 -0.9167 -0.1621 -0.8112
10181TIP3   OH251957   5.932   3.152  15.275 -0.2641  0.4355  0.1840
10181TIP3    H151958   5.995   3.091  15.314 -1.7650 -1.0550  0.3809
10181TIP3    H251959   5.902   3.206  15.348 -0.6848 -0.2096  0.4987
10182TIP3   OH251960   4.820   4.158  14.758 -0.4004  0.7821  0.4198
10182TIP3    H151961   4.905   4.141  14.717 -0.7113 -2.2162  0.8208
10182TIP3    H251962   4.831   4.244  14.800  0.8552  2.6662 -3.3244
10183TIP3   OH251963   3.125   2.423  13.884 -0.3064 -0.0294 -0.2210
10183TIP3    H151964   3.143   2.505  13.839  1.0056 -0.0394  0.2390
10183TIP3    H251965   3.045   2.390  13.843 -0.4026  1.0779 -0.9585
10184TIP3   OH251966   4.445   6.381  13.537 -0.5576 -0.0893  0.0237
10184TIP3    H151967   4.358   6.379  13.577 -0.6877 -1.2274 -0.2828
10184TIP3    H251968   4.472   6.473  13.543 -1.6481  0.2234  0.3923
10185TIP3   OH251969   5.067   2.618  15.302 -0.6025  0.0245  0.7287
10185TIP3    H151970   5.063   2.692  15.364 -1.0915  0.9528 -0.3798
10185TIP3    H251971   4.985   2.623  15.253 -0.5455 -1.1441  0.4854
10186TIP3   OH251972   4.520   2.335   4.602 -0.0773  0.4598 -0.1781
10186TIP3    H151973   4.496   2.360   4.512 -1.7593  2.9416  0.8658
10186TIP3    H251974   4.488   2.245   4.610 -2.2767  1.0504 -1.3235
10187TIP3   OH251975   1.007   1.395   5.172  0.1004  0.5020 -0.6202
10187TIP3    H151976   1.013   1.490   5.185 -0.0780  0.7499 -2.1139
10187TIP3    H251977   1.050   1.380   5.088  1.5398 -0.9773  0.3296
10188TIP3   OH251978   2.850   3.903  12.238 -0.5370  0.3617  0.7838
10188TIP3    H151979   2.835   3.840  12.167  2.1627 -0.0780  0.4815
10188TIP3    H251980   2.763   3.921  12.273 -1.8238 -0.4996 -1.7033
10189TIP3   OH251981   0.685   6.384   0.034 -0.9074 -0.0942 -0.0341
10189TIP3    H151982   0.761   6.427  -0.005 -0.0220 -2.0499 -0.6145
10189TIP3    H251983   0.622   6.454   0.048  1.4490  1.8488  1.6875
10190TIP3   OH251984   1.930   4.514   3.183 -0.0735 -0.2123 -0.4070
10190TIP3    H151985   2.024   4.526   3.193 -0.1676  0.4009 -0.2318
10190TIP3    H251986   1.894   4.534   3.270 -0.3331 -0.8533 -0.3524
10191TIP3   OH251987   2.631   5.137   3.498  0.1412 -0.4774  0.2841
10191TIP3    H151988   2.657   5.226   3.476 -1.3935 -0.0334  0.1607
10191TIP3    H251989   2.712   5.095   3.529  0.8643  0.9591  0.4071
10192TIP3   OH251990   2.239   4.243   3.097  0.2984 -0.2391  0.2908
10192TIP3    H151991   2.270   4.314   3.153 -0.5449 -0.1289  0.6371
10192TIP3    H251992   2.171   4.283   3.043 -0.4430 -0.8527  0.7401
10193TIP3   OH251993   3.865   4.609   1.600 -0.2509 -0.6615  0.4178
10193TIP3    H151994   3.874   4.533   1.657  1.9206 -1.8597 -1.3833
10193TIP3    H251995   3.940   4.665   1.623  0.8087 -1.2835 -1.3484
10194TIP3   OH251996   6.276   2.533  15.055  0.4704 -0.5777 -0.0465
10194TIP3    H151997   6.310   2.494  15.135 -0.5879 -2.1116 -0.3103
10194TIP3    H251998   6.183   2.512  15.055 -0.2458  2.2069 -0.1063
10195TIP3   OH251999   3.684   6.570   1.783 -0.0341  0.2027  0.6835
10195TIP3    H152000   3.745   6.533   1.847  0.1730  1.4522  1.2395
10195TIP3    H252001   3.708   6.528   1.700  1.5793  0.6342  0.8946
10196TIP3   OH252002   2.746   0.266  10.703 -0.4674 -0.0526  0.0231
10196TIP3    H152003   2.749   0.362  10.706 -0.2633 -0.0828  1.7491
10196TIP3    H252004   2.830   0.238  10.738 -0.8802 -0.8654  0.3894
10197TIP3   OH252005   1.591   4.288   6.101  0.4850  0.4384  0.1526
10197TIP3    H152006   1.667   4.294   6.159  0.7068  0.1278 -0.1043
10197TIP3    H252007   1.531   4.355   6.134  0.7229  0.4493  0.5723
10198TIP3   OH252008   2.816   1.248  15.193  0.0093 -0.4206  0.3332
10198TIP3    H152009   2.866   1.307  15.250 -1.1517  1.2003 -0.2620
10198TIP3    H252010   2.870   1.170  15.187  0.8495 -0.0756  2.4709
10199TIP3   OH252011   5.590   5.896  13.408  0.0784 -0.1586 -0.1878
10199TIP3    H152012   5.559   5.951  13.336  0.5447 -0.1105 -0.3549
10199TIP3    H252013   5.664   5.945  13.446  2.0844 -1.7110 -1.8379
10200TIP3   OH252014   6.678   6.043  15.215  0.1696  0.0825 -0.1270
10200TIP3    H152015   6.601   6.099  15.226  0.4434  0.7670 -1.4074
10200TIP3    H252016   6.645   5.954  15.223 -0.4367  0.3976  1.0715
10201TIP3   OH252017   3.879   4.362   1.763  0.2951 -0.2483  0.1503
10201TIP3    H152018   3.934   4.288   1.789 -0.1541 -0.6246  0.0459
10201TIP3    H252019   3.791   4.338   1.793  0.2242  0.4519  0.5280
10202TIP3   OH252020   1.373   0.101   4.355 -0.2951 -0.0197 -0.1018
10202TIP3    H152021   1.366   0.022   4.301 -3.1308 -0.0975  0.2572
10202TIP3    H252022   1.399   0.170   4.294 -0.3271 -0.7299 -0.9256
10203TIP3   OH252023   6.375   4.875  16.842 -0.7770 -0.0237 -0.6003
10203TIP3    H152024   6.281   4.864  16.857 -0.4850 -0.3198  1.1891
10203TIP3    H252025   6.403   4.793  16.801 -1.3184  0.1498 -1.3367
10204TIP3   OH252026   3.738   1.184   0.803 -0.5116 -0.3178  0.3929
10204TIP3    H152027   3.759   1.152   0.715 -2.6114  0.4874 -0.4913
10204TIP3    H252028   3.761   1.113   0.862  0.0020 -1.2712 -0.9279
10205TIP3   OH252029   2.989   0.011   0.525 -0.2807  0.2738  0.1927
10205TIP3    H152030   3.042   0.075   0.477  0.5091  0.0405  0.7496
10205TIP3    H252031   2.978   0.048   0.612 -0.3306 -0.0678  0.3350
10206TIP3   OH252032   1.629   6.737   0.391  0.2534 -0.0428 -0.7236
10206TIP3    H152033   1.609   6.667   0.330  0.5021  1.6636 -2.8729
10206TIP3    H252034   1.564   6.728   0.460 -0.8310 -1.3067 -1.8667
10207TIP3   OH252035   3.186   2.005   5.753 -0.2468 -0.0361 -0.0062
10207TIP3    H152036   3.255   2.042   5.809  0.3218 -0.3956 -0.4569
10207TIP3    H252037   3.222   2.010   5.665 -0.0704 -1.7856 -0.0746
10208TIP3   OH252038   1.480   2.039   3.163  0.0946  0.5408 -0.1124
10208TIP3    H152039   1.494   2.103   3.233  2.3185  0.0854 -0.0607
10208TIP3    H252040   1.552   2.054   3.102  0.7515 -1.9516 -0.0470
10209TIP3   OH252041   3.024   5.861  14.931 -0.3050  0.0342  0.2609
10209TIP3    H152042   3.039   5.857  15.026 -0.6825 -0.1549  0.3131
10209TIP3    H252043   3.088   5.800  14.894 -0.9127 -0.7570  0.4814
10210TIP3   OH252044   4.843   1.756  12.399  0.5907 -0.2964 -0.1881
10210TIP3    H152045   4.835   1.843  12.439  1.8131 -0.4206  0.3731
10210TIP3    H252046   4.910   1.712  12.452 -0.1752 -1.6680 -0.3203
10211TIP3   OH252047   4.295   2.374  16.227 -0.2792 -0.5235 -0.1902
10211TIP3    H152048   4.240   2.384  16.305 -1.3125  1.4646 -1.0798
10211TIP3    H252049   4.333   2.287  16.235 -2.0263 -1.2159  1.4662
10212TIP3   OH252050   5.692   1.560   3.401  0.4786 -0.5832  0.5764
10212TIP3    H152051   5.727   1.643   3.432  1.5175 -0.5770 -0.5377
10212TIP3    H252052   5.619   1.540   3.461  0.5745  0.8319  1.1901
10213TIP3   OH252053   4.964   4.244  14.368 -0.2161  0.4055 -0.0586
10213TIP3    H152054   4.881   4.235  14.415 -0.0266 -0.8370  0.0536
10213TIP3    H252055   4.991   4.155  14.349  1.0531  0.8042 -0.1941
10214TIP3   OH252056   3.051   1.702   2.607  0.6942 -0.9478 -0.6407
10214TIP3    H152057   3.142   1.727   2.590  0.3787  0.2954 -0.6000
10214TIP3    H252058   3.002   1.742   2.535  0.0101 -0.3665  0.1352
10215TIP3   OH252059   6.498   2.704  13.950 -0.3765  0.4440  0.2080
10215TIP3    H152060   6.590   2.679  13.940 -0.1259  1.8163 -1.4390
10215TIP3    H252061   6.499   2.774  14.016  0.1754  2.2303 -1.5936
10216TIP3   OH252062   4.020   2.168   1.815  0.2169  0.6853 -0.3736
10216TIP3    H152063   4.043   2.165   1.722  0.0321 -0.9019 -0.3979
10216TIP3    H252064   3.946   2.228   1.820  1.0788  1.8432 -1.0371
10217TIP3   OH252065   2.819   3.327  11.421 -0.0439 -0.4170  0.2233
10217TIP3    H152066   2.889   3.290  11.475  0.7052  0.0857 -0.3798
10217TIP3    H252067   2.798   3.410  11.464 -0.0081 -0.3922  0.1927
10218TIP3   OH252068   5.526   5.576  13.709 -0.2084  0.2433  0.1121
10218TIP3    H152069   5.493   5.569  13.799 -2.4172 -2.1960 -0.7588
10218TIP3    H252070   5.535   5.485  13.680 -0.5459  0.9657 -2.4675
10219TIP3   OH252071   5.305   3.596   3.784 -0.5192  0.7161 -0.7759
10219TIP3    H152072   5.381   3.638   3.743  0.5434 -0.2234  0.1802
10219TIP3    H252073   5.320   3.503   3.770 -1.4806  0.5219 -0.5216
10220TIP3   OH252074   4.661   1.080  13.168 -0.4807  0.9567  0.4070
10220TIP3    H152075   4.670   1.175  13.162 -0.3260  0.9967  1.1815
10220TIP3    H252076   4.647   1.052  13.077  2.3421  1.4092 -0.2448
10221TIP3   OH252077   6.015   5.667  12.526  0.0060 -0.3391 -0.4882
10221TIP3    H152078   6.063   5.616  12.591 -0.2559  1.2609  1.0378
10221TIP3    H252079   6.083   5.715  12.478  0.1404 -0.8943 -0.8687
10222TIP3   OH252080   2.892   1.654  13.514 -0.8801  0.2107  0.0209
10222TIP3    H152081   2.979   1.673  13.548 -0.8367 -0.8696  0.5640
10222TIP3    H252082   2.833   1.682  13.583 -1.1158  2.5645 -1.0339
10223TIP3   OH252083   3.330   6.173   2.226 -0.8263 -0.6679  0.0386
10223TIP3    H152084   3.367   6.218   2.149  0.6431 -0.2328  0.9538
10223TIP3    H252085   3.325   6.082   2.200 -0.7933 -0.4555 -0.7439
10224TIP3   OH252086   3.697   3.708   1.857  0.5037 -0.4535  0.2929
10224TIP3    H152087   3.634   3.698   1.928 -1.5456  0.6579 -1.2652
10224TIP3    H252088   3.754   3.631   1.864  0.4436 -0.3356  3.1392
10225TIP3   OH252089   1.137   1.266   2.323  0.3061  0.5958  0.1003
10225TIP3    H152090   1.105   1.283   2.412  0.6911 -0.3368  0.4241
10225TIP3    H252091   1.149   1.171   2.319  0.6143  0.6625 -0.8442
10226TIP3   OH252092   0.182   6.189  12.651  0.3501 -0.2960 -0.4011
10226TIP3    H152093   0.162   6.095  12.650 -0.0968 -0.2228  0.8126
10226TIP3    H252094   0.260   6.196  12.706 -1.0355  0.2856  1.5658
10227TIP3   OH252095   0.970   1.465  15.983  0.0180 -0.2234  0.6721
10227TIP3    H152096   0.976   1.540  16.042  0.3811 -0.0912  0.4682
10227TIP3    H252097   1.033   1.483  15.913 -0.8169 -0.1042 -0.0681
10228TIP3   OH252098   5.369   0.972  13.240 -0.4363  0.3980 -0.0534
10228TIP3    H152099   5.331   0.886  13.258 -0.4320  0.5203  0.5326
10228TIP3    H252100   5.296   1.024  13.207 -0.4678  0.2154 -0.2776
10229TIP3   OH252101   1.660   3.545  11.409  0.5628  0.5238  0.0996
10229TIP3    H152102   1.721   3.471  11.410  0.8149  0.7457  1.4029
10229TIP3    H252103   1.712   3.621  11.435 -0.5243  0.4704  2.7011
10230TIP3   OH252104   1.341   4.712  11.345  0.3737 -0.2589 -0.2905
10230TIP3    H152105   1.420   4.675  11.306  1.2623 -0.1366  1.3157
10230TIP3    H252106   1.273   4.647  11.327  0.7205 -0.1786 -2.0467
10231TIP3   OH252107   0.803   2.058   4.324 -0.0380 -0.4966 -0.2103
10231TIP3    H152108   0.719   2.078   4.283 -0.7684  0.2588  1.5299
10231TIP3    H252109   0.869   2.083   4.259 -1.1153  1.0811 -0.7380
10232TIP3   OH252110   3.143   2.822  14.058 -0.2682  0.2643 -0.4237
10232TIP3    H152111   3.136   2.875  13.979  1.3992 -0.8892 -1.4123
10232TIP3    H252112   3.108   2.737  14.032 -0.7481  0.1934  0.4384
10233TIP3   OH252113   0.668   1.530  16.102 -0.4234  0.2791  0.3151
10233TIP3    H152114   0.695   1.439  16.112 -0.0552  0.3255 -0.2398
10233TIP3    H252115   0.579   1.525  16.067  0.0103  0.1330 -0.7776
10234TIP3   OH252116   5.433   6.140  16.705  0.7192 -0.3519 -0.6016
10234TIP3    H152117   5.374   6.122  16.778 -0.2131 -0.6149 -1.4044
10234TIP3    H252118   5.520   6.145  16.745  0.0742  0.8980  0.7292
10235TIP3   OH252119   1.969   6.687  14.225  0.4889 -0.0601 -0.3737
10235TIP3    H152120   1.917   6.607  14.218  1.2291 -0.7765  1.5434
10235TIP3    H252121   2.001   6.686  14.315  3.4630  0.5562 -1.3274
10236TIP3   OH252122   4.643   6.683  17.329 -0.7778 -0.2636 -0.9128
10236TIP3    H152123   4.660   6.762  17.380  0.4270  0.8090 -2.8385
10236TIP3    H252124   4.644   6.612  17.393  1.0284  0.9634  0.5187
10237TIP3   OH252125   4.404   1.742  16.910 -0.3861 -0.3271  0.0340
10237TIP3    H152126   4.403   1.826  16.956 -1.4441 -0.6332  0.6166
10237TIP3    H252127   4.449   1.683  16.971  0.4252 -0.1687 -0.4079
10238TIP3   OH252128   2.175   4.077  11.764 -0.0781  0.0157  0.1261
10238TIP3    H152129   2.100   4.109  11.713 -1.4504 -0.6928  1.6102
10238TIP3    H252130   2.141   4.003  11.813  1.6306 -0.3563  0.8173
10239TIP3   OH252131   3.494   2.131   5.232  0.4197  0.0745  0.2185
10239TIP3    H152132   3.581   2.123   5.193  0.8755 -0.2164  1.2698
10239TIP3    H252133   3.481   2.048   5.279 -0.0410  0.4903  0.8394
10240TIP3   OH252134   3.079   1.785  15.382 -0.1597 -0.0689  0.2835
10240TIP3    H152135   3.035   1.702  15.399 -1.3966  0.2544 -1.1830
10240TIP3    H252136   3.063   1.837  15.461  0.9878 -1.3133  1.3989
10241TIP3   OH252137   0.354   6.713   6.989 -0.5957  0.3785 -0.2311
10241TIP3    H152138   0.360   6.782   7.055 -0.4630  2.1696 -1.9913
10241TIP3    H252139   0.437   6.720   6.941 -0.7415 -0.7739 -0.6644
10242TIP3   OH252140   2.225   1.909   2.874 -0.0557 -0.1025  0.5953
10242TIP3    H152141   2.269   1.826   2.853  1.8774  1.3638 -1.6030
10242TIP3    H252142   2.140   1.902   2.830  0.3151 -0.6916 -0.0493
10243TIP3   OH252143   0.898   4.021   5.389  0.0249  0.3510 -0.2408
10243TIP3    H152144   0.897   3.948   5.327 -1.0540  0.1542 -0.0106
10243TIP3    H252145   0.859   4.094   5.341 -1.5439 -0.0121  0.4263
10244TIP3   OH252146   5.980   6.155   2.704 -0.2647  0.3542 -0.0772
10244TIP3    H152147   5.947   6.113   2.624  0.2682  0.5052 -0.3808
10244TIP3    H252148   5.942   6.104   2.775 -0.6383  0.1341 -0.4268
10245TIP3   OH252149   6.501   2.477  13.474 -0.4029 -0.1826 -0.1567
10245TIP3    H152150   6.508   2.526  13.392 -0.3876  0.0397 -0.0223
10245TIP3    H252151   6.409   2.482  13.498 -0.1021  1.2786  0.7775
10246TIP3   OH252152   2.576   0.371  15.857 -0.0836  0.7036 -0.2603
10246TIP3    H152153   2.527   0.363  15.775  0.0924 -0.4738 -0.2701
10246TIP3    H252154   2.554   0.291  15.905 -2.4650  2.6099  2.1423
10247TIP3   OH252155   5.973   2.915   4.959 -0.0463 -0.1026  0.1430
10247TIP3    H152156   6.031   2.891   5.030  0.1323 -1.8032 -0.5296
10247TIP3    H252157   6.017   2.988   4.915  0.7491 -0.2747  0.6422
10248TIP3   OH252158   0.559   6.060   0.902 -0.7250  0.0832 -0.3019
10248TIP3    H152159   0.470   6.093   0.908 -1.0183 -0.8913  1.3116
10248TIP3    H252160   0.609   6.116   0.962 -0.2755  0.4520 -0.9956
10249TIP3   OH252161   6.025   1.032  14.676  0.4347 -0.0465 -0.7469
10249TIP3    H152162   5.959   0.964  14.682 -0.8837  0.9949 -2.4359
10249TIP3    H252163   6.021   1.078  14.760 -0.0204 -0.8441 -0.3269
10250TIP3   OH252164   6.008   5.920   2.035 -0.0087 -0.2647 -0.1584
10250TIP3    H152165   5.935   5.882   1.987 -0.2031  0.6943 -0.6614
10250TIP3    H252166   6.086   5.883   1.994 -0.1674  0.7241 -1.4033
10251TIP3   OH252167   0.262   2.093   0.693  0.0463 -0.1361  0.0248
10251TIP3    H152168   0.279   2.145   0.614  2.3805 -0.4419  0.2648
10251TIP3    H252169   0.183   2.132   0.730  0.7607  2.1728 -0.6949
10252TIP3   OH252170   2.876   5.617   6.006 -0.1810 -0.1546  0.1061
10252TIP3    H152171   2.908   5.559   6.075  2.1351  0.0767 -0.6765
10252TIP3    H252172   2.896   5.705   6.037 -0.2889  0.0160 -0.3033
10253TIP3   OH252173   0.905   5.130  15.625  0.7292  0.2711  0.0279
10253TIP3    H152174   0.928   5.038  15.619  2.9311  0.7616  0.1478
10253TIP3    H252175   0.938   5.158  15.710 -1.0474  0.9061  0.5474
10254TIP3   OH252176   1.836   1.568  13.736  0.1326  0.2526 -0.6268
10254TIP3    H152177   1.813   1.521  13.816  0.2885  0.6059 -0.3719
10254TIP3    H252178   1.875   1.502  13.679  0.6580  0.1373 -0.1443
10255TIP3   OH252179   0.169   6.129   3.338  0.1081 -0.0513 -0.1423
10255TIP3    H152180   0.105   6.115   3.269 -0.0247 -0.4262  0.0568
10255TIP3    H252181   0.244   6.075   3.313  1.3094  2.1422 -1.6058
10256TIP3   OH252182   2.342   5.127   1.694  0.2014  0.2421  0.4049
10256TIP3    H152183   2.352   5.211   1.649 -0.3631 -0.2655 -0.6927
10256TIP3    H252184   2.341   5.150   1.787  1.5615  1.2938  0.1946
10257TIP3   OH252185   2.659   2.969   4.360 -0.2138 -0.5339  0.2496
10257TIP3    H152186   2.652   2.918   4.441  2.8584 -0.4563  0.6836
10257TIP3    H252187   2.721   3.039   4.380 -1.0302  0.8233 -1.5910
10258TIP3   OH252188   3.463   5.939   0.391 -0.4823 -0.6129 -0.2918
10258TIP3    H152189   3.510   5.857   0.406  0.4772  0.2362  1.7178
10258TIP3    H252190   3.502   6.001   0.453 -1.4754  1.2596 -1.4380
10259TIP3   OH252191   4.508   6.573  12.389 -0.0246  0.2618  0.5751
10259TIP3    H152192   4.507   6.653  12.442  1.0100 -0.9876  2.5849
10259TIP3    H252193   4.446   6.591  12.318 -0.4966  2.4922  1.4546
10260TIP3   OH252194   3.664   5.329   0.797  0.1295 -0.0252  0.0531
10260TIP3    H152195   3.752   5.342   0.762 -0.2470  1.5895 -0.3672
10260TIP3    H252196   3.668   5.244   0.840  2.0918  0.3213  0.6501
10261TIP3   OH252197   1.649   2.646   5.645 -0.6355  0.1870 -0.2404
10261TIP3    H152198   1.575   2.705   5.631 -1.1469 -0.3594  0.1034
10261TIP3    H252199   1.618   2.583   5.710  0.7264  0.9587  1.2013
10262TIP3   OH252200   2.994   0.816  16.185  0.1084  0.6246 -0.3040
10262TIP3    H152201   3.026   0.765  16.259 -0.5926  0.0714 -0.3692
10262TIP3    H252202   3.048   0.895  16.184 -0.1946  0.8694  1.0904
10263TIP3   OH252203   1.341   5.332   2.945  0.0528  0.0154  0.2774
10263TIP3    H152204   1.362   5.262   2.883  1.4368 -0.6987  1.4835
10263TIP3    H252205   1.423   5.351   2.989 -0.8538  0.5874  1.8104
10264TIP3   OH252206   5.641   0.642   6.324  0.3017 -0.5243  0.0233
10264TIP3    H152207   5.609   0.567   6.374  0.2348 -0.8842 -0.5548
10264TIP3    H252208   5.566   0.671   6.273 -0.0299  0.7193  1.1602
10265TIP3   OH252209   4.672   2.811  12.809 -0.2050 -0.1901 -0.0778
10265TIP3    H152210   4.729   2.764  12.747  0.0242 -0.0638  0.0352
10265TIP3    H252211   4.587   2.768  12.800  0.6137 -2.5250  1.9808
10266TIP3   OH252212   5.207   0.321  16.665  0.0615  0.1499  0.0066
10266TIP3    H152213   5.301   0.307  16.654 -0.1939 -1.9911  0.1228
10266TIP3    H252214   5.193   0.320  16.760 -0.1347 -0.1145 -0.0222
10267TIP3   OH252215   1.057   4.168   4.663 -0.2592 -0.1868  0.3260
10267TIP3    H152216   1.139   4.174   4.614 -0.3648 -0.8088  0.0625
10267TIP3    H252217   0.990   4.154   4.596 -0.6465  0.7688  0.4997
10268TIP3   OH252218   5.110   2.357  11.372  0.1888  0.0496 -0.2104
10268TIP3    H152219   5.182   2.420  11.377 -0.2673  0.5082  0.6196
10268TIP3    H252220   5.058   2.373  11.450 -0.3944 -0.8057 -0.4111
10269TIP3   OH252221   3.168   1.126  13.685 -0.2578 -0.4114 -0.1885
10269TIP3    H152222   3.091   1.094  13.733 -2.0134  1.7954 -1.3357
10269TIP3    H252223   3.219   1.172  13.751  0.6755 -2.6767  0.7918
10270TIP3   OH252224   3.486   4.034  17.184 -0.6440 -0.1731  0.1856
10270TIP3    H152225   3.442   3.990  17.111 -0.8891  0.1844  0.1130
10270TIP3    H252226   3.485   3.969  17.255  0.6525 -0.9606 -0.4875
10271TIP3   OH252227   2.593   1.166   3.451  0.7562 -0.3065  0.0600
10271TIP3    H152228   2.555   1.078   3.443 -0.6365  0.2728 -0.0694
10271TIP3    H252229   2.599   1.198   3.361 -0.0079  0.2169  0.1806
10272TIP3   OH252230   6.609   3.656  16.421 -0.6981  0.2871 -0.2942
10272TIP3    H152231   6.605   3.746  16.454  0.3672 -0.0615  0.8749
10272TIP3    H252232   6.693   3.650  16.377  0.3351 -0.7382  1.6590
10273TIP3   OH252233   0.097   6.454   6.056 -0.5550 -0.2325 -0.5318
10273TIP3    H152234   0.129   6.396   6.125  1.1727  0.4700 -0.6987
10273TIP3    H252235   0.022   6.498   6.095  1.0680  0.9907  1.3624
10274TIP3   OH252236   5.938   6.207  15.337  0.0785  0.7272 -0.1335
10274TIP3    H152237   6.016   6.230  15.387  0.5895 -0.2553 -0.4501
10274TIP3    H252238   5.920   6.285  15.284 -0.1455  1.5685  1.1378
10275TIP3   OH252239   3.343   6.605  11.820  0.3450  0.1671  0.0046
10275TIP3    H152240   3.304   6.518  11.819  1.6529 -0.4812 -2.3033
10275TIP3    H252241   3.285   6.657  11.876 -1.1301 -1.8677  0.4769
10276TIP3   OH252242   5.132   6.001   5.812 -0.4831 -0.2197 -0.1434
10276TIP3    H152243   5.209   6.023   5.760 -0.6159 -0.6376 -0.5139
10276TIP3    H252244   5.057   6.023   5.756 -0.7815  3.1959  1.2988
10277TIP3   OH252245   1.347   4.731  14.236 -0.0578  0.0391  0.3145
10277TIP3    H152246   1.384   4.716  14.149  2.2881 -1.0638  1.4223
10277TIP3    H252247   1.253   4.745  14.220 -0.1347 -2.4560 -2.1861
10278TIP3   OH252248   5.732   5.895  12.957  0.8212  0.0965  0.4744
10278TIP3    H152249   5.782   5.840  12.897  2.1649 -0.1495  1.7684
10278TIP3    H252250   5.656   5.923  12.906  1.7117 -0.4057 -1.2081
10279TIP3   OH252251   3.157   0.136  12.288  0.5370  0.1046  0.0056
10279TIP3    H152252   3.197   0.130  12.375 -0.5957  0.8583  0.5998
10279TIP3    H252253   3.063   0.131  12.305  0.3239 -0.6437 -1.2738
10280TIP3   OH252254   0.215   6.315   6.259 -0.3649  0.0656  0.2526
10280TIP3    H152255   0.205   6.265   6.340  0.3995  2.2366  1.7614
10280TIP3    H252256   0.309   6.325   6.248 -0.4562  2.8390  1.1729
10281TIP3   OH252257   1.626   5.608   3.640 -0.3990 -0.0328  0.5537
10281TIP3    H152258   1.546   5.582   3.594 -0.4432  1.0842 -0.0505
10281TIP3    H252259   1.680   5.649   3.573  1.7150 -2.7347  0.4325
10282TIP3   OH252260   3.838   6.349  15.195 -0.1692  0.6544 -0.0233
10282TIP3    H152261   3.928   6.316  15.202  0.1479  1.1109 -1.5540
10282TIP3    H252262   3.790   6.279  15.151 -0.1151  1.1563 -0.8938
10283TIP3   OH252263   0.556   3.630   3.836  0.2014  0.2936 -0.6269
10283TIP3    H152264   0.515   3.568   3.896  1.0144  0.1654 -0.1786
10283TIP3    H252265   0.526   3.716   3.866  0.2525  0.2025 -0.3117
10284TIP3   OH252266   3.234   0.297  14.988 -0.7553  0.1564 -0.0853
10284TIP3    H152267   3.292   0.246  15.045 -0.2651  0.1425 -0.5904
10284TIP3    H252268   3.146   0.283  15.025 -0.7276 -1.5274 -0.5397
10285TIP3   OH252269   4.072   5.949  14.580  0.0343  0.0500 -0.1015
10285TIP3    H152270   4.047   6.036  14.550  0.5265  0.7892  1.5618
10285TIP3    H252271   4.146   5.925  14.523  2.2325  2.2443  1.6130
10286TIP3   OH252272   2.748   3.241   5.566 -0.1206 -0.1780 -0.1187
10286TIP3    H152273   2.795   3.279   5.640  0.3273  0.7939 -0.8612
10286TIP3    H252274   2.681   3.185   5.605  1.5894 -1.5590  0.9805
10287TIP3   OH252275   0.757   1.671   2.425  0.4368 -0.3945  0.1747
10287TIP3    H152276   0.779   1.647   2.335 -0.6204 -1.1494  0.1091
10287TIP3    H252277   0.771   1.591   2.476  2.0420  0.2970  0.8884
10288TIP3   OH252278   5.523   1.941   0.131 -0.3988  0.6063  0.5575
10288TIP3    H152279   5.500   1.930   0.038 -2.6996  0.4310  1.0946
10288TIP3    H252280   5.518   2.035   0.146  2.4999  0.9647 -0.0100
10289TIP3   OH252281   5.654   0.883  15.079  0.1297  0.2803 -0.0734
10289TIP3    H152282   5.602   0.807  15.104 -0.3848  1.0527  1.3516
10289TIP3    H252283   5.744   0.857  15.093 -0.0611  0.0356  0.7402
10290TIP3   OH252284   5.718   6.325  10.689  0.4755 -0.2447  0.7284
10290TIP3    H152285   5.630   6.291  10.703  0.7710 -0.8615  1.1391
10290TIP3    H252286   5.712   6.418  10.709 -0.5912  0.2072 -1.3670
10291TIP3   OH252287   6.426   0.420  14.312 -0.0590  0.7149  0.6538
10291TIP3    H152288   6.392   0.498  14.355  1.9406  0.2886  3.2664
10291TIP3    H252289   6.354   0.357  14.316 -0.9055  1.6648  0.6720
10292TIP3   OH252290   6.737   0.294  15.795 -0.3200  0.1561 -0.3347
10292TIP3    H152291   6.715   0.214  15.844  0.4423  0.6003  0.7842
10292TIP3    H252292   6.788   0.263  15.721 -0.3093 -0.4300 -0.0921
10293TIP3   OH252293   3.641   3.234   3.621 -0.1193 -0.0991  0.5921
10293TIP3    H152294   3.580   3.218   3.548  0.3363  1.6892 -0.2390
10293TIP3    H252295   3.590   3.215   3.699 -1.8653  1.5229 -0.0643
10294TIP3   OH252296   4.723   3.389   3.132  0.2350 -0.0690  0.1891
10294TIP3    H152297   4.776   3.468   3.141  0.0466  0.4489 -2.5934
10294TIP3    H252298   4.783   3.323   3.096 -0.2117 -0.4668  0.1624
10295TIP3   OH252299   2.439   6.398  17.042  0.0482 -0.5312  0.6744
10295TIP3    H152300   2.411   6.329  16.982 -0.4993 -0.9821  1.4251
10295TIP3    H252301   2.362   6.416  17.096  0.5655 -0.2443  1.3344
10296TIP3   OH252302   4.980   6.426   1.510  0.1871  0.8229  0.3329
10296TIP3    H152303   5.032   6.356   1.470 -0.0070  0.4832  0.6776
10296TIP3    H252304   4.958   6.483   1.436 -1.2302 -0.4595 -0.2862
10297TIP3   OH252305   4.354   6.711  14.827  0.3772 -0.0502 -1.0998
10297TIP3    H152306   4.265   6.674  14.823 -0.8447  2.6846 -2.0689
10297TIP3    H252307   4.412   6.636  14.822 -1.8848 -1.8843 -1.5052
10298TIP3   OH252308   5.469   0.009   1.332 -0.2677  0.2617  0.4675
10298TIP3    H152309   5.428   0.039   1.250 -0.6659  0.8295  0.8655
10298TIP3    H252310   5.423  -0.072   1.353  0.3254 -0.2772 -0.2392
10299TIP3   OH252311   3.726   3.743  12.152 -0.5020 -0.0727  0.0118
10299TIP3    H152312   3.803   3.748  12.209  0.3783 -0.3411 -1.1005
10299TIP3    H252313   3.739   3.815  12.089 -1.9761  0.8797  0.7356
10300TIP3   OH252314   1.951   2.958  15.415 -0.0983  0.2632  0.1883
10300TIP3    H152315   1.869   2.960  15.366 -1.1772  0.3820  1.9018
10300TIP3    H252316   1.925   2.938  15.505  1.9707 -2.4778  0.3448
10301TIP3   OH252317   5.537   2.244   5.718 -0.1555  0.0201  0.5815
10301TIP3    H152318   5.478   2.190   5.770  0.4789 -0.6677  0.6046
10301TIP3    H252319   5.510   2.227   5.627  0.1311 -0.4543  0.5807
10302TIP3   OH252320   3.735   1.831  15.310 -0.2329  0.0109  0.5221
10302TIP3    H152321   3.667   1.895  15.290 -0.4102 -0.4040 -0.2259
10302TIP3    H252322   3.688   1.750  15.329  0.0514 -0.2870 -0.0275
10303TIP3   OH252323   4.760   1.453   3.819  0.0103  0.0783 -0.2143
10303TIP3    H152324   4.748   1.411   3.904 -0.9977 -0.0432 -0.4031
10303TIP3    H252325   4.773   1.545   3.839  1.4981 -0.1900  0.1610
10304TIP3   OH252326   3.272   1.223   1.349  0.6439 -0.0415  0.3753
10304TIP3    H152327   3.209   1.293   1.335  2.4471  1.8152  1.0763
10304TIP3    H252328   3.254   1.160   1.279 -0.2740  1.7017 -1.0226
10305TIP3   OH252329   4.841   6.046   6.126 -0.0265 -0.8178  0.1487
10305TIP3    H152330   4.774   6.023   6.192 -0.0134  0.0640  0.4874
10305TIP3    H252331   4.823   5.988   6.053 -2.2542  0.4888 -0.4493
10306TIP3   OH252332   4.533   3.191   3.231  0.3179  0.5346  0.0253
10306TIP3    H152333   4.597   3.248   3.188  0.8702 -0.0686  0.0389
10306TIP3    H252334   4.448   3.224   3.200  0.6646  0.7530 -0.7316
10307TIP3   OH252335   2.134   6.522  14.027 -0.2526 -0.3719  0.2253
10307TIP3    H152336   2.116   6.610  14.059  0.3869  1.2199 -3.3031
10307TIP3    H252337   2.059   6.500  13.972 -0.2582 -1.9513  0.8029
10308TIP3   OH252338   3.051   1.791  12.331 -0.2111 -0.0908 -0.0824
10308TIP3    H152339   3.086   1.768  12.417 -5.2871 -0.5028  2.2208
10308TIP3    H252340   3.027   1.883  12.339  1.3115  0.5465 -2.0076
10309TIP3   OH252341   1.922   5.277  13.413  0.0224 -0.1548  0.8995
10309TIP3    H152342   1.963   5.280  13.499  0.7662 -1.1063  0.5975
10309TIP3    H252343   1.869   5.198  13.415 -0.7144  0.3282  0.8029
10310TIP3   OH252344   5.120   3.403   5.451 -0.0946 -0.0762 -0.0913
10310TIP3    H152345   5.141   3.451   5.371 -0.5764  0.6914  0.2344
10310TIP3    H252346   5.185   3.433   5.514  0.8363 -1.3368 -0.4220
10311TIP3   OH252347   2.505   2.467   2.365  0.4456 -0.0078 -0.2708
10311TIP3    H152348   2.543   2.414   2.434  0.8854  0.5655 -0.0705
10311TIP3    H252349   2.411   2.464   2.381  0.4993 -0.3810 -0.0199
10312TIP3   OH252350   3.972   1.331  11.421 -0.0399 -0.5071  0.5627
10312TIP3    H152351   3.979   1.316  11.516  2.5124  1.2608  0.7529
10312TIP3    H252352   3.888   1.291  11.397  1.0215 -4.7149  2.7924
10313TIP3   OH252353   4.024   3.493   1.652 -0.5793 -0.3321 -0.6226
10313TIP3    H152354   4.072   3.429   1.599 -0.3666 -0.2019 -0.5901
10313TIP3    H252355   4.065   3.577   1.632 -0.3284 -0.3164 -0.0671
10314TIP3   OH252356   3.116   0.949   0.104  0.9873 -0.5405 -0.0420
10314TIP3    H152357   3.165   0.869   0.121  0.6509 -0.9414 -0.8525
10314TIP3    H252358   3.110   0.953   0.008 -1.9047 -1.3909 -0.0103
10315TIP3   OH252359   1.986   3.915  17.155 -0.1240  0.2702 -0.4902
10315TIP3    H152360   1.924   3.894  17.225  0.7149 -0.0236  0.1843
10315TIP3    H252361   2.071   3.888  17.190  0.5031  1.4482 -1.0592
10316TIP3   OH252362   2.399   5.712  16.756 -0.5825  0.2501  0.2780
10316TIP3    H152363   2.456   5.731  16.830  0.1558  2.4196 -0.7599
10316TIP3    H252364   2.439   5.635  16.714 -1.1663 -1.1733  2.2061
10317TIP3   OH252365   2.320   0.075  16.099  0.4597 -0.2931 -0.2644
10317TIP3    H152366   2.312   0.031  16.183 -1.4072  1.2218  0.4249
10317TIP3    H252367   2.232   0.073  16.062  0.2611  2.7718 -0.1919
10318TIP3   OH252368   0.409   5.890   1.083 -0.0895 -0.4351  0.0926
10318TIP3    H152369   0.476   5.943   1.041  1.8129 -1.1227  2.0084
10318TIP3    H252370   0.426   5.801   1.051  0.3563 -0.7041  1.0212
10319TIP3   OH252371   0.742   3.231   1.251  0.1310  0.0208 -0.4124
10319TIP3    H152372   0.711   3.145   1.279 -1.4490  0.6018 -0.2785
10319TIP3    H252373   0.665   3.287   1.256  0.4735  0.8706 -2.9576
10320TIP3   OH252374   4.832   4.532  13.062  0.6420 -0.4278 -0.2311
10320TIP3    H152375   4.769   4.547  12.992  1.6037 -0.7232 -1.1951
10320TIP3    H252376   4.870   4.619  13.079  1.2725 -0.5622 -0.9364
10321TIP3   OH252377   2.035   3.577  17.037 -0.6006  0.3347  0.0910
10321TIP3    H152378   2.037   3.534  16.951  1.1970 -0.4448  0.4736
10321TIP3    H252379   1.979   3.653  17.024 -0.1589  0.3847 -1.8678
10322TIP3   OH252380   2.492   5.988  12.035  0.7846  0.3921 -0.1694
10322TIP3    H152381   2.468   6.060  11.977  0.0446 -0.3241 -0.7725
10322TIP3    H252382   2.430   5.993  12.107  1.3764  0.9620  0.3193
10323TIP3   OH252383   2.809   5.602  15.903 -0.0307 -0.0860  0.4793
10323TIP3    H152384   2.879   5.619  15.840 -0.8146  0.9572 -0.1457
10323TIP3    H252385   2.842   5.530  15.957  1.4027  0.2127  0.0357
10324TIP3   OH252386   6.544   2.510  16.824 -0.0188 -0.6230 -0.1938
10324TIP3    H152387   6.562   2.498  16.917  0.1670 -0.2508 -0.1748
10324TIP3    H252388   6.631   2.525  16.785 -0.1421 -0.3002 -0.3491
10325TIP3   OH252389   0.391   4.894  16.106  0.0914 -0.3111  0.0274
10325TIP3    H152390   0.396   4.975  16.157 -0.0599 -0.1481 -0.2140
10325TIP3    H252391   0.303   4.894  16.070 -0.5749 -1.5130  1.5479
10326TIP3   OH252392   5.220   0.558  10.839 -0.0469 -0.5640 -0.0404
10326TIP3    H152393   5.236   0.612  10.762  1.1848  1.0127  1.2481
10326TIP3    H252394   5.142   0.597  10.879  0.1742 -0.4575  0.2851
10327TIP3   OH252395   0.396   4.858   3.680  0.2579 -0.2573  0.5153
10327TIP3    H152396   0.398   4.871   3.775  1.2722  1.4785  0.2811
10327TIP3    H252397   0.357   4.771   3.670  0.7222 -0.7647  2.5403
10328TIP3   OH252398   3.797   1.049  12.788 -0.4157 -0.3199  0.4932
10328TIP3    H152399   3.751   1.122  12.829 -0.3525  0.3191 -0.5164
10328TIP3    H252400   3.795   0.979  12.852 -2.4294 -0.1735  0.6422
10329TIP3   OH252401   4.516   3.766   1.104  0.3769 -0.1784  0.0166
10329TIP3    H152402   4.562   3.848   1.085  1.9969 -0.6306  1.6586
10329TIP3    H252403   4.466   3.785   1.183  0.6907 -0.7317  0.3510
10330TIP3   OH252404   2.142   2.184  15.647 -0.1629 -0.2634 -0.2316
10330TIP3    H152405   2.176   2.203  15.735 -0.5289  1.1367 -0.3658
10330TIP3    H252406   2.220   2.184  15.591 -0.0007 -0.5272 -0.0088
10331TIP3   OH252407   5.662   1.765   6.389 -0.3893 -0.7371 -0.5215
10331TIP3    H152408   5.683   1.767   6.296  2.3605  1.7612  0.0044
10331TIP3    H252409   5.612   1.845   6.405  3.7821  1.9532  0.8260
10332TIP3   OH252410   6.745   3.416   1.028  0.1499  0.2134  0.2400
10332TIP3    H152411   6.732   3.350   0.960  0.4158  0.2947  0.1091
10332TIP3    H252412   6.658   3.427   1.068  0.1366 -0.3169  0.3584
10333TIP3   OH252413   1.664   0.189   3.690 -0.6654 -0.2988 -0.2624
10333TIP3    H152414   1.716   0.128   3.742  2.0674  1.3145 -0.9277
10333TIP3    H252415   1.664   0.153   3.602 -2.1098 -1.0926  0.0230
10334TIP3   OH252416   1.475   4.962   0.416  0.0939 -0.1532  0.1185
10334TIP3    H152417   1.469   4.868   0.433  1.6113 -0.3277 -0.1431
10334TIP3    H252418   1.393   4.998   0.449 -0.4136 -1.5331  0.4333
10335TIP3   OH252419   4.729   6.172   0.542 -0.3323 -0.7002  0.1731
10335TIP3    H152420   4.670   6.248   0.543  0.4502 -0.0749 -0.0705
10335TIP3    H252421   4.781   6.183   0.463  0.2464 -1.1457  0.4834
10336TIP3   OH252422   0.018   4.969   2.529  0.4801  0.1247  0.1633
10336TIP3    H152423   0.038   4.875   2.524 -1.1078 -0.2255 -0.4300
10336TIP3    H252424   0.074   5.002   2.599 -1.6304 -2.0255  3.1074
10337TIP3   OH252425   4.887   5.653  11.544  0.2317 -0.2698 -0.2260
10337TIP3    H152426   4.832   5.659  11.466 -2.4608  0.1034  1.5862
10337TIP3    H252427   4.969   5.615  11.512  0.3039  2.2901 -3.6961
10338TIP3   OH252428   0.988   6.283   4.067 -0.3998 -0.2545 -0.6586
10338TIP3    H152429   0.898   6.310   4.047  0.5970  1.6381 -3.1256
10338TIP3    H252430   1.033   6.364   4.090  1.3393 -0.6535 -2.4000
10339TIP3   OH252431   1.403   2.778   0.817  0.0397 -0.1601 -0.2183
10339TIP3    H152432   1.485   2.800   0.862  0.8994 -0.7403 -1.4316
10339TIP3    H252433   1.342   2.847   0.842  1.0707  0.5872  0.2944
10340TIP3   OH252434   5.828   2.552   1.150  0.4915 -0.0071 -0.6156
10340TIP3    H152435   5.784   2.468   1.162  0.5095  0.2263  1.4228
10340TIP3    H252436   5.899   2.533   1.088 -0.9673 -0.9097 -2.0841
10341TIP3   OH252437   2.142   4.117   2.398 -0.3350  0.6870  0.9028
10341TIP3    H152438   2.230   4.152   2.411  0.2972 -0.0392 -1.0809
10341TIP3    H252439   2.089   4.194   2.376  0.7452  0.7084 -2.0137
10342TIP3   OH252440   3.481   5.929  13.543  0.2788  0.2750  0.7747
10342TIP3    H152441   3.550   5.911  13.479 -0.1051  4.0664 -0.9789
10342TIP3    H252442   3.432   5.847  13.549  2.1407 -1.1365 -1.4891
10343TIP3   OH252443   3.883   1.162   1.503 -0.3371  0.1940  0.0151
10343TIP3    H152444   3.844   1.075   1.516 -1.6138  0.7147 -0.1779
10343TIP3    H252445   3.829   1.202   1.434  1.5206  0.3756 -1.3979
10344TIP3   OH252446   2.494   2.289   4.237 -0.1848 -0.4091  0.0519
10344TIP3    H152447   2.556   2.299   4.308  1.4450 -2.9561 -0.8894
10344TIP3    H252448   2.545   2.252   4.165 -2.4247 -0.9259 -1.3738
10345TIP3   OH252449   0.762   0.626   0.790 -0.1656 -0.3874 -0.0512
10345TIP3    H152450   0.799   0.660   0.872 -0.0909  0.3795 -0.3965
10345TIP3    H252451   0.838   0.604   0.736 -0.2125 -0.3653 -0.1267
10346TIP3   OH252452   5.351   0.060  16.588  0.2953  0.0084 -0.9704
10346TIP3    H152453   5.431   0.020  16.553 -0.6596 -1.9425 -1.0596
10346TIP3    H252454   5.287  -0.011  16.590 -0.8307  0.9841  1.1149
10347TIP3   OH252455   1.880   5.006   5.713  0.1857  0.6551 -0.1867
10347TIP3    H152456   1.973   5.010   5.688  0.3380 -1.5940 -0.1331
10347TIP3    H252457   1.880   4.956   5.795 -1.0963  0.6164 -0.2030
10348TIP3   OH252458   5.274   5.874   0.496  0.8037 -0.3963 -0.1206
10348TIP3    H152459   5.193   5.920   0.518  1.2581 -0.1869  1.1845
10348TIP3    H252460   5.250   5.781   0.496  0.8015 -0.4279  1.5059
10349TIP3   OH252461   2.079   1.103  16.647  0.0387 -0.4683  0.0177
10349TIP3    H152462   2.036   1.032  16.601 -0.0648 -1.3765  1.4739
10349TIP3    H252463   2.055   1.182  16.598 -1.8327 -1.1459 -0.2089
10350TIP3   OH252464   4.830   2.530   5.466 -0.3082 -0.1788  0.2527
10350TIP3    H152465   4.788   2.480   5.397  0.3867  2.4526 -2.3209
10350TIP3    H252466   4.922   2.505   5.461 -0.2136  0.2048  0.0074
10351TIP3   OH252467   4.778   2.018   0.149  0.0946 -0.1074  0.1694
10351TIP3    H152468   4.689   2.051   0.134 -0.1051 -0.4121  0.6534
10351TIP3    H252469   4.794   2.034   0.242  1.1576  1.3967 -0.2226
10352TIP3   OH252470   0.958   2.384  14.838  0.0987  0.1656  0.2257
10352TIP3    H152471   0.997   2.468  14.814  1.4924 -0.2845  0.8456
10352TIP3    H252472   0.976   2.327  14.763  0.9402 -0.1212  0.6266
10353TIP3   OH252473   3.851   3.187   1.029  0.2660  0.0279 -0.2662
10353TIP3    H152474   3.844   3.137   1.110 -1.0373 -1.1299 -1.0687
10353TIP3    H252475   3.816   3.274   1.051 -1.6921 -0.7860  0.0056
10354TIP3   OH252476   5.339   3.200   3.732 -0.7227 -0.7137  0.0753
10354TIP3    H152477   5.428   3.164   3.738  1.3594  3.6113 -0.5704
10354TIP3    H252478   5.317   3.224   3.822 -0.5615 -0.4394  0.0434
10355TIP3   OH252479   3.037   0.260  10.672  0.7090  0.0001  0.1002
10355TIP3    H152480   3.053   0.167  10.690  0.6096  0.0861  0.6437
10355TIP3    H252481   3.048   0.268  10.577  0.9647 -0.5183  0.0813
10356TIP3   OH252482   1.333   2.803  15.200  0.1120 -0.0746  0.5927
10356TIP3    H152483   1.324   2.838  15.288 -0.5132 -1.3837  1.0701
10356TIP3    H252484   1.425   2.818  15.177  0.0846  1.0137  1.1260
10357TIP3   OH252485   3.319   5.937  15.748 -0.5873  0.9183  0.1458
10357TIP3    H152486   3.297   6.026  15.776 -1.2670  1.0249 -0.6884
10357TIP3    H252487   3.240   5.905  15.706 -0.6711 -0.4572  1.3070
10358TIP3   OH252488   3.460   2.658   3.102  0.1722  0.0816 -0.0069
10358TIP3    H152489   3.365   2.652   3.093  0.1478 -1.2677  0.9281
10358TIP3    H252490   3.493   2.578   3.061  1.1236  1.6552 -2.5575
10359TIP3   OH252491   6.236   3.013   4.670  0.2297 -0.4400  0.4691
10359TIP3    H152492   6.150   2.986   4.637  0.6034 -0.5084 -0.4948
10359TIP3    H252493   6.290   3.022   4.591  1.2048 -0.7438  1.0801
10360TIP3   OH252494   3.969   0.251   0.637 -0.1110 -0.4468 -0.2355
10360TIP3    H152495   3.910   0.178   0.657 -0.6106  0.2961  1.1061
10360TIP3    H252496   3.931   0.291   0.559 -3.0899  1.6585  2.0422
10361TIP3   OH252497   3.630   2.728  17.354  0.7771  0.0484  0.2807
10361TIP3    H152498   3.628   2.632  17.352 -0.9346  0.0572 -0.4236
10361TIP3    H252499   3.606   2.754  17.265 -1.1422  1.0864  1.0240
10362TIP3   OH252500   5.975   4.867   3.209 -0.1991  0.1294 -0.3527
10362TIP3    H152501   5.909   4.903   3.150  1.8662  0.6451 -2.4746
10362TIP3    H252502   6.003   4.786   3.167  1.0496  0.3144  0.0798
10363TIP3   OH252503   0.266   2.018   4.107  0.0548  0.1389  0.4983
10363TIP3    H152504   0.249   1.927   4.133 -0.6161  0.5527  1.5654
10363TIP3    H252505   0.180   2.057   4.095  0.2912  1.0250  1.5110
10364TIP3   OH252506   0.771   2.010  12.346 -0.5554  0.3913  0.4051
10364TIP3    H152507   0.681   2.011  12.316 -0.7885  0.6831  1.0944
10364TIP3    H252508   0.820   2.056  12.278 -0.7717 -0.5138 -0.3986
10365TIP3   OH252509   0.093   3.126   0.909 -0.0440 -0.0243 -0.3367
10365TIP3    H152510   0.007   3.150   0.875 -0.4053 -0.5344  0.2013
10365TIP3    H252511   0.075   3.059   0.975  0.9248 -1.7705 -1.7703
10366TIP3   OH252512   5.665   3.911  16.155  0.5814  0.2245  0.9161
10366TIP3    H152513   5.677   3.816  16.156  1.3747  0.2976  3.0236
10366TIP3    H252514   5.596   3.926  16.090 -0.2624 -1.8613  1.2664
10367TIP3   OH252515   4.436   2.255  12.906  0.2677  0.5807  0.1025
10367TIP3    H152516   4.387   2.176  12.930 -0.0130  1.0648  1.1953
10367TIP3    H252517   4.379   2.301  12.845  0.0872  0.3193  0.0735
10368TIP3   OH252518   5.002   4.534   3.758  0.4089 -0.2935 -0.2277
10368TIP3    H152519   4.962   4.588   3.689  0.6205  1.4352  0.9388
10368TIP3    H252520   4.927   4.495   3.804  0.1021  1.0506  0.4761
10369TIP3   OH252521   2.288   6.272  13.739 -0.0533 -0.2432  0.5971
10369TIP3    H152522   2.197   6.258  13.712  0.6462 -0.4107 -1.9030
10369TIP3    H252523   2.310   6.358  13.705  1.5737 -1.4071 -1.4703
10370TIP3   OH252524   2.454   3.161  12.770 -0.1905 -0.1626  0.2556
10370TIP3    H152525   2.481   3.132  12.857 -0.3141 -0.1567  0.2958
10370TIP3    H252526   2.532   3.149  12.716 -1.1867 -3.9489 -0.5646
10371TIP3   OH252527   5.139   2.913  13.871 -0.4556 -0.1142 -0.8498
10371TIP3    H152528   5.212   2.899  13.811  0.6421  0.1159  0.4032
10371TIP3    H252529   5.132   2.831  13.920  1.4691  1.0745  1.6493
10372TIP3   OH252530   1.211   5.954  11.540  0.0085  0.2221  0.4451
10372TIP3    H152531   1.139   5.891  11.536  0.4461 -0.2502 -0.2536
10372TIP3    H252532   1.290   5.899  11.547  0.2987  0.7350  1.3703
10373TIP3   OH252533   2.469   1.425  10.583 -0.4169  0.2622  0.2341
10373TIP3    H152534   2.374   1.416  10.570 -0.9076  0.3677  3.1707
10373TIP3    H252535   2.481   1.518  10.602  0.7139  0.7721 -2.4749
10374TIP3   OH252536   1.955   1.930   2.646  0.2776 -0.0937  0.0960
10374TIP3    H152537   1.954   1.872   2.722 -1.6430 -1.0258 -0.5783
10374TIP3    H252538   1.876   1.907   2.597  1.8069 -0.0262 -2.5904
10375TIP3   OH252539   1.032   3.217  14.041  0.3598  0.4065 -0.1442
10375TIP3    H152540   1.001   3.213  13.951 -0.4484  0.6570  0.1134
10375TIP3    H252541   1.128   3.214  14.034  0.2961 -0.0234 -0.9778
10376TIP3   OH252542   4.591   4.269   4.290 -0.1396 -0.4561  0.0425
10376TIP3    H152543   4.660   4.318   4.334  0.9872 -1.5794 -0.4288
10376TIP3    H252544   4.512   4.288   4.341  0.9544 -1.0121  2.0383
10377TIP3   OH252545   4.905   1.822  13.450 -0.0207  0.3502 -0.1942
10377TIP3    H152546   4.897   1.820  13.546  0.1086 -0.4778 -0.1964
10377TIP3    H252547   4.816   1.839  13.419  0.1000  1.5887  0.0943
10378TIP3   OH252548   0.629   2.014   0.167  0.0500  0.2172 -0.2269
10378TIP3    H152549   0.599   2.075   0.234  1.0033  0.7772 -0.2849
10378TIP3    H252550   0.719   1.992   0.194  0.1648 -0.1568 -0.8952
10379TIP3   OH252551   6.513   5.820  12.882  0.3813  0.0259  0.2391
10379TIP3    H152552   6.492   5.911  12.863 -2.4646 -0.7166 -0.6599
10379TIP3    H252553   6.552   5.822  12.969 -0.6269  2.0018  0.7053
10380TIP3   OH252554   5.710   3.790  16.484  0.7840 -0.1301 -0.6764
10380TIP3    H152555   5.731   3.873  16.525  0.1567  0.5949 -1.7718
10380TIP3    H252556   5.622   3.802  16.447 -0.2944 -2.0141  1.0371
10381TIP3   OH252557   2.366   6.091   3.226  0.0891 -0.2159 -0.5134
10381TIP3    H152558   2.408   6.148   3.162 -0.6992 -0.0885 -0.9313
10381TIP3    H252559   2.301   6.146   3.268 -0.3854 -0.6890 -0.6179
10382TIP3   OH252560   3.803   0.529  14.746 -0.4498 -0.2452  0.2336
10382TIP3    H152561   3.776   0.440  14.723 -0.0185  0.2822 -2.6469
10382TIP3    H252562   3.794   0.579  14.665 -0.2444  2.2627  1.6533
10383TIP3   OH252563   5.965   2.347   3.257  0.0422 -0.0538 -0.2112
10383TIP3    H152564   5.965   2.425   3.202  0.1973  0.7765  0.9316
10383TIP3    H252565   5.884   2.354   3.307  0.1817 -0.4934  0.0785
10384TIP3   OH252566   1.282   2.970  12.747  0.4206  0.3525  0.0296
10384TIP3    H152567   1.318   2.924  12.671  0.9153  0.5896  0.1132
10384TIP3    H252568   1.230   3.041  12.710 -2.3028 -1.5952 -0.1740
10385TIP3   OH252569   2.611   0.111  14.068  0.5505 -0.3236  0.9021
10385TIP3    H152570   2.618   0.112  13.973 -0.4064 -0.0275  0.8292
10385TIP3    H252571   2.528   0.068  14.086  1.3972 -1.7394  1.6562
10386TIP3   OH252572   5.549   4.744   3.527  0.2833  0.0946  0.1998
10386TIP3    H152573   5.503   4.828   3.523 -0.4153 -0.2914 -0.1242
10386TIP3    H252574   5.632   4.761   3.481  0.4349  0.7750  0.7087
10387TIP3   OH252575   2.111   3.886  11.268 -0.1413  0.0192 -0.3947
10387TIP3    H152576   2.170   3.957  11.245 -0.3443 -0.7882 -3.8888
10387TIP3    H252577   2.154   3.841  11.341  0.2420  3.2630  1.5759
10388TIP3   OH252578   2.738   0.673  12.153  0.0914 -0.0661  0.1617
10388TIP3    H152579   2.654   0.634  12.177  0.7128 -1.2381  0.5143
10388TIP3    H252580   2.755   0.739  12.220 -0.0463 -0.5804  0.7133
10389TIP3   OH252581   3.644   4.060  15.310  0.6619  0.0331 -0.0217
10389TIP3    H152582   3.559   4.085  15.345 -0.0823 -1.1001 -0.9320
10389TIP3    H252583   3.698   4.138  15.318  0.8519 -0.3188  4.3832
10390TIP3   OH252584   0.181   3.717  13.899  0.1116  0.1268 -0.0463
10390TIP3    H152585   0.211   3.686  13.985  1.9078  0.5536 -0.4767
10390TIP3    H252586   0.260   3.719  13.845 -0.3632  2.9810 -0.7889
10391TIP3   OH252587   3.982   5.561  13.194 -0.2386  0.2931 -0.2381
10391TIP3    H152588   4.047   5.532  13.258 -0.0033 -0.3645 -0.7660
10391TIP3    H252589   3.997   5.655  13.186 -0.0374  0.3183  0.4052
10392TIP3   OH252590   1.458   2.138  12.563 -0.2242 -0.0880 -0.0165
10392TIP3    H152591   1.450   2.191  12.642  2.9265  0.7483 -0.1303
10392TIP3    H252592   1.449   2.048  12.594 -0.2216  0.2700  1.0777
10393TIP3   OH252593   5.877   5.695  12.804 -0.0531 -0.0969  0.1487
10393TIP3    H152594   5.937   5.643  12.750  1.5262  1.1141  0.6677
10393TIP3    H252595   5.847   5.634  12.872  1.1488 -0.5633  0.2933
10394TIP3   OH252596   3.295   5.090  14.623 -0.3404 -0.3009 -0.3004
10394TIP3    H152597   3.344   5.104  14.542  1.6216  0.0348  0.8778
10394TIP3    H252598   3.214   5.047  14.595  0.9262 -1.5583 -2.2882
10395TIP3   OH252599   0.347   5.792   2.541 -0.1644 -0.1155 -0.0699
10395TIP3    H152600   0.317   5.814   2.629 -2.2425  1.4871 -1.0732
10395TIP3    H252601   0.343   5.696   2.537 -0.3409 -0.1905  1.4484
10396TIP3   OH252602   6.347   2.433   3.569 -0.0060 -0.3745  0.6795
10396TIP3    H152603   6.295   2.498   3.521  0.4534  1.2450  2.3096
10396TIP3    H252604   6.357   2.469   3.657  0.2877 -2.6600  1.6509
10397TIP3   OH252605   2.599   1.102   1.972  0.3957  0.4347  0.6939
10397TIP3    H152606   2.665   1.034   1.982 -1.1146 -1.1481  0.3460
10397TIP3    H252607   2.539   1.089   2.046 -0.3994  0.7898  0.1324
10398TIP3   OH252608   2.541   5.019   2.785  0.2748 -0.3533 -0.0962
10398TIP3    H152609   2.589   5.039   2.704  0.0449  0.6355  0.0004
10398TIP3    H252610   2.453   5.054   2.770 -0.2996 -1.7393 -0.0869
10399TIP3   OH252611   2.882   0.687   2.256  0.3196  0.1907 -0.3920
10399TIP3    H152612   2.826   0.640   2.319  0.9869 -0.5795 -0.3439
10399TIP3    H252613   2.916   0.618   2.199  1.0194  0.6723 -0.5689
10400TIP3   OH252614   4.103   6.436   0.742 -0.0442  0.3377  0.4652
10400TIP3    H152615   4.178   6.469   0.694  0.1409 -0.4389  0.2054
10400TIP3    H252616   4.105   6.484   0.825  2.0724 -1.2246  1.4207
10401TIP3   OH252617   0.417   3.565   5.222  0.0510 -0.3552 -0.4327
10401TIP3    H152618   0.509   3.544   5.208  0.0810 -0.7945  0.3430
10401TIP3    H252619   0.387   3.603   5.139  1.0961  0.3915 -0.4843
10402TIP3   OH252620   1.999   3.022   3.409  0.4588 -0.0096 -0.1518
10402TIP3    H152621   2.091   3.040   3.388  0.5576  0.4101  0.5692
10402TIP3    H252622   1.950   3.091   3.365  0.4381 -0.5432 -0.9713
10403TIP3   OH252623   0.100   2.595  16.233  0.5591  0.9075  0.4002
10403TIP3    H152624   0.088   2.539  16.309 -0.7362  0.6706  0.0602
10403TIP3    H252625   0.082   2.683  16.265  0.0320  0.8101  0.3884
10404TIP3   OH252626   0.147   3.570   2.579  0.2607 -0.3616  0.0729
10404TIP3    H152627   0.156   3.608   2.666  0.9832 -0.1418 -0.0884
10404TIP3    H252628   0.210   3.618   2.525  0.3403 -0.9835 -0.4048
10405TIP3   OH252629   3.547   5.580  11.476  0.6183 -0.2633 -0.1072
10405TIP3    H152630   3.470   5.528  11.452 -0.0218  0.9538 -0.8349
10405TIP3    H252631   3.521   5.670  11.458  2.2471  0.1794 -0.4400
10406TIP3   OH252632   0.127   4.701   0.920 -0.0434 -0.2722  0.3633
10406TIP3    H152633   0.155   4.622   0.967 -0.9809 -0.5957  0.3995
10406TIP3    H252634   0.053   4.734   0.971 -0.0944  0.2506 -0.0392
10407TIP3   OH252635   5.808   4.941  12.341 -0.4363 -0.0178  0.1103
10407TIP3    H152636   5.749   4.888  12.288 -0.1306 -2.1076  1.7115
10407TIP3    H252637   5.773   4.936  12.429  0.5909  1.0524  0.6158
10408TIP3   OH252638   3.888   2.481   4.682  0.1183 -0.1096  0.2874
10408TIP3    H152639   3.858   2.472   4.591 -0.5574 -0.9455  0.5735
10408TIP3    H252640   3.943   2.559   4.682 -1.2023  0.8632 -0.4965
10409TIP3   OH252641   3.105   5.689  12.599 -0.2382 -0.0707  0.2608
10409TIP3    H152642   3.101   5.774  12.555 -0.1566  0.9274  2.0806
10409TIP3    H252643   3.041   5.635  12.553 -0.0428  0.8445 -1.1562
10410TIP3   OH252644   3.907   3.605  12.731  0.2167  0.5802 -0.2374
10410TIP3    H152645   3.828   3.632  12.684  0.9909  0.8613 -1.4303
10410TIP3    H252646   3.894   3.512  12.748 -0.6413  0.7570  0.1575
10411TIP3   OH252647   3.156   5.712   4.677 -0.4168  0.1687 -0.1740
10411TIP3    H152648   3.165   5.649   4.605  0.3389  0.2782 -0.1874
10411TIP3    H252649   3.192   5.793   4.642 -1.2058  0.5618 -0.0883
10412TIP3   OH252650   6.326   0.660   2.703 -0.2052  0.0331 -0.4799
10412TIP3    H152651   6.261   0.692   2.765 -0.6136 -0.5116 -0.6224
10412TIP3    H252652   6.286   0.673   2.617  0.1542  0.3234 -0.6067
10413TIP3   OH252653   3.843   1.498  12.559 -0.0880  0.3458  0.4131
10413TIP3    H152654   3.804   1.560  12.497 -0.2477  1.6789  1.7766
10413TIP3    H252655   3.937   1.518  12.555  0.1712 -0.9738 -0.8522
10414TIP3   OH252656   0.228   6.342  15.007 -0.4151 -0.0706 -0.2562
10414TIP3    H152657   0.200   6.425  14.967  2.1094 -0.1858 -2.5842
10414TIP3    H252658   0.189   6.275  14.951  0.3087 -0.3357 -0.4518
10415TIP3   OH252659   0.727   0.507  12.229  0.1137  0.1398 -0.5107
10415TIP3    H152660   0.658   0.562  12.266 -0.9038 -1.5346  0.2338
10415TIP3    H252661   0.746   0.545  12.143 -2.2432  0.2890 -1.0230
10416TIP3   OH252662   5.077   0.126   2.645  0.8791 -0.4347 -0.2420
10416TIP3    H152663   5.109   0.126   2.735 -1.1418 -2.7862  0.5901
10416TIP3    H252664   5.033   0.210   2.636  0.5918 -0.4011  1.1892
10417TIP3   OH252665   0.757   2.955   1.886 -0.1394 -0.2129 -0.4686
10417TIP3    H152666   0.682   2.921   1.837  0.8544 -1.5944 -1.0971
10417TIP3    H252667   0.726   3.038   1.923 -1.7145 -0.3688 -1.3545
10418TIP3   OH252668   6.412   0.219  16.866 -0.2545 -0.1650 -0.4444
10418TIP3    H152669   6.403   0.259  16.952 -0.3329 -0.3571 -0.3632
10418TIP3    H252670   6.322   0.208  16.835 -0.2012  1.3569 -1.2245
10419TIP3   OH252671   4.918   0.689  11.552  0.2819 -0.1777 -0.4930
10419TIP3    H152672   4.926   0.739  11.633 -0.7283 -0.5984 -0.1172
10419TIP3    H252673   4.906   0.756  11.484 -1.4659  0.1152  0.0572
10420TIP3   OH252674   0.067   6.446   0.420  0.5489 -0.3117  0.2587
10420TIP3    H152675   0.078   6.369   0.476 -0.2250  0.4539  1.4975
10420TIP3    H252676   0.143   6.501   0.440  0.9982 -0.6412 -0.4825
10421TIP3   OH252677   5.994   5.307   0.564 -0.0014 -0.1669  0.6956
10421TIP3    H152678   5.945   5.286   0.643  0.2416 -0.6790  0.7158
10421TIP3    H252679   6.040   5.225   0.542 -1.1423 -0.4416 -0.7612
10422TIP3   OH252680   3.389   1.244   5.931  0.4246  0.2110  0.2201
10422TIP3    H152681   3.451   1.178   5.962 -0.8932 -0.6814  1.0551
10422TIP3    H252682   3.303   1.210   5.956 -0.5330  0.7899 -1.9840
10423TIP3   OH252683   6.644   2.983   3.078 -0.0287 -0.2576  0.0146
10423TIP3    H152684   6.604   2.919   3.020  1.3728 -0.5945 -0.6157
10423TIP3    H252685   6.718   3.017   3.028  0.6785  0.0911  1.2746
10424TIP3   OH252686   4.578   4.852   2.733 -0.4971  0.2092  0.2646
10424TIP3    H152687   4.552   4.761   2.722 -0.1245  0.1047  0.2667
10424TIP3    H252688   4.541   4.897   2.657  1.5552 -0.4003 -1.1869
10425TIP3   OH252689   6.548   0.223  14.500  0.1802  0.1498 -0.6332
10425TIP3    H152690   6.534   0.302  14.448 -0.4123  1.0375  0.8191
10425TIP3    H252691   6.538   0.151  14.437 -1.6061  1.1278 -1.5530
10426TIP3   OH252692   2.261   1.345  10.945  0.7886  0.0935  0.1519
10426TIP3    H152693   2.332   1.302  10.897  0.4229  0.8962 -1.1447
10426TIP3    H252694   2.290   1.437  10.952 -0.7790  0.8071 -1.8021
10427TIP3   OH252695   5.138   2.765  17.287  0.4269 -0.5758 -0.7722
10427TIP3    H152696   5.148   2.732  17.197  0.1585  0.0454 -1.0334
10427TIP3    H252697   5.057   2.816  17.285  0.7671 -0.0083 -0.3462
10428TIP3   OH252698   5.680   1.248   2.208 -0.0699 -0.2258  0.3631
10428TIP3    H152699   5.697   1.155   2.200  1.9504  0.0229  1.1819
10428TIP3    H252700   5.748   1.280   2.268 -0.2139  1.9068 -0.5212
10429TIP3   OH252701   3.222   0.633   1.881  0.2336 -0.0142 -0.3844
10429TIP3    H152702   3.312   0.658   1.861  0.1968  1.0900  0.7234
10429TIP3    H252703   3.184   0.711   1.922 -0.3488 -1.3965  1.8478
10430TIP3   OH252704   2.890   3.257   3.775 -0.5346  0.1351 -0.3578
10430TIP3    H152705   2.953   3.219   3.713 -1.2691  0.1592 -1.1269
10430TIP3    H252706   2.939   3.263   3.857  0.7849  1.0308 -1.1662
10431TIP3   OH252707   3.735   1.193   4.552  0.3303 -0.3365  0.2352
10431TIP3    H152708   3.690   1.258   4.606  2.3709  0.2183  1.3847
10431TIP3    H252709   3.768   1.242   4.477  1.8366 -0.0009  1.0832
10432TIP3   OH252710   1.771   6.188  14.296  0.4151 -0.3940 -0.0019
10432TIP3    H152711   1.857   6.190  14.337  1.3082  0.6574 -1.7967
10432TIP3    H252712   1.763   6.274  14.255 -2.0229 -0.0021  1.0910
10433TIP3   OH252713   1.738   1.217  16.290 -0.1110 -0.6272  0.0453
10433TIP3    H152714   1.717   1.309  16.306 -0.8526 -0.6539 -0.7013
10433TIP3    H252715   1.715   1.173  16.372 -0.6342 -0.2800  0.0905
10434TIP3   OH252716   0.938   3.107  15.901 -0.2722 -0.3874  0.2363
10434TIP3    H152717   0.945   3.158  15.821 -1.0184 -0.4924  0.0934
10434TIP3    H252718   1.027   3.102  15.935  0.0613 -0.4424 -0.6429
10435TIP3   OH252719   4.124   6.563  16.360 -0.6548 -0.4433  0.8306
10435TIP3    H152720   4.042   6.611  16.369 -1.5203 -1.4173 -1.2008
10435TIP3    H252721   4.189   6.619  16.402 -1.9227  1.6180  0.2156
10436TIP3   OH252722   2.453   3.684   2.951 -0.5726  0.0357  0.2373
10436TIP3    H152723   2.503   3.765   2.963 -0.6535  0.2865 -0.9728
10436TIP3    H252724   2.380   3.691   3.013 -1.0089  1.2650 -0.3762
10437TIP3   OH252725   5.210   0.865   3.093 -0.4126  0.7560 -0.2752
10437TIP3    H152726   5.210   0.961   3.098  1.5598  0.7850 -0.0850
10437TIP3    H252727   5.301   0.840   3.111 -0.8468 -1.1456 -0.5325
10438TIP3   OH252728   0.682   2.502  16.650 -0.2656  0.3816 -0.5705
10438TIP3    H152729   0.760   2.557  16.645 -0.1458  0.2823  0.0739
10438TIP3    H252730   0.711   2.425  16.701 -1.3195  1.3221  1.5855
10439TIP3   OH252731   0.719   0.317  16.453  0.5141 -0.3442 -0.2983
10439TIP3    H152732   0.796   0.302  16.508  0.6776 -1.8129 -0.8949
10439TIP3    H252733   0.743   0.281  16.368 -0.8062 -0.7328 -0.5227
10440TIP3   OH252734   2.763   0.988   0.864 -0.2944  0.6458  0.1739
10440TIP3    H152735   2.757   0.987   0.768 -0.8023 -1.5652  0.1634
10440TIP3    H252736   2.730   1.074   0.889 -0.0188  1.3249 -1.6428
10441TIP3   OH252737   1.396   3.016  11.291 -0.0534 -0.6040 -0.1617
10441TIP3    H152738   1.319   3.039  11.238  0.9072 -2.1012 -2.3688
10441TIP3    H252739   1.467   3.009  11.228  1.7940  0.0830  1.7342
10442TIP3   OH252740   1.230   4.684   2.426  0.0628 -0.5208 -0.5970
10442TIP3    H152741   1.187   4.633   2.358  1.7841 -0.6990 -1.6036
10442TIP3    H252742   1.233   4.773   2.391  0.0520 -0.4102 -0.3194
10443TIP3   OH252743   1.770   6.714   2.897 -0.9886  0.1364  0.6127
10443TIP3    H152744   1.858   6.750   2.886 -0.9027 -0.4745 -1.1183
10443TIP3    H252745   1.712   6.778   2.855 -1.0372 -0.7354 -0.7272
10444TIP3   OH252746   6.318   5.624  12.106  0.4585 -1.0094  0.1890
10444TIP3    H152747   6.328   5.600  12.013  0.4857 -1.1937  0.2387
10444TIP3    H252748   6.320   5.540  12.152 -1.2267 -1.0601  0.2245
10445TIP3   OH252749   6.324   6.592  13.869 -0.1015 -0.0564  0.3590
10445TIP3    H152750   6.324   6.633  13.782 -0.1373 -0.3301  0.2300
10445TIP3    H252751   6.286   6.505  13.855 -0.7071  0.1329  0.7603
10446TIP3   OH252752   5.013   2.370  13.196 -0.3058 -0.3082 -0.0530
10446TIP3    H152753   4.938   2.374  13.137 -1.9233 -1.3545  1.8026
10446TIP3    H252754   5.052   2.284  13.180  0.0159 -0.0885 -0.4573
10447TIP3   OH252755   0.098   2.480   6.828  0.0017 -0.0519  0.6989
10447TIP3    H152756   0.176   2.482   6.773  0.0336 -1.1728  0.6753
10447TIP3    H252757   0.049   2.557   6.802  0.5979  0.0992 -0.0395
10448TIP3   OH252758   6.183   6.516  14.432 -0.2378 -0.1788 -0.1927
10448TIP3    H152759   6.190   6.601  14.388  0.7134  0.5959  1.3596
10448TIP3    H252760   6.106   6.475  14.393 -1.4160  1.8937 -0.1854
10449TIP3   OH252761   1.682   5.545  12.708 -0.2156 -0.7218 -0.2126
10449TIP3    H152762   1.699   5.591  12.625 -0.2633 -0.9055 -0.3224
10449TIP3    H252763   1.762   5.560  12.760  0.2215 -1.4498 -0.6691
10450TIP3   OH252764   6.220   5.772  15.106 -0.2701 -0.0781  0.1817
10450TIP3    H152765   6.127   5.771  15.082  0.0522 -2.2615 -1.1967
10450TIP3    H252766   6.262   5.824  15.038 -0.4107  0.7435  0.6988
10451TIP3   OH252767   4.534   1.558   3.395 -0.0836  0.4017  0.4869
10451TIP3    H152768   4.442   1.548   3.418 -0.3072  0.8563 -0.2003
10451TIP3    H252769   4.557   1.475   3.353 -0.4169  0.6229 -0.1331
10452TIP3   OH252770   5.182   0.885  11.627  0.3089  0.2071  0.1231
10452TIP3    H152771   5.112   0.924  11.575  1.6380  0.7035 -1.3647
10452TIP3    H252772   5.175   0.929  11.712 -1.3534  0.0130  0.1266
10453TIP3   OH252773   5.261   5.505   3.467  0.0551 -0.4160  0.2795
10453TIP3    H152774   5.177   5.549   3.459 -0.9339 -1.9114  1.6962
10453TIP3    H252775   5.286   5.517   3.559  1.5065  0.1630 -0.1551
10454TIP3   OH252776   5.133   4.075  16.393  0.3891  0.3363  0.4170
10454TIP3    H152777   5.180   4.157  16.407 -0.0901  0.4173  1.6408
10454TIP3    H252778   5.193   4.007  16.424  0.4232  0.2900  0.2522
10455TIP3   OH252779   3.453   6.318   0.165  0.1090  0.1368 -0.4900
10455TIP3    H152780   3.383   6.351   0.108  0.4100  0.0976 -0.8861
10455TIP3    H252781   3.480   6.236   0.124 -0.9122 -0.8395  0.7106
10456TIP3   OH252782   5.527   1.744   4.307 -0.0339 -0.7453 -0.0982
10456TIP3    H152783   5.473   1.667   4.324 -4.2951  2.2402  1.7702
10456TIP3    H252784   5.514   1.800   4.384  1.8794  2.3308 -1.7867
10457TIP3   OH252785   3.170   3.664   2.799  0.0184  0.1643  0.1316
10457TIP3    H152786   3.163   3.572   2.824 -0.7132  0.6755  1.9577
10457TIP3    H252787   3.084   3.686   2.763  0.6338 -0.1916 -1.6916
10458TIP3   OH252788   1.573   2.104  15.383 -0.5797 -0.2403  0.2049
10458TIP3    H152789   1.630   2.041  15.339 -1.5773 -0.1812 -1.2384
10458TIP3    H252790   1.538   2.158  15.312  1.1291  2.7630  1.4495
10459TIP3   OH252791   0.113   3.887   5.272  0.1198  0.0460 -0.4200
10459TIP3    H152792   0.127   3.979   5.247  0.6167  0.5983  1.6599
10459TIP3    H252793   0.197   3.860   5.309 -0.6150 -0.6048  0.8264
10460TIP3   OH252794   4.156   0.694   5.569 -0.4978  0.4466  0.6090
10460TIP3    H152795   4.185   0.604   5.587  2.7695  1.4449  1.0239
10460TIP3    H252796   4.118   0.724   5.651 -0.2482 -0.0657  0.9176
10461TIP3   OH252797   1.051   2.819  13.199  0.4552 -0.4595 -0.4625
10461TIP3    H152798   1.028   2.882  13.267  0.9472  0.4540 -1.1114
10461TIP3    H252799   0.972   2.769  13.184 -0.1573  0.4676 -0.4066
10462TIP3   OH252800   5.270   3.564  16.553 -0.8165 -0.1587 -0.7964
10462TIP3    H152801   5.348   3.525  16.594 -1.3793  0.4235  0.9337
10462TIP3    H252802   5.301   3.646  16.516 -0.3944 -0.4406 -1.0821
10463TIP3   OH252803   1.330   5.539  10.631 -0.5135 -0.5811 -0.5819
10463TIP3    H152804   1.312   5.602  10.561  1.1087  0.0396 -0.4964
10463TIP3    H252805   1.422   5.513  10.616  0.1048  0.0902  1.6918
10464TIP3   OH252806   3.731   0.954   4.319 -0.1108 -0.1934 -0.5322
10464TIP3    H152807   3.682   0.962   4.401  0.6914 -0.3971 -0.0222
10464TIP3    H252808   3.793   0.882   4.335 -1.5331 -1.8482 -2.1446
10465TIP3   OH252809   4.533   1.448  17.327  0.1327  0.3488  0.2641
10465TIP3    H152810   4.440   1.427  17.342 -0.3986  1.2033 -1.4976
10465TIP3    H252811   4.531   1.522  17.266  1.9920  0.4423  0.2572
10466TIP3   OH252812   4.584   5.083   4.035  0.0486  0.0435  0.6265
10466TIP3    H152813   4.670   5.124   4.050  0.8289 -0.4694 -1.9707
10466TIP3    H252814   4.604   4.991   4.017 -1.1649 -0.3053  0.9536
10467TIP3   OH252815   5.941   4.688   1.672 -0.1584  0.0143 -0.0425
10467TIP3    H152816   5.914   4.672   1.763  1.4758  0.3992  0.5304
10467TIP3    H252817   5.996   4.766   1.676  1.4771 -1.0354 -1.0771
10468TIP3   OH252818   0.997   2.343   3.682  0.4257 -0.7355  0.1858
10468TIP3    H152819   0.910   2.347   3.643  0.6877 -0.8709 -0.4268
10468TIP3    H252820   1.010   2.251   3.704 -0.1683 -0.4903  1.6530
10469TIP3   OH252821   4.706   4.694   1.473  0.3842  0.4150  0.3036
10469TIP3    H152822   4.644   4.675   1.544 -1.5409  1.8262 -0.8985
10469TIP3    H252823   4.792   4.688   1.514 -0.6492  1.4532  2.8502
10470TIP3   OH252824   3.394   5.041   3.263 -0.3461 -0.1822  0.4659
10470TIP3    H152825   3.432   5.052   3.177 -0.8318 -0.4211  0.2148
10470TIP3    H252826   3.331   5.113   3.271 -0.1500 -0.0354  0.7070
10471TIP3   OH252827   2.031   2.000  12.605 -0.2427  0.2214  0.2370
10471TIP3    H152828   1.989   2.081  12.576 -0.4345 -0.2247 -0.7717
10471TIP3    H252829   1.972   1.931  12.576  0.6345 -0.3560 -0.2098
10472TIP3   OH252830   3.796   5.945  12.909  0.6841  0.0375  0.0084
10472TIP3    H152831   3.769   5.947  13.001 -0.5840 -1.7899 -0.2768
10472TIP3    H252832   3.891   5.944  12.912  0.6506 -0.4568  1.3289
10473TIP3   OH252833   3.783   0.277  13.666 -0.1632 -0.5981  0.4001
10473TIP3    H152834   3.687   0.275  13.662 -0.1318 -1.4921 -2.5178
10473TIP3    H252835   3.803   0.301  13.757 -3.1259 -0.1253  1.0386
10474TIP3   OH252836   1.222   1.867  15.981  0.5209  0.1287  0.3303
10474TIP3    H152837   1.299   1.826  15.941 -0.6480 -1.6880 -0.1625
10474TIP3    H252838   1.169   1.794  16.012 -0.5859  1.3719  1.5033
10475TIP3   OH252839   1.700   2.031   5.433  0.0799  0.1291  0.2701
10475TIP3    H152840   1.662   1.973   5.499  0.7637  1.0120  1.4657
10475TIP3    H252841   1.675   2.119   5.460  1.0821  0.5697 -0.1716
10476TIP3   OH252842   4.097   4.042   3.703 -0.1426 -0.3040  0.4760
10476TIP3    H152843   4.009   4.043   3.664 -1.1018 -1.6947  2.4115
10476TIP3    H252844   4.119   4.134   3.714 -1.5199  0.0806  0.2514
10477TIP3   OH252845   0.569   5.279   2.104 -0.6424 -0.1698 -0.9983
10477TIP3    H152846   0.631   5.343   2.139  0.0606 -0.5761 -1.4803
10477TIP3    H252847   0.533   5.236   2.182  0.2596 -0.4665 -0.7226
10478TIP3   OH252848   5.272   2.235  11.702  0.0218 -0.3149  0.0472
10478TIP3    H152849   5.319   2.214  11.783  0.2895 -0.2260 -0.0825
10478TIP3    H252850   5.204   2.169  11.696 -1.2642  0.8316  1.3658
10479TIP3   OH252851   1.428   0.514   4.739 -0.6068  0.4539 -0.0787
10479TIP3    H152852   1.356   0.553   4.690 -0.3962 -0.1881 -0.9302
10479TIP3    H252853   1.469   0.453   4.677  0.6182  0.7520  0.4099
10480TIP3   OH252854   1.109   2.642  15.804  0.2180  0.1595 -0.2375
10480TIP3    H152855   1.177   2.582  15.835  1.2145  0.0999 -2.3188
10480TIP3    H252856   1.042   2.584  15.768 -0.5351  0.2445  0.9815
10481TIP3   OH252857   2.697   5.812  16.632  0.1969 -0.1749 -0.1037
10481TIP3    H152858   2.770   5.776  16.683 -1.4388 -2.1342  1.0469
10481TIP3    H252859   2.627   5.824  16.697 -0.9961  0.1753 -1.4131
10482TIP3   OH252860   6.648   6.095   2.920 -0.3349  0.8131 -0.1636
10482TIP3    H152861   6.663   6.000   2.917  1.5510  1.0890 -2.5901
10482TIP3    H252862   6.565   6.105   2.967  0.5097 -1.8653  2.1519
10483TIP3   OH252863   1.635   4.264  14.981 -0.1350  0.1130 -0.3772
10483TIP3    H152864   1.698   4.271  14.909 -0.9242 -0.3857 -1.1326
10483TIP3    H252865   1.604   4.354  14.994  1.0395  0.4416  0.3027
10484TIP3   OH252866   6.610   5.851   5.768 -0.2567  0.5304 -0.0877
10484TIP3    H152867   6.574   5.766   5.746 -0.8871  1.0816 -1.2601
10484TIP3    H252868   6.584   5.866   5.859 -1.5045  0.1642 -0.3716
10485TIP3   OH252869   6.635   2.362  13.686  0.2298  0.5329 -0.2500
10485TIP3    H152870   6.583   2.386  13.609 -1.4087  0.2654  0.7104
10485TIP3    H252871   6.688   2.439  13.704 -1.5575  1.7706  0.0563
10486TIP3   OH252872   2.135   5.974  14.383  0.3361 -0.5775 -0.0613
10486TIP3    H152873   2.113   5.983  14.290 -1.8382 -0.7130  0.3864
10486TIP3    H252874   2.169   6.060  14.407  0.6277 -0.4439 -0.9015
10487TIP3   OH252875   5.593   5.053   0.424  0.1910 -0.1784  0.2792
10487TIP3    H152876   5.588   4.959   0.408  0.4934 -0.2165  0.3953
10487TIP3    H252877   5.508   5.075   0.462 -0.3458 -0.1697 -0.9030
10488TIP3   OH252878   2.691   2.942   5.220  0.5691 -0.4839 -0.8005
10488TIP3    H152879   2.649   2.990   5.149 -0.6962 -1.7378 -0.9458
10488TIP3    H252880   2.619   2.900   5.267  1.5528 -1.6825 -0.2881
10489TIP3   OH252881   5.900   3.157  13.355  0.1369 -0.2625 -0.2273
10489TIP3    H152882   5.921   3.209  13.433  0.5340 -1.1468  0.2671
10489TIP3    H252883   5.820   3.111  13.379 -0.7315  0.8020 -1.0046
10490TIP3   OH252884   2.790   2.988   0.495 -0.1480 -0.0488  0.3012
10490TIP3    H152885   2.770   3.046   0.569 -0.0422  0.9830 -0.4500
10490TIP3    H252886   2.855   2.927   0.528  0.8529  1.1970  0.7260
10491TIP3   OH252887   4.306   5.509   0.174  0.8910  0.5587  0.4446
10491TIP3    H152888   4.266   5.475   0.094 -1.3990  2.6206  0.6016
10491TIP3    H252889   4.240   5.496   0.242  2.4063 -0.2643  1.8362
10492TIP3   OH252890   6.350   2.336  12.463 -0.3289  0.6601  0.2039
10492TIP3    H152891   6.295   2.317  12.538 -1.7563  2.5630 -0.2889
10492TIP3    H252892   6.378   2.250  12.430 -1.8262 -0.2833  1.3216
10493TIP3   OH252893   1.625   3.220  13.950 -0.2537  0.0637  0.1676
10493TIP3    H152894   1.701   3.267  13.916 -0.5326  1.6291  1.5752
10493TIP3    H252895   1.559   3.289  13.963 -1.5600 -1.1058 -0.0567
10494TIP3   OH252896   4.579   3.115   2.833 -0.1093  0.0849  0.4540
10494TIP3    H152897   4.489   3.085   2.815 -0.0350  0.1954 -0.1004
10494TIP3    H252898   4.568   3.201   2.872 -0.2469  0.0682  0.4542
10495TIP3   OH252899   3.262   4.896  15.548 -0.0779 -0.1198  0.2608
10495TIP3    H152900   3.286   4.988  15.560  1.0470 -0.1641 -1.3292
10495TIP3    H252901   3.320   4.849  15.608 -0.6353  0.1895  1.0596
10496TIP3   OH252902   4.779   1.424   5.868  0.2755  0.6136 -0.2060
10496TIP3    H152903   4.801   1.508   5.908  0.8382  0.4747 -0.2155
10496TIP3    H252904   4.687   1.434   5.842  0.0911  0.9293  0.5353
10497TIP3   OH252905   1.619   3.630  16.167  0.5280 -0.7220  0.5009
10497TIP3    H152906   1.635   3.711  16.120  2.5341  0.1496  2.5029
10497TIP3    H252907   1.562   3.655  16.241 -0.4555 -1.5522  0.0578
10498TIP3   OH252908   1.468   3.916  11.745 -0.3216  0.4758 -0.1277
10498TIP3    H152909   1.478   3.874  11.660  1.0696 -0.6425  0.5343
10498TIP3    H252910   1.407   3.859  11.792 -0.3936  0.5872 -0.0878
10499TIP3   OH252911   5.451   0.441  15.351  0.3834 -0.3892 -0.3671
10499TIP3    H152912   5.417   0.483  15.429  2.1466  0.8016 -0.1920
10499TIP3    H252913   5.415   0.352  15.354 -0.6975  0.0589  1.0233
10500TIP3   OH252914   1.394   0.299   0.552  0.2433  0.0435 -0.7425
10500TIP3    H152915   1.455   0.273   0.620  1.4197  1.2198 -1.3146
10500TIP3    H252916   1.326   0.231   0.553  0.0112  0.2212  1.8246
10501TIP3   OH252917   5.088   1.424   3.273  0.1368  0.2932 -0.1417
10501TIP3    H152918   5.149   1.463   3.211 -0.4075  0.0562 -0.8430
10501TIP3    H252919   5.111   1.331   3.273 -0.7312  0.0681 -1.0168
10502TIP3   OH252920   3.809   0.342  13.922  0.0462  0.1343 -0.4491
10502TIP3    H152921   3.835   0.262  13.968 -1.3055 -0.4062 -0.5802
10502TIP3    H252922   3.822   0.412  13.986 -0.3470 -0.4173  0.2503
10503TIP3   OH252923   1.441   2.121  15.094 -0.2982  0.1080 -0.2547
10503TIP3    H152924   1.416   2.213  15.104 -0.5302  0.3130 -2.3154
10503TIP3    H252925   1.537   2.121  15.093 -0.2069 -0.0289  2.2420
10504TIP3   OH252926   3.528   2.434   2.974  0.0084  0.2544 -0.3452
10504TIP3    H152927   3.516   2.341   2.993 -1.4168  0.5368  0.2910
10504TIP3    H252928   3.525   2.440   2.879  1.1051 -0.4586 -0.4358
10505TIP3   OH252929   0.585   1.048   2.962 -0.4562  0.3029 -0.4104
10505TIP3    H152930   0.602   1.047   3.056  1.9947  0.7393 -0.7746
10505TIP3    H252931   0.585   0.955   2.937 -3.9538 -0.0412  0.3491
10506TIP3   OH252932   0.884   0.421  16.914  0.1180 -0.2395 -0.3967
10506TIP3    H152933   0.854   0.459  16.996  1.1224 -0.8321  0.2742
10506TIP3    H252934   0.979   0.435  16.915  0.2395 -0.9312 -1.0973
10507TIP3   OH252935   1.042   0.608  13.876 -0.0675  0.2830  0.5468
10507TIP3    H152936   0.972   0.571  13.823  0.2634  0.8148 -0.2750
10507TIP3    H252937   1.012   0.696  13.897 -0.6367 -0.2419  2.0965
10508TIP3   OH252938   2.926   4.937   3.806  0.4454  0.0564 -0.3758
10508TIP3    H152939   3.018   4.912   3.811  0.8088  1.1126 -1.4962
10508TIP3    H252940   2.880   4.868   3.854  1.9631  0.4056  1.7417
10509TIP3   OH252941   4.685   5.617   6.032  0.2660 -0.4601 -0.5267
10509TIP3    H152942   4.656   5.564   5.958  1.0392 -0.6562 -0.6970
10509TIP3    H252943   4.763   5.572   6.065 -0.6727 -0.9995  1.0939
10510TIP3   OH252944   1.071   5.565   3.186 -0.0054  0.8958  0.2023
10510TIP3    H152945   1.066   5.594   3.277 -2.2393  2.3422 -0.3122
10510TIP3    H252946   1.154   5.602   3.154 -0.3653  2.4962  0.9876
10511TIP3   OH252947   3.493   6.358   3.644 -0.3130 -0.0553 -0.0205
10511TIP3    H152948   3.427   6.407   3.692  0.8011  1.2965  0.2159
10511TIP3    H252949   3.471   6.372   3.552 -1.2760 -0.9748  0.0517
10512TIP3   OH252950   3.680   1.169  12.509  0.3983  0.0251  0.6345
10512TIP3    H152951   3.717   1.082  12.495 -0.9240 -0.3469 -0.8984
10512TIP3    H252952   3.630   1.161  12.590  1.1113 -0.3342  1.0487
10513TIP3   OH252953   2.195   3.510  11.822 -0.5995  0.4313  0.5037
10513TIP3    H152954   2.103   3.525  11.803 -0.4964  0.2516 -0.1712
10513TIP3    H252955   2.203   3.416  11.834 -0.2035  0.1891 -1.2798
10514TIP3   OH252956   0.803   4.202   0.406 -0.6490  0.2807 -0.1555
10514TIP3    H152957   0.802   4.178   0.499 -1.7688  0.8715  0.0006
10514TIP3    H252958   0.794   4.297   0.406  1.5725  0.5509 -0.8291
10515TIP3   OH252959   1.019   6.422  11.518  0.6337 -0.0265  0.1964
10515TIP3    H152960   1.016   6.494  11.580  0.9849 -0.1570  0.3682
10515TIP3    H252961   1.089   6.366  11.550  1.1146  0.1281 -0.5504
10516TIP3   OH252962   2.103   2.298  10.691  0.8261 -0.8180 -0.6530
10516TIP3    H152963   2.020   2.266  10.726  0.2881  1.4094  0.3040
10516TIP3    H252964   2.079   2.374  10.638  2.2185 -0.2868 -0.5643
10517TIP3   OH252965   5.429   4.421   1.338  0.5079 -0.3732 -0.4369
10517TIP3    H152966   5.519   4.423   1.372  0.5291  0.7970 -0.4873
10517TIP3    H252967   5.380   4.368   1.401  1.1435 -0.6347 -0.1530
10518TIP3   OH252968   5.034   2.176   3.402  0.3852  0.0808 -0.0027
10518TIP3    H152969   5.003   2.086   3.403 -1.2550  0.6173  0.4121
10518TIP3    H252970   5.098   2.179   3.332  0.0925 -1.2884 -0.3495
10519TIP3   OH252971   5.920   5.334   4.294  0.2417 -0.7609 -0.6347
10519TIP3    H152972   5.912   5.256   4.349  3.1014  0.0276  1.1262
10519TIP3    H252973   5.861   5.398   4.334 -0.4473 -1.3161 -0.7453
10520TIP3   OH252974   1.074   1.346  13.243  0.0526 -0.0662  0.0981
10520TIP3    H152975   0.987   1.307  13.253  0.3943 -1.0215 -0.5450
10520TIP3    H252976   1.059   1.440  13.252 -0.8926 -0.2810  1.0053
10521TIP3   OH252977   0.120   6.194   3.609  0.5548 -0.1619 -0.0661
10521TIP3    H152978   0.152   6.172   3.521 -0.1302 -0.5353 -0.2347
10521TIP3    H252979   0.040   6.143   3.618 -0.1340  0.9265  0.2337
10522TIP3   OH252980   1.609   5.817  16.980 -0.1904  0.2390  0.4590
10522TIP3    H152981   1.653   5.732  16.986  2.0190  1.2882  0.2337
10522TIP3    H252982   1.587   5.839  17.070 -0.3174 -0.3661  0.5761
10523TIP3   OH252983   4.326   4.394   5.044  0.2783 -0.1641  0.7313
10523TIP3    H152984   4.308   4.343   4.966  2.7779 -0.1004  0.0301
10523TIP3    H252985   4.303   4.336   5.117 -0.4774 -0.8519 -0.0358
10524TIP3   OH252986   3.600   4.847  11.272 -0.3346 -0.4653 -0.1496
10524TIP3    H152987   3.694   4.834  11.264 -0.2238  0.3938 -0.3890
10524TIP3    H252988   3.576   4.898  11.194 -0.9376 -0.3932  0.0761
10525TIP3   OH252989   3.555   1.406   3.981  0.1174 -0.1887  0.0647
10525TIP3    H152990   3.632   1.352   3.960  0.1145 -0.0522 -0.3048
10525TIP3    H252991   3.585   1.496   3.969  0.1136 -0.1006  0.6595
10526TIP3   OH252992   3.917   1.794   6.474 -0.1105 -0.0979  0.2256
10526TIP3    H152993   3.929   1.887   6.455  1.1511 -0.2932 -0.0193
10526TIP3    H252994   3.989   1.772   6.533 -0.0253 -1.0685 -0.2240
10527TIP3   OH252995   5.434   4.689  14.617  0.3859  0.3159 -0.0685
10527TIP3    H152996   5.390   4.650  14.692 -0.1269  0.9223 -0.0468
10527TIP3    H252997   5.423   4.784  14.628 -2.3106  0.4184 -2.4120
10528TIP3   OH252998   5.557   0.561   2.349  0.0430  0.1465  0.2530
10528TIP3    H152999   5.548   0.614   2.428 -2.0717  0.6353 -0.2337
10528TIP3    H253000   5.591   0.477   2.379 -1.6275 -0.0219  1.8473
10529TIP3   OH253001   6.575   6.125   5.009  0.6298 -0.2351 -0.8654
10529TIP3    H153002   6.530   6.206   4.987  1.5040 -0.4236 -3.8477
10529TIP3    H253003   6.664   6.138   4.976  1.2223 -1.8464  0.0107
10530TIP3   OH253004   3.045   2.156  13.271  0.3699 -0.3531 -0.3711
10530TIP3    H153005   3.097   2.119  13.342  0.0532  0.1836  0.1496
10530TIP3    H253006   3.005   2.234  13.309 -1.2068 -1.0107 -0.6301
10531TIP3   OH253007   1.450   6.642   5.756 -0.3551  0.2133  0.3989
10531TIP3    H153008   1.360   6.610   5.749 -0.8075  1.5688 -0.3249
10531TIP3    H253009   1.503   6.574   5.714 -0.4688 -2.5748  4.2583
10532TIP3   OH253010   3.112   0.477  11.116 -0.5677 -0.9015  0.0679
10532TIP3    H153011   3.167   0.416  11.066  0.3082 -0.7738  0.8404
10532TIP3    H253012   3.038   0.495  11.058 -0.9282 -2.7862 -0.1341
10533TIP3   OH253013   5.698   6.179   4.107 -0.1512 -0.1652 -0.3048
10533TIP3    H153014   5.678   6.088   4.084 -0.2703 -0.6292  1.4724
10533TIP3    H253015   5.789   6.177   4.135 -0.6999 -0.1573  1.6016
10534TIP3   OH253016   4.312   5.797   1.418  0.0707  0.4449 -0.3797
10534TIP3    H153017   4.237   5.749   1.383  2.6117 -3.1983 -1.3791
10534TIP3    H253018   4.354   5.836   1.341 -0.0512  1.4153  0.0220
10535TIP3   OH253019   1.970   0.850  16.788 -0.4706 -0.2573 -0.2198
10535TIP3    H153020   2.025   0.881  16.860 -0.4976  0.5694 -0.5457
10535TIP3    H253021   2.032   0.820  16.722 -0.4102  0.4330 -0.4813
10536TIP3   OH253022   3.791   4.074  17.349 -0.2779  0.0259 -0.4334
10536TIP3    H153023   3.754   4.049  17.265  0.1621 -1.0697 -0.3133
10536TIP3    H253024   3.876   4.031  17.352  1.2381  2.7223 -0.8416
10537TIP3   OH253025   1.160   3.671   1.404 -0.2441 -0.3822 -0.0846
10537TIP3    H153026   1.078   3.684   1.452 -1.8843  2.0643 -3.1569
10537TIP3    H253027   1.210   3.751   1.421 -0.0462 -0.3134 -0.9715
10538TIP3   OH253028   4.162   3.847   3.868  0.8163  0.3263 -0.2356
10538TIP3    H153029   4.145   3.917   3.805 -1.0196 -2.2550 -2.8569
10538TIP3    H253030   4.235   3.798   3.830 -1.4524 -2.3253 -1.5272
10539TIP3   OH253031   1.022   5.594  17.327  0.2390  0.4123  0.3477
10539TIP3    H153032   1.112   5.590  17.297  0.0823 -0.3908 -0.0535
10539TIP3    H253033   0.972   5.627  17.252  0.3089  1.7138  0.8539
10540TIP3   OH253034   6.317   1.614   3.153  0.4852 -0.3121  0.7011
10540TIP3    H153035   6.268   1.566   3.085 -0.0686 -0.1777  1.0020
10540TIP3    H253036   6.338   1.698   3.112 -0.0146 -0.1561  0.7584
10541TIP3   OH253037   1.540   3.996  17.155  0.1400  0.4880  0.3598
10541TIP3    H153038   1.577   3.908  17.152 -0.0937  0.3585  1.1664
10541TIP3    H253039   1.615   4.054  17.145  0.5001  0.2157  1.3483
10542TIP3   OH253040   3.838   4.225  16.218 -0.2402  0.4223  0.3597
10542TIP3    H153041   3.882   4.144  16.194  1.3037  1.2788  0.2070
10542TIP3    H253042   3.874   4.248  16.303 -1.4257  0.4368  0.8778
10543TIP3   OH253043   4.773   2.443  13.012 -0.1261 -0.3381  0.1665
10543TIP3    H153044   4.738   2.433  12.924 -0.1672 -1.3571  0.2885
10543TIP3    H253045   4.698   2.426  13.069 -0.0036 -0.0912  0.3995
10544TIP3   OH253046   5.816   5.480  15.220  0.1760 -0.3732  0.0329
10544TIP3    H153047   5.791   5.447  15.307  2.1480 -1.3566  0.2601
10544TIP3    H253048   5.776   5.419  15.159  1.2507 -1.4547  0.3696
10545TIP3   OH253049   3.064   1.258  12.181 -0.3316  0.1811 -0.1566
10545TIP3    H153050   3.130   1.264  12.250  0.0412 -0.2114 -0.4691
10545TIP3    H253051   3.008   1.185  12.208  1.4227 -1.8249 -1.5712
10546TIP3   OH253052   5.710   2.674  11.729  0.2346  0.3074  0.5559
10546TIP3    H153053   5.790   2.622  11.735  3.1727  3.8321 -2.7956
10546TIP3    H253054   5.733   2.758  11.768 -2.4482  0.9591  0.9248
10547TIP3   OH253055   3.044   5.502   3.591  0.4140  0.3233  0.3845
10547TIP3    H153056   3.100   5.501   3.669 -1.2008  1.2013  1.6108
10547TIP3    H253057   3.050   5.592   3.559 -0.0900  0.3609  0.3871
10548TIP3   OH253058   0.207   2.049   2.147 -0.4027  0.6116  0.3536
10548TIP3    H153059   0.174   2.114   2.209 -1.0249  1.2810 -0.6565
10548TIP3    H253060   0.147   2.052   2.073 -0.3124 -0.9579  0.1673
10549TIP3   OH253061   4.063   1.250  13.647 -0.1557  0.0651  0.0954
10549TIP3    H153062   3.980   1.215  13.677 -0.2962  1.3606  1.3177
10549TIP3    H253063   4.122   1.240  13.722  0.7021 -0.5045 -0.6308
10550TIP3   OH253064   5.723   2.599   6.019  0.4401 -0.6007 -0.4789
10550TIP3    H153065   5.687   2.512   6.037 -2.0372 -0.1332 -2.4675
10550TIP3    H253066   5.657   2.640   5.962  2.4993  1.8174 -1.2946
10551TIP3   OH253067   0.895   1.311  15.342 -0.2579  0.0749 -0.3850
10551TIP3    H153068   0.893   1.220  15.313  1.4913 -0.6458  1.5210
10551TIP3    H253069   0.987   1.337  15.331 -0.9209  2.0024 -1.8829
10552TIP3   OH253070   0.911   2.672  15.522  0.8798 -0.1172 -0.3233
10552TIP3    H153071   0.934   2.761  15.549  0.6294  0.6651 -2.5044
10552TIP3    H253072   0.995   2.632  15.499  0.7681  0.4352 -1.7598
10553TIP3   OH253073   5.038   2.772   3.337 -0.4281 -0.3768 -0.1657
10553TIP3    H153074   5.072   2.857   3.308  0.0499 -0.4514  0.1560
10553TIP3    H253075   4.957   2.794   3.384 -0.7756 -0.1843 -0.8421
10554TIP3   OH253076   5.831   0.005  15.003  0.0321  0.2940 -0.0461
10554TIP3    H153077   5.846   0.039  15.091 -0.2938 -0.6772  0.3933
10554TIP3    H253078   5.910  -0.045  14.982 -0.2301 -0.1462  0.0167
10555TIP3   OH253079   3.914   4.308   3.752  0.2183  0.0508  0.3259
10555TIP3    H153080   3.883   4.232   3.802  0.9917 -0.8129 -0.4517
10555TIP3    H253081   3.847   4.375   3.767 -1.3449 -1.3006 -0.2173
10556TIP3   OH253082   2.380   3.208   0.963  0.1551 -0.2579  0.4483
10556TIP3    H153083   2.313   3.142   0.942 -1.3555  1.7293 -1.4231
10556TIP3    H253084   2.424   3.223   0.880 -0.5485  2.1216  0.4533
10557TIP3   OH253085   0.439   4.030   3.114 -0.1830 -0.3209  0.1519
10557TIP3    H153086   0.511   4.075   3.070 -1.9624  0.2228 -2.4474
10557TIP3    H253087   0.444   3.939   3.084 -0.4768 -0.3186  0.0891
10558TIP3   OH253088   1.260   3.728   3.177  0.2771 -0.0373  0.1344
10558TIP3    H153089   1.250   3.677   3.258  1.1108 -2.1402 -1.0157
10558TIP3    H253090   1.175   3.721   3.134  0.9113 -2.2146 -0.9223
10559TIP3   OH253091   0.342   6.500  16.330 -0.6180  0.2099 -1.0063
10559TIP3    H153092   0.304   6.562  16.267 -1.1049 -0.4117 -1.3345
10559TIP3    H253093   0.407   6.452  16.279  0.1509  0.8068 -0.6152
10560TIP3   OH253094   0.260   3.690   0.471  0.1433 -0.3212  0.3266
10560TIP3    H153095   0.173   3.729   0.461  1.0578  1.8640  0.1669
10560TIP3    H253096   0.267   3.669   0.564  0.3737  2.0978  0.9366
10561TIP3   OH253097   0.450   6.589   4.130 -0.0511  0.3621  0.1510
10561TIP3    H153098   0.416   6.524   4.070  1.3506 -0.8119  0.5569
10561TIP3    H253099   0.376   6.614   4.185 -1.1173  0.7679 -1.4260
10562TIP3   OH253100   1.198   4.467  10.867  0.1624  0.1723  0.0164
10562TIP3    H153101   1.142   4.392  10.847 -0.8527  0.9505 -0.1533
10562TIP3    H253102   1.201   4.470  10.962  0.0617  0.0142  0.0248
10563TIP3   OH253103   3.969   6.341  14.927  0.5479  0.0970  0.2038
10563TIP3    H153104   4.055   6.383  14.931 -0.9299  3.4709 -0.1254
10563TIP3    H253105   3.915   6.391  14.988 -1.8376 -0.1218 -1.5960
10564TIP3   OH253106   3.801   0.296  11.083 -0.0762 -0.1645  0.0592
10564TIP3    H153107   3.735   0.333  11.141  0.6435  1.2710  0.0117
10564TIP3    H253108   3.790   0.343  11.000 -0.5521 -1.6133 -0.7256
10565TIP3   OH253109   1.487   3.320   4.187  0.1686 -0.1715  0.0483
10565TIP3    H153110   1.553   3.255   4.212  0.5363 -0.5681 -1.7981
10565TIP3    H253111   1.412   3.268   4.160  0.2787  0.1715 -0.9472
10566TIP3   OH253112   1.183   1.491  15.527 -0.8465  0.0136 -0.1559
10566TIP3    H153113   1.137   1.492  15.443 -0.8403 -0.4022 -0.1668
10566TIP3    H253114   1.252   1.425  15.515 -0.6260  0.2056  0.0591
10567TIP3   OH253115   1.327   0.370   4.233 -0.3998 -0.4375 -0.1825
10567TIP3    H153116   1.419   0.382   4.260 -1.3674  1.2330  2.8507
10567TIP3    H253117   1.301   0.455   4.199 -1.1355 -0.5326  0.1249
10568TIP3   OH253118   1.418   5.097  16.492 -0.2593 -0.5544 -0.2547
10568TIP3    H153119   1.377   5.091  16.406 -0.0336 -3.0255 -0.2542
10568TIP3    H253120   1.345   5.115  16.552 -0.5784  0.0338 -0.8054
10569TIP3   OH253121   0.293   2.078   1.280  0.4021 -0.3803  0.0005
10569TIP3    H153122   0.199   2.062   1.273  0.3089 -0.3351  1.0434
10569TIP3    H253123   0.332   2.018   1.216 -0.2444 -1.4427  0.5720
10570TIP3   OH253124   1.444   4.556   3.537 -0.5163 -0.1438 -0.0607
10570TIP3    H153125   1.359   4.516   3.553 -1.0502  0.9533 -0.0767
10570TIP3    H253126   1.424   4.647   3.515  0.5773 -0.1709 -1.2748
10571TIP3   OH253127   1.573   2.603  17.101 -0.2233  0.3110  1.1024
10571TIP3    H153128   1.527   2.669  17.153  1.7050  1.9496  0.8766
10571TIP3    H253129   1.651   2.582  17.152  0.5950  0.3295 -0.0827
10572TIP3   OH253130   1.665   3.741  17.095  0.7107  0.2460 -0.2448
10572TIP3    H153131   1.649   3.711  17.185 -0.1950  0.6926 -0.2459
10572TIP3    H253132   1.699   3.664  17.050  0.9491 -0.0479  0.4194
10573TIP3   OH253133   0.079   0.701   1.441 -0.3211 -0.5427 -0.1828
10573TIP3    H153134   0.085   0.775   1.381 -2.0356  0.3190  0.6513
10573TIP3    H253135   0.020   0.730   1.511 -0.5639 -2.4732  0.4924
10574TIP3   OH253136   5.155   2.319   1.144 -0.2142 -0.3759  0.0480
10574TIP3    H153137   5.062   2.298   1.142 -0.4357  0.6357 -0.6744
10574TIP3    H253138   5.197   2.247   1.097 -0.9504  0.6047 -2.2590
10575TIP3   OH253139   0.426   5.055  12.565  0.4400 -0.2354 -0.7907
10575TIP3    H153140   0.408   4.992  12.635  0.4861 -0.7913 -1.2712
10575TIP3    H253141   0.427   5.003  12.485 -1.7226  0.6948 -1.4856
10576TIP3   OH253142   4.106   4.037  17.138  0.2108  0.0636 -0.1926
10576TIP3    H153143   4.147   4.068  17.057  1.6438  1.7472  1.0887
10576TIP3    H253144   4.072   4.116  17.180  1.3090 -0.4441  1.7950
10577TIP3   OH253145   0.588   5.583  15.128  0.0710  0.6367 -0.4785
10577TIP3    H153146   0.498   5.575  15.096 -0.4407  0.2171  0.9661
10577TIP3    H253147   0.615   5.671  15.102 -2.0100  2.1478  1.9811
10578TIP3   OH253148   6.195   3.605   0.431  0.0993  0.2735 -0.2446
10578TIP3    H153149   6.132   3.605   0.503  0.2793  1.0035 -0.0797
10578TIP3    H253150   6.280   3.595   0.475  0.3244  2.0508 -0.2354
10579TIP3   OH253151   4.195   1.986  14.521  0.4799 -0.2436  0.2940
10579TIP3    H153152   4.190   1.945  14.607  0.8474 -2.4989 -0.6852
10579TIP3    H253153   4.116   1.957  14.476  0.1483  1.1416 -0.0791
10580TIP3   OH253154   4.174   4.140  16.337  0.5397 -0.3506  0.5391
10580TIP3    H153155   4.200   4.126  16.428  2.8244  1.0454  0.1750
10580TIP3    H253156   4.216   4.222  16.311 -1.0936 -0.0353 -1.4203
10581TIP3   OH253157   3.566   4.552   2.439 -0.1311 -0.1583  0.4912
10581TIP3    H153158   3.541   4.583   2.352 -1.2391 -2.0941  0.0552
10581TIP3    H253159   3.654   4.586   2.452 -0.0178  0.3550 -1.3068
10582TIP3   OH253160   5.666   4.193  17.162 -0.2203 -0.2879 -0.5618
10582TIP3    H153161   5.660   4.146  17.079  0.5639  1.0754 -1.4323
10582TIP3    H253162   5.581   4.236  17.171 -1.0395 -2.0120  0.3731
10583TIP3   OH253163   2.407   1.051  11.115 -0.4251  0.1550  0.5014
10583TIP3    H153164   2.430   1.129  11.065  0.1581  0.1142  0.7038
10583TIP3    H253165   2.485   0.995  11.110 -0.0257  0.5246  2.1897
10584TIP3   OH253166   4.659   2.904  13.060  0.1618  0.0941 -0.9856
10584TIP3    H153167   4.652   2.915  12.965 -2.7842  2.8241 -0.6173
10584TIP3    H253168   4.573   2.870  13.086 -0.3807  2.6610  0.9531
10585TIP3   OH253169   0.396   5.348  12.546 -0.0944 -0.0001  0.2829
10585TIP3    H153170   0.388   5.260  12.584 -0.4968  0.2463  0.7853
10585TIP3    H253171   0.491   5.364  12.542 -0.0311  0.5399  2.5756
10586TIP3   OH253172   0.692   3.220  15.718 -0.2940 -0.0677  0.1576
10586TIP3    H153173   0.623   3.285  15.704  0.5956  1.1375  1.1607
10586TIP3    H253174   0.772   3.272  15.725  0.6341 -1.3944 -0.3548
10587TIP3   OH253175   0.944   3.527   4.029 -0.1892  0.0278 -0.1078
10587TIP3    H153176   1.028   3.488   4.052 -1.9768 -3.3439  1.4887
10587TIP3    H253177   0.933   3.510   3.936  0.8090  0.3754 -0.2933
10588TIP3   OH253178   5.607   4.710  10.853 -0.2206  0.2267  0.5805
10588TIP3    H153179   5.544   4.720  10.925  0.4997  1.6407  1.0534
10588TIP3    H253180   5.587   4.624  10.816 -0.7240 -0.4882  2.3686
10589TIP3   OH253181   0.964   1.199   5.577  0.2902 -0.4044 -0.1723
10589TIP3    H153182   1.053   1.193   5.541  0.1506  0.5253 -0.6920
10589TIP3    H253183   0.977   1.219   5.669  0.6734  3.0954 -0.8460
10590TIP3   OH253184   3.300   0.246  12.579 -0.2180 -0.1006 -0.9883
10590TIP3    H153185   3.395   0.260  12.576  0.2221 -1.2968  2.7929
10590TIP3    H253186   3.264   0.334  12.596  0.4487  0.0161 -0.1123
10591TIP3   OH253187   4.679   2.792  13.842  0.2559  0.1383  0.4639
10591TIP3    H153188   4.729   2.841  13.908 -0.5748  1.1886  0.3454
10591TIP3    H253189   4.746   2.746  13.791  1.0836  1.1635  0.5841
10592TIP3   OH253190   0.713   4.115   5.205  0.2195 -0.7397  1.3873
10592TIP3    H153191   0.720   4.159   5.121  1.2226  0.2342  1.9475
10592TIP3    H253192   0.671   4.032   5.186 -0.8632  0.0649  0.1485
10593TIP3   OH253193   6.576   3.874   3.016  0.5749  0.2272 -0.0727
10593TIP3    H153194   6.644   3.868   3.083 -0.6530 -0.9789  1.1251
10593TIP3    H253195   6.591   3.799   2.959 -0.3635 -0.7194  0.8589
10594TIP3   OH253196   2.698   2.168  17.089 -0.1312 -0.1064  0.1666
10594TIP3    H153197   2.740   2.218  17.159 -0.3456 -2.0570  1.7859
10594TIP3    H253198   2.770   2.122  17.046 -0.0683  0.6285 -0.5406
10595TIP3   OH253199   6.015   1.705   0.576  0.0569 -0.5322  0.2857
10595TIP3    H153200   5.954   1.772   0.544  0.8522  0.0223 -0.0745
10595TIP3    H253201   6.080   1.753   0.627  1.0904 -0.9265 -0.6386
10596TIP3   OH253202   1.003   6.591   4.901 -0.1817 -0.2075 -0.0038
10596TIP3    H153203   1.059   6.662   4.871 -0.3607  0.0472  0.2561
10596TIP3    H253204   0.915   6.619   4.879 -0.4912  0.7678  2.2217
10597TIP3   OH253205   4.936   2.992   2.971 -0.0339 -1.0505  0.7672
10597TIP3    H153206   5.021   3.013   2.932 -0.2059  0.4214  1.1158
10597TIP3    H253207   4.874   3.003   2.899 -0.1113 -0.4192  0.9234
10598TIP3   OH253208   0.511   0.955  15.690 -0.0091 -0.3133 -0.2878
10598TIP3    H153209   0.445   1.002  15.639  0.7229 -0.3535 -1.3045
10598TIP3    H253210   0.563   0.908  15.625  0.8111 -0.5534  0.5145
10599TIP3   OH253211   6.676   1.519   0.992 -0.3374 -0.2595  0.3063
10599TIP3    H153212   6.682   1.509   0.897 -0.8129  0.3246  0.2075
10599TIP3    H253213   6.623   1.597   1.004 -2.3197 -1.6428  1.0646
10600TIP3   OH253214   2.979   0.645  11.987 -0.2162 -0.5829  0.3770
10600TIP3    H153215   2.892   0.646  12.026 -1.3680  2.1719 -1.8885
10600TIP3    H253216   3.037   0.672  12.058 -1.9353  2.2625  0.8501
10601TIP3   OH253217   6.323   0.133  14.978  0.1362  0.3645  0.8260
10601TIP3    H153218   6.338   0.198  15.047 -1.3013  2.1768 -0.4830
10601TIP3    H253219   6.407   0.127  14.932  0.0322  2.0668  0.3609
10602TIP3   OH253220   1.851   3.173  12.582  0.2934 -0.2211 -0.3287
10602TIP3    H153221   1.876   3.081  12.587  0.6038 -0.2232 -1.5978
10602TIP3    H253222   1.764   3.172  12.542 -0.7557 -0.0645  1.7793
10603TIP3   OH253223   0.875   3.531  13.537 -0.2138  0.2343 -0.4212
10603TIP3    H153224   0.851   3.456  13.591  1.0633  0.4019  0.4127
10603TIP3    H253225   0.838   3.606  13.583 -0.8583  0.1952 -0.8650
10604TIP3   OH253226   3.468   4.776  16.761  0.4034 -0.1561 -0.7870
10604TIP3    H153227   3.477   4.683  16.782 -0.7802 -0.2649 -0.6611
10604TIP3    H253228   3.433   4.777  16.672  2.1242  0.2282 -1.4919
10605TIP3   OH253229   0.515   3.430  15.809  0.0591 -0.1174  0.3921
10605TIP3    H153230   0.486   3.367  15.875  0.1846 -0.3676  0.2092
10605TIP3    H253231   0.537   3.508  15.860  2.6612 -1.1352  0.9832
10606TIP3   OH253232   1.863   3.691   4.666 -0.0280  0.3029 -0.0929
10606TIP3    H153233   1.811   3.631   4.613  0.0162  0.7435 -0.6532
10606TIP3    H253234   1.934   3.719   4.607  0.8428 -0.2938  0.6608
10607TIP3   OH253235   2.889   4.978   4.251 -0.3084  0.0908  0.1338
10607TIP3    H153236   2.962   5.039   4.245  0.6083 -1.0861 -1.6606
10607TIP3    H253237   2.813   5.033   4.269  0.5356  1.7377 -1.0827
10608TIP3   OH253238   3.133   2.697   4.895 -0.1483  0.2479  0.3024
10608TIP3    H153239   3.164   2.608   4.913  1.0001  0.3221 -1.1500
10608TIP3    H253240   3.056   2.707   4.950  1.0180 -0.8202  2.2418
10609TIP3   OH253241   0.340   4.177   0.081  0.0883 -0.3611 -0.2275
10609TIP3    H153242   0.369   4.094   0.119  0.1131 -0.4858 -0.5092
10609TIP3    H253243   0.292   4.221   0.151  1.1870 -0.0331  0.3388
10610TIP3   OH253244   1.558   6.738  15.912 -0.3117  0.4036 -0.4603
10610TIP3    H153245   1.622   6.667  15.923  0.1252  0.8703  0.0455
10610TIP3    H253246   1.526   6.727  15.822 -1.6696 -1.6041  0.2035
10611TIP3   OH253247   3.324   4.425   5.245 -0.2486 -0.1227 -0.1895
10611TIP3    H153248   3.406   4.407   5.291 -0.5075 -1.2264 -0.1284
10611TIP3    H253249   3.350   4.471   5.166  0.5287 -1.2909 -0.6382
10612TIP3   OH253250   4.942   3.106   4.941 -0.1499  0.0865 -0.2241
10612TIP3    H153251   4.900   3.067   5.018  1.6381 -1.5513 -0.0040
10612TIP3    H253252   5.030   3.069   4.940  1.2011  3.0663 -0.8845
10613TIP3   OH253253   5.811   2.903   4.365 -0.4603 -0.3502 -0.6500
10613TIP3    H153254   5.866   2.825   4.360  0.5635  0.2552  0.5892
10613TIP3    H253255   5.872   2.977   4.361 -1.4666  0.4488 -2.5810
10614TIP3   OH253256   2.456   0.936  16.937 -0.0315 -0.3267  0.4802
10614TIP3    H153257   2.448   0.864  16.875 -0.6494  0.6042 -0.5534
10614TIP3    H253258   2.370   0.978  16.936  0.3123  0.4182  1.0742
10615TIP3   OH253259   5.549   3.820   0.021 -0.7811  0.3367  0.2964
10615TIP3    H153260   5.473   3.810   0.078  0.5263  1.2401  2.3637
10615TIP3    H253261   5.571   3.913   0.027  0.3585  0.1351 -0.4021
10616TIP3   OH253262   2.749   2.428   5.371 -0.0815  0.3586  0.7347
10616TIP3    H153263   2.750   2.478   5.452 -1.5979  0.2099  0.8701
10616TIP3    H253264   2.756   2.493   5.302  0.2670  0.5608  0.9588
10617TIP3   OH253265   3.205   4.557  12.776  0.3099 -0.0109  0.3946
10617TIP3    H153266   3.148   4.605  12.836 -0.6176 -1.1832  0.4810
10617TIP3    H253267   3.272   4.621  12.751 -1.3203  1.5781 -0.1290
10618TIP3   OH253268   6.740   4.593   3.574 -0.2823  0.1581  0.3074
10618TIP3    H153269   6.760   4.638   3.656  2.3588  0.1780 -0.2828
10618TIP3    H253270   6.672   4.647   3.533  0.3017  1.6486  1.2239
10619TIP3   OH253271   5.082   0.273   4.504  0.4432  0.5782  0.2939
10619TIP3    H153272   5.068   0.216   4.580 -0.7342  1.6153  0.8896
10619TIP3    H253273   5.100   0.359   4.542 -0.4395  1.1755 -0.5860
10620TIP3   OH253274   1.065   2.871   0.948 -0.4497 -0.0897  0.2910
10620TIP3    H153275   0.985   2.864   0.999 -0.7219  3.4486  0.6205
10620TIP3    H253276   1.048   2.819   0.869 -2.2923 -0.9589  1.2035
10621TIP3   OH253277   1.124   4.340   6.396 -0.1167  0.4198  0.2052
10621TIP3    H153278   1.185   4.270   6.420  0.2147  0.2504 -1.0611
10621TIP3    H253279   1.037   4.303   6.414  0.0777 -0.0738  0.1456
10622TIP3   OH253280   4.594   4.096   3.695 -0.7281  0.1557 -0.3087
10622TIP3    H153281   4.580   4.059   3.782  1.4785 -1.1665 -0.4198
10622TIP3    H253282   4.687   4.119   3.693 -0.7860  0.4210 -2.1964
10623TIP3   OH253283   6.189   3.852   5.582  0.0398 -0.0685  0.0981
10623TIP3    H153284   6.151   3.771   5.616  0.3324 -0.1431  0.2508
10623TIP3    H253285   6.223   3.897   5.660 -0.3476  0.3216  0.0476
10624TIP3   OH253286   3.369   6.740  16.640 -0.0440 -0.2238 -0.1643
10624TIP3    H153287   3.367   6.653  16.680 -0.1014  0.4172  1.3210
10624TIP3    H253288   3.432   6.789  16.693 -1.0902  1.0422 -0.0459
10625TIP3   OH253289   2.590   4.277   5.185  0.4453 -0.1629 -0.3094
10625TIP3    H153290   2.525   4.294   5.254  1.3664 -0.3597  0.6274
10625TIP3    H253291   2.549   4.311   5.105  0.0467  1.6241  0.5927
10626TIP3   OH253292   4.925   5.317  16.518  0.4977 -0.0528  0.1496
10626TIP3    H153293   4.848   5.286  16.471  0.2845  0.8135 -0.0872
10626TIP3    H253294   4.988   5.339  16.449  0.3903  0.6932  0.2845
10627TIP3   OH253295   6.406   0.831   1.355  0.4717  0.1467  0.4049
10627TIP3    H153296   6.317   0.801   1.374  0.5572  0.2961  1.0558
10627TIP3    H253297   6.439   0.767   1.292 -0.1361  0.1551  0.0723
10628TIP3   OH253298   2.074   2.712  14.107 -0.1475 -0.2394 -0.1546
10628TIP3    H153299   2.083   2.648  14.037  0.7157  0.0877 -0.3502
10628TIP3    H253300   1.985   2.697  14.141  0.0910 -1.6636 -0.0716
10629TIP3   OH253301   5.075   6.498  13.189 -0.2025  0.2963 -0.4680
10629TIP3    H153302   5.056   6.592  13.187 -0.6989  0.2251  0.4508
10629TIP3    H253303   5.153   6.489  13.135  0.4129  1.3802  0.1993
10630TIP3   OH253304   0.820   4.653   0.639 -0.2356  0.0902 -0.2967
10630TIP3    H153305   0.844   4.652   0.546 -1.5770 -2.6748 -0.7100
10630TIP3    H253306   0.893   4.611   0.683 -0.4864 -0.4230 -0.3712
10631TIP3   OH253307   1.567   6.213   0.104 -0.2084  0.7950  0.8654
10631TIP3    H153308   1.608   6.288   0.061  0.9774  0.0224  0.5797
10631TIP3    H253309   1.498   6.251   0.159  2.1097  2.4289  2.8835
10632TIP3   OH253310   5.054   5.750  14.906 -0.0251 -0.2832  0.1342
10632TIP3    H153311   5.142   5.732  14.873 -0.1098  0.4565 -0.5203
10632TIP3    H253312   5.007   5.668  14.893 -0.3591  0.2582 -2.6562
10633TIP3   OH253313   0.136   0.365   1.016 -0.5495  0.0956  0.4175
10633TIP3    H153314   0.131   0.271   0.997 -1.4018  0.2169 -0.0107
10633TIP3    H253315   0.074   0.378   1.088  0.5222  0.1248  1.3551
10634TIP3   OH253316   0.649   5.663  14.109  0.5859  0.3444  0.1943
10634TIP3    H153317   0.648   5.722  14.034  1.0234  1.7620  1.2522
10634TIP3    H253318   0.655   5.721  14.185 -2.5727 -0.8763  1.5389
10635TIP3   OH253319   4.705   5.589   1.726 -0.3081 -0.1596 -0.2366
10635TIP3    H153320   4.751   5.644   1.789  1.4300  1.5803 -2.8293
10635TIP3    H253321   4.702   5.641   1.646 -2.9812 -1.9823 -1.4934
10636TIP3   OH253322   3.033   5.344   6.373 -0.0068  0.0769 -0.7100
10636TIP3    H153323   3.116   5.385   6.347  0.8833  0.4231  2.2416
10636TIP3    H253324   2.989   5.411   6.426 -0.8783 -1.0280  0.0031
10637TIP3   OH253325   0.109   4.288  15.032  0.0949 -0.0576 -0.2818
10637TIP3    H153326   0.178   4.337  14.986 -1.3107  3.8786  1.3120
10637TIP3    H253327   0.041   4.275  14.965  0.3474  0.5802 -0.6777
10638TIP3   OH253328   1.860   6.594   6.317 -0.0516 -0.7764 -0.4623
10638TIP3    H153329   1.800   6.653   6.362  1.6090  0.8884 -0.3170
10638TIP3    H253330   1.836   6.602   6.224 -0.0626 -0.1343 -0.4082
10639TIP3   OH253331   2.210   0.530  15.837 -0.0806 -0.3934 -0.0524
10639TIP3    H153332   2.285   0.535  15.897  0.9335 -0.7585 -1.2426
10639TIP3    H253333   2.141   0.579  15.881  1.0206  0.4080  0.8583
10640TIP3   OH253334   4.690   0.948   2.968 -0.2206  0.0626  0.3755
10640TIP3    H153335   4.783   0.967   2.981  0.3565 -1.5723 -0.9890
10640TIP3    H253336   4.682   0.932   2.874 -2.0853  1.0750  0.3094
10641TIP3   OH253337   2.688   3.655  15.659 -0.1489  0.4851 -0.1890
10641TIP3    H153338   2.686   3.564  15.686  0.1635  0.5810  0.1575
10641TIP3    H253339   2.631   3.658  15.581 -2.4876  0.5272  1.4103
10642TIP3   OH253340   4.409   5.475   5.555  0.9403 -0.1768  0.5093
10642TIP3    H153341   4.353   5.410   5.511  2.2049 -1.0925  0.1945
10642TIP3    H253342   4.372   5.482   5.643  1.5731 -2.4067  1.0154
10643TIP3   OH253343   1.463   4.313   1.862 -0.0475  0.3268 -1.2242
10643TIP3    H153344   1.423   4.243   1.809  0.8927  0.0156 -1.5496
10643TIP3    H253345   1.479   4.272   1.947  0.1780  0.2389 -1.3055
10644TIP3   OH253346   6.716   2.883   1.830  0.6514 -0.4634  0.5392
10644TIP3    H153347   6.753   2.922   1.909  2.7723 -2.7846  0.7979
10644TIP3    H253348   6.750   2.936   1.758 -0.1070  0.7742  1.0644
10645TIP3   OH253349   4.227   0.828  12.238  0.8743 -0.4222 -0.6319
10645TIP3    H153350   4.171   0.891  12.282  1.1553 -0.4062 -0.2981
10645TIP3    H253351   4.178   0.802  12.160 -0.6758 -2.1784  0.8230
10646TIP3   OH253352   5.795   0.084  12.454  0.1756 -0.8170 -0.0105
10646TIP3    H153353   5.861   0.031  12.499  1.0638 -3.1184 -3.5525
10646TIP3    H253354   5.845   0.132  12.388 -1.3705 -0.3209 -0.8575
10647TIP3   OH253355   2.282   3.116   1.905  0.1656 -0.5311  0.1906
10647TIP3    H153356   2.220   3.107   1.977  0.4429  0.2206  0.5334
10647TIP3    H253357   2.335   3.192   1.928  1.0347 -0.9927 -0.2288
10648TIP3   OH253358   2.913   0.521   0.757  0.5304 -0.4569  0.1921
10648TIP3    H153359   2.927   0.602   0.708 -0.8770 -0.7047 -0.7089
10648TIP3    H253360   2.885   0.549   0.844 -0.0486  0.0386 -0.1492
10649TIP3   OH253361   4.147   6.629  14.214  0.1629 -0.3455  0.5133
10649TIP3    H153362   4.142   6.635  14.118  1.5280 -1.1088  0.3647
10649TIP3    H253363   4.185   6.713  14.241  3.0068 -1.3667  0.0248
10650TIP3   OH253364   6.460   5.892   6.813  0.1111  0.2702  0.2830
10650TIP3    H153365   6.494   5.909   6.726 -1.7560  2.4194 -0.1295
10650TIP3    H253366   6.373   5.855   6.798 -0.3060  0.8382  1.2134
10651TIP3   OH253367   5.076   2.486   3.300 -0.2962 -0.0887 -0.9393
10651TIP3    H153368   5.092   2.579   3.312 -0.9694 -0.3411  3.3199
10651TIP3    H253369   4.980   2.477   3.305 -0.1706 -1.0895  0.2313
10652TIP3   OH253370   5.589   3.574   5.765  0.2863  0.0721 -0.5235
10652TIP3    H153371   5.518   3.628   5.799  0.4990 -0.0678  0.1635
10652TIP3    H253372   5.550   3.526   5.691 -1.0240 -1.7737  1.2603
10653TIP3   OH253373   2.381   0.249   5.978  0.2743  0.6480 -0.0063
10653TIP3    H153374   2.410   0.177   6.035  1.2083  0.5133 -0.6372
10653TIP3    H253375   2.316   0.296   6.031 -1.8002 -1.7431 -0.2561
10654TIP3   OH253376   5.553   2.032  13.113 -0.1400  0.2149 -0.0804
10654TIP3    H153377   5.611   2.015  13.187 -0.7046  1.7233  0.7474
10654TIP3    H253378   5.477   2.076  13.151 -2.2037 -2.2392 -1.0013
10655TIP3   OH253379   6.096   3.758  11.805  1.0451  0.0727 -0.3241
10655TIP3    H153380   6.111   3.668  11.777  2.6328  0.1408  0.2386
10655TIP3    H253381   6.091   3.752  11.901  0.2063  0.4626 -0.3370
10656TIP3   OH253382   0.768   6.319   4.712  0.2498  0.0306 -0.4633
10656TIP3    H153383   0.775   6.354   4.623 -0.2473  2.0421  0.2237
10656TIP3    H253384   0.683   6.351   4.743  0.3397 -0.7838  0.6802
10657TIP3   OH253385   3.714   4.100  14.876 -0.2296  0.1034 -0.0684
10657TIP3    H153386   3.744   4.191  14.872  1.3279 -0.3723  0.2551
10657TIP3    H253387   3.746   4.067  14.960 -0.8479 -0.7272 -0.1419
10658TIP3   OH253388   3.635   1.857   0.979  0.9717  0.2877  0.8506
10658TIP3    H153389   3.690   1.827   0.906 -0.2882 -0.7347  0.2924
10658TIP3    H253390   3.579   1.924   0.941 -2.1585 -2.5989 -0.1939
10659TIP3   OH253391   4.466   3.630   4.712 -0.4556  0.5618  0.3232
10659TIP3    H153392   4.416   3.551   4.734 -1.0085  1.5305  2.9610
10659TIP3    H253393   4.423   3.700   4.761  1.0155  2.2139 -0.6253
10660TIP3   OH253394   2.688   5.605   3.964 -0.3252  0.5147  0.2337
10660TIP3    H153395   2.608   5.600   4.017 -0.0758 -0.6123  0.5233
10660TIP3    H253396   2.704   5.515   3.936  1.3090  0.5615  0.8874
10661TIP3   OH253397   0.721   1.887  11.605 -0.2179 -0.2195 -0.1990
10661TIP3    H153398   0.792   1.841  11.559  0.7777  0.3666  0.6857
10661TIP3    H253399   0.741   1.980  11.592 -0.8076 -0.0508  0.1018
10662TIP3   OH253400   6.594   1.950  14.178 -0.1609 -0.6899 -0.4211
10662TIP3    H153401   6.612   2.044  14.166  0.9549 -0.9703 -1.1089
10662TIP3    H253402   6.634   1.908  14.101  0.1462 -1.8080  0.3293
10663TIP3   OH253403   6.587   5.708  11.706 -0.3602 -0.1705 -0.4169
10663TIP3    H153404   6.548   5.706  11.618  1.9961 -0.0844 -1.5246
10663TIP3    H253405   6.669   5.755  11.695  1.5794 -2.9329  1.1317
10664TIP3   OH253406   1.979   0.473  14.307 -0.2248  0.6360 -0.0197
10664TIP3    H153407   1.983   0.567  14.326 -0.2496  0.3138  1.8074
10664TIP3    H253408   1.909   0.440  14.364  1.5712 -0.8876  1.4422
10665TIP3   OH253409   5.851   2.751  15.875 -0.1367  0.2245  0.3068
10665TIP3    H153410   5.768   2.789  15.905 -0.8073 -1.4634  0.6971
10665TIP3    H253411   5.915   2.778  15.941 -0.8580 -0.3684  1.2835
10666TIP3   OH253412   2.280   1.931   0.483  0.0231  0.1418 -0.1223
10666TIP3    H153413   2.331   1.944   0.403  1.4884 -1.4972  0.4749
10666TIP3    H253414   2.210   1.872   0.458  2.0098 -2.5636  0.2449
10667TIP3   OH253415   5.784   4.149  16.259  0.2099  0.2417 -0.1368
10667TIP3    H153416   5.738   4.067  16.241  0.4063  0.4050 -1.5291
10667TIP3    H253417   5.756   4.173  16.347 -0.4443 -0.9243  0.0009
10668TIP3   OH253418   6.133   2.134   3.429 -0.2063  0.0850 -0.2799
10668TIP3    H153419   6.221   2.138   3.466 -0.2418  1.2117 -0.2948
10668TIP3    H253420   6.127   2.211   3.373 -1.7560  0.8889  0.9344
10669TIP3   OH253421   6.512   2.348   1.587 -0.4932  0.5475  0.5264
10669TIP3    H153422   6.606   2.366   1.588 -0.1824 -0.7286 -0.8637
10669TIP3    H253423   6.475   2.415   1.529  0.0923 -0.8187 -1.5556
10670TIP3   OH253424   5.797   5.447   4.787  0.2004  0.3446  0.2414
10670TIP3    H153425   5.888   5.417   4.779  0.1879  0.5887 -1.0161
10670TIP3    H253426   5.758   5.389   4.852  0.0767 -2.6466 -2.2651
10671TIP3   OH253427   3.857   6.260  16.541 -0.6639 -0.1997  0.1822
10671TIP3    H153428   3.889   6.187  16.594 -3.0339 -2.7897 -1.6722
10671TIP3    H253429   3.925   6.274  16.475  0.0893 -0.2571  0.9302
10672TIP3   OH253430   3.168   2.723   2.421  0.4238 -0.8414  0.0542
10672TIP3    H153431   3.145   2.634   2.446  1.6145 -1.2190 -0.1006
10672TIP3    H253432   3.259   2.716   2.391 -0.1441  0.0431 -2.0021
10673TIP3   OH253433   4.397   6.514  14.334  0.7910  0.1083  0.2851
10673TIP3    H153434   4.424   6.473  14.416  1.3000  2.6434  1.4742
10673TIP3    H253435   4.305   6.490  14.324  1.1607 -1.5940  0.7031
10674TIP3   OH253436   4.618   3.150   5.063  0.1694 -0.3094 -0.4434
10674TIP3    H153437   4.610   3.239   5.026 -0.0636  0.4023  1.2298
10674TIP3    H253438   4.531   3.129   5.095  0.8326  0.1095  1.8162
10675TIP3   OH253439   2.231   0.440   0.292  0.1852 -0.1462 -0.3717
10675TIP3    H153440   2.215   0.396   0.375 -0.6090 -2.6048 -1.7252
10675TIP3    H253441   2.306   0.394   0.255 -0.4920 -0.1959 -1.7292
10676TIP3   OH253442   1.695   0.386  15.625 -0.6501 -0.0189 -0.3621
10676TIP3    H153443   1.630   0.364  15.691  1.4828 -1.0199  1.5478
10676TIP3    H253444   1.705   0.306  15.573 -1.2848  0.3055 -1.0030
10677TIP3   OH253445   5.042   0.981  16.166  0.2405  0.4819 -0.4777
10677TIP3    H153446   4.948   0.993  16.174  0.5905  2.7352  1.0164
10677TIP3    H253447   5.059   0.985  16.071 -1.2546 -1.4302 -0.8879
10678TIP3   OH253448   4.514   4.063  16.950  0.0542  0.1500  0.4736
10678TIP3    H153449   4.532   3.969  16.954 -0.6452 -0.0139 -0.0834
10678TIP3    H253450   4.559   4.093  16.871  1.7482  0.6346  1.5748
10679TIP3   OH253451   3.998   3.560  13.528 -0.1053  1.0079  0.0574
10679TIP3    H153452   3.960   3.498  13.591 -0.5024  1.7517  0.5652
10679TIP3    H253453   3.926   3.580  13.468  0.1722  0.5763 -0.4261
10680TIP3   OH253454   3.222   2.628   5.184  0.0731  0.3907 -0.3103
10680TIP3    H153455   3.290   2.689   5.213  1.1975 -0.9121 -0.0948
10680TIP3    H253456   3.261   2.541   5.196 -0.8437 -0.3379 -2.1887
10681TIP3   OH253457   0.087   4.616  13.994  0.2288  0.0466 -0.0210
10681TIP3    H153458   0.057   4.706  14.000 -0.0368 -0.0878  0.7978
10681TIP3    H253459   0.059   4.575  14.076  1.7017 -0.3646  0.3164
10682TIP3   OH253460   2.534   0.451  15.276  0.0696 -0.3386 -0.2090
10682TIP3    H153461   2.522   0.459  15.371 -1.1891 -0.2299 -0.3623
10682TIP3    H253462   2.586   0.371  15.265 -0.8839 -1.0852  0.5160
10683TIP3   OH253463   4.228   3.079  16.221 -0.0926 -0.8693  0.1123
10683TIP3    H153464   4.190   3.162  16.250  0.0181 -0.0559 -1.8660
10683TIP3    H253465   4.205   3.016  16.289  0.4785  0.9248  2.0739
10684TIP3   OH253466   2.592   1.090   3.086 -0.3059  0.5672  0.6483
10684TIP3    H153467   2.679   1.121   3.109 -1.1068  2.2409  1.6250
10684TIP3    H253468   2.587   1.002   3.123  1.6887 -0.4866 -1.3247
10685TIP3   OH253469   3.175   3.447   5.429  0.3942 -0.4463 -0.4629
10685TIP3    H153470   3.111   3.397   5.478  0.4667 -1.5965 -1.4857
10685TIP3    H253471   3.128   3.477   5.351  0.1318  1.7869  0.4562
10686TIP3   OH253472   5.127   3.090  15.804 -0.1627 -0.4695 -0.8463
10686TIP3    H153473   5.070   3.127  15.871  0.6829  1.9611 -1.3683
10686TIP3    H253474   5.206   3.065  15.851 -0.1663 -0.2242 -0.7099
10687TIP3   OH253475   2.021   0.292  13.506 -0.2147 -0.4472 -0.2629
10687TIP3    H153476   1.961   0.220  13.525  0.8001 -1.1294  0.3696
10687TIP3    H253477   2.047   0.325  13.592  1.9683 -1.5376 -0.4533
10688TIP3   OH253478   4.944   5.421   5.401 -0.1339  0.8632  0.5717
10688TIP3    H153479   4.930   5.510   5.367 -0.7718  0.1560 -1.1291
10688TIP3    H253480   4.929   5.364   5.326 -0.7206 -0.7633  1.8660
10689TIP3   OH253481   3.713   5.715  13.676  0.7812  0.5424  0.2491
10689TIP3    H153482   3.770   5.741  13.604 -0.4015  2.4199 -0.0718
10689TIP3    H253483   3.760   5.740  13.755  1.3939 -0.0840  0.0962
10690TIP3   OH253484   5.217   3.501   2.543  0.1607  0.1716 -0.2223
10690TIP3    H153485   5.135   3.533   2.506  0.6269  0.1517 -1.3095
10690TIP3    H253486   5.281   3.571   2.524  1.0295 -1.0059 -1.9893
10691TIP3   OH253487   5.116   2.583  11.744  0.1588 -0.2279 -0.2715
10691TIP3    H153488   5.202   2.556  11.710  0.1316 -0.5691 -0.0797
10691TIP3    H253489   5.098   2.666  11.701  0.8913  0.1847  0.1925
10692TIP3   OH253490   2.052   0.970   5.694 -0.4185  0.0463  0.0027
10692TIP3    H153491   2.071   1.027   5.619 -0.5777  1.3286  0.9106
10692TIP3    H253492   2.139   0.946   5.728 -0.3272 -1.1925 -1.0456
10693TIP3   OH253493   0.067   0.909  12.233 -0.2410  0.2389  0.2866
10693TIP3    H153494   0.075   0.953  12.317  0.0598  0.5225  0.1102
10693TIP3    H253495   0.078   0.978  12.168  0.8839 -0.1816  0.0020
10694TIP3   OH253496   6.543   0.140  10.953  0.1396  0.2553 -0.0123
10694TIP3    H153497   6.467   0.150  10.896 -0.2589 -0.1054  0.4438
10694TIP3    H253498   6.508   0.099  11.033  0.8229  0.0080  0.1702
10695TIP3   OH253499   4.610   5.572  15.537 -0.1160 -0.1436  0.6819
10695TIP3    H153500   4.694   5.615  15.551  0.8749 -2.0655  1.0479
10695TIP3    H253501   4.561   5.587  15.618 -2.1806  4.9394 -1.0951
10696TIP3   OH253502   1.982   6.149   5.633 -0.7590 -0.0608 -0.4175
10696TIP3    H153503   1.949   6.065   5.666 -0.4498  0.1715  0.4971
10696TIP3    H253504   2.074   6.150   5.657 -0.2397 -0.3452 -2.2475
10697TIP3   OH253505   6.719   6.356   1.890 -0.1242 -0.5042 -0.6619
10697TIP3    H153506   6.752   6.443   1.866  0.1909 -0.0987  1.1066
10697TIP3    H253507   6.632   6.351   1.850 -0.3489  0.8326 -0.3680
10698TIP3   OH253508   5.538   1.741   1.285  0.1325 -0.0063  0.1962
10698TIP3    H153509   5.576   1.825   1.260 -1.9708  0.5495 -1.3496
10698TIP3    H253510   5.547   1.738   1.380 -0.0839  2.1428  0.3210
10699TIP3   OH253511   0.411   0.981   1.284  0.1519  0.2426  0.1912
10699TIP3    H153512   0.480   0.933   1.239  0.3726  1.0304 -0.3293
10699TIP3    H253513   0.432   0.973   1.377  1.0570  0.6457  0.0256
10700TIP3   OH253514   5.254   0.632  14.049 -0.1152 -0.1029  0.0302
10700TIP3    H153515   5.196   0.595  14.115 -1.2295  0.7938 -0.4167
10700TIP3    H253516   5.342   0.619  14.084 -0.6526 -0.3363  1.3267
10701TIP3   OH253517   4.271   4.591   0.947  0.1720  0.1825  0.0730
10701TIP3    H153518   4.332   4.536   0.898 -0.7924  0.4113 -1.4598
10701TIP3    H253519   4.310   4.599   1.034  0.6418 -2.4277  0.1923
10702TIP3   OH253520   3.165   4.190  15.156  0.3476 -0.2309 -0.1894
10702TIP3    H153521   3.231   4.247  15.118 -0.4585  0.4831 -0.5655
10702TIP3    H253522   3.110   4.249  15.209 -0.5150 -0.6395 -0.6125
10703TIP3   OH253523   5.442   4.245   2.817 -0.7539  0.7831 -0.7451
10703TIP3    H153524   5.438   4.279   2.907 -0.8272  0.5263 -0.6509
10703TIP3    H253525   5.384   4.169   2.817  0.6697 -0.3552 -0.5100
10704TIP3   OH253526   2.770   3.561  11.597  0.0934  0.3273  0.2289
10704TIP3    H153527   2.722   3.577  11.516  0.9910  0.7723 -0.2246
10704TIP3    H253528   2.702   3.545  11.663 -0.6467 -2.1953 -1.0271
10705TIP3   OH253529   5.645   0.739  14.379  0.0773  0.1784  0.0507
10705TIP3    H153530   5.618   0.700  14.295 -1.7507 -1.5728  1.3644
10705TIP3    H253531   5.583   0.811  14.392 -0.2638 -0.1664  0.3446
10706TIP3   OH253532   5.139   1.300  12.768 -0.2435  0.1120 -0.1089
10706TIP3    H153533   5.159   1.387  12.800  0.7098  0.0886 -0.5826
10706TIP3    H253534   5.052   1.307  12.729 -0.6231  0.5788  0.8028
10707TIP3   OH253535   0.057   4.238   2.820 -0.3364  0.2323 -0.6411
10707TIP3    H153536   0.112   4.216   2.896  0.0680  0.0850 -0.9758
10707TIP3    H253537  -0.032   4.237   2.855 -0.2670 -1.0923 -0.4419
10708TIP3   OH253538   1.058   5.533   2.894 -0.1611 -0.1438  0.2400
10708TIP3    H153539   1.149   5.562   2.888 -0.0459 -0.1036  1.7120
10708TIP3    H253540   1.006   5.610   2.869  0.1946 -0.1303 -0.4822
10709TIP3   OH253541   3.700   4.797   0.157 -0.3378 -0.6470 -0.2732
10709TIP3    H153542   3.691   4.864   0.224 -2.8891 -1.4627  0.3187
10709TIP3    H253543   3.766   4.831   0.097 -0.6234  1.7916  0.6921
10710TIP3   OH253544   2.971   5.478  14.442  0.7121 -0.2812 -0.1075
10710TIP3    H153545   2.987   5.396  14.488  0.2439 -0.2818  0.0610
10710TIP3    H253546   2.992   5.459  14.351 -1.9988 -1.4169 -0.5998
10711TIP3   OH253547   3.697   2.182   2.801  0.4235 -0.1214 -0.4393
10711TIP3    H153548   3.653   2.134   2.871 -0.4701  0.1389 -0.8086
10711TIP3    H253549   3.635   2.251   2.777  1.2489  0.5681 -0.6301
10712TIP3   OH253550   2.887   1.586  11.942  0.0829 -0.1838  0.6874
10712TIP3    H153551   2.902   1.494  11.962 -2.4047 -0.5638  1.0597
10712TIP3    H253552   2.940   1.633  12.006 -0.1546 -1.3781  1.8060
10713TIP3   OH253553   4.074   0.620   3.842  0.0734 -0.1483 -0.6467
10713TIP3    H153554   4.028   0.562   3.903  1.0503  0.6242  0.8904
10713TIP3    H253555   4.156   0.574   3.823  0.8689  0.7010  0.6081
10714TIP3   OH253556   3.454   0.533   5.133  0.1197  0.0695  0.4509
10714TIP3    H153557   3.364   0.526   5.165  0.5734 -1.1095  1.5695
10714TIP3    H253558   3.490   0.445   5.146  2.2119  1.1178  2.4673
10715TIP3   OH253559   2.130   4.931  16.276  0.0495 -0.0902 -0.1396
10715TIP3    H153560   2.077   4.864  16.318  1.1244 -1.2042 -0.4793
10715TIP3    H253561   2.094   5.014  16.306 -0.5073 -0.8347  1.3263
10716TIP3   OH253562   3.957   5.759   1.126 -0.1041  0.2926  0.4885
10716TIP3    H153563   4.024   5.712   1.075 -0.6531 -1.1409  1.0273
10716TIP3    H253564   3.893   5.691   1.149 -0.4931  1.1484  2.0364
10717TIP3   OH253565   2.971   1.493  13.054 -0.2445 -0.4939 -0.3853
10717TIP3    H153566   2.948   1.570  13.002 -1.0745 -0.3549  0.1627
10717TIP3    H253567   3.004   1.529  13.136  0.4447 -0.7226 -0.5533
10718TIP3   OH253568   6.075   5.394  14.414 -0.0647  0.3502  0.4429
10718TIP3    H153569   6.088   5.315  14.466  1.2743  1.4421  1.8489
10718TIP3    H253570   5.992   5.430  14.445 -0.0477  0.1722  0.6922
10719TIP3   OH253571   3.133   4.592   0.373  0.2343  0.3967  0.3439
10719TIP3    H153572   3.115   4.658   0.307 -0.3276 -2.4792 -2.6628
10719TIP3    H253573   3.102   4.510   0.334  3.0073 -2.0547  2.7528
10720TIP3   OH253574   4.867   5.262   2.216  0.2419  0.0573 -0.1518
10720TIP3    H153575   4.850   5.315   2.293 -1.1207 -0.4686 -0.0559
10720TIP3    H253576   4.782   5.221   2.196  0.4685  0.4532 -2.1265
10721TIP3   OH253577   2.009   0.586   0.941  0.0205  0.4273 -0.1907
10721TIP3    H153578   2.098   0.580   0.977 -0.5580 -1.1729  1.0467
10721TIP3    H253579   1.998   0.679   0.923  1.3701  0.8967  1.1581
10722TIP3   OH253580   1.857   6.474  13.977 -0.1708 -0.5927 -0.2664
10722TIP3    H153581   1.779   6.484  14.032  0.2276 -0.2356  0.2467
10722TIP3    H253582   1.826   6.426  13.900 -1.0751  0.2558 -0.4581
10723TIP3   OH253583   4.255   6.366  15.970 -0.3630  0.4567  0.1135
10723TIP3    H153584   4.259   6.462  15.976 -1.3622  0.3996  2.9424
10723TIP3    H253585   4.162   6.346  15.959 -0.1715 -0.2141 -0.3771
10724TIP3   OH253586   1.021   0.591  15.108 -0.1245  0.3044  0.4103
10724TIP3    H153587   1.063   0.538  15.041 -0.7457  1.2999 -0.8003
10724TIP3    H253588   1.086   0.595  15.179  0.5833 -0.6830 -0.1535
10725TIP3   OH253589   5.668   0.612  16.469 -0.1886  0.7575  0.2323
10725TIP3    H153590   5.654   0.561  16.389 -0.1771 -0.9725  1.2710
10725TIP3    H253591   5.581   0.643  16.494 -0.4221  0.0516  0.3217
10726TIP3   OH253592   0.716   4.224  12.657  0.4892 -0.2192  0.2415
10726TIP3    H153593   0.728   4.311  12.695  0.4563 -0.5728  1.0857
10726TIP3    H253594   0.642   4.187  12.705 -0.1599 -0.3234 -0.8274
10727TIP3   OH253595   5.408   5.261  16.084 -0.2508 -0.3813 -0.1455
10727TIP3    H153596   5.345   5.326  16.113  0.6602  0.9193 -0.9474
10727TIP3    H253597   5.459   5.306  16.016  2.2811 -0.9543  1.2344
10728TIP3   OH253598   6.673   5.782  13.765  0.4500 -0.4092 -0.2181
10728TIP3    H153599   6.581   5.805  13.752  0.2494 -0.7173  0.5913
10728TIP3    H253600   6.706   5.845  13.829  0.3097 -1.3653  0.8409
10729TIP3   OH253601   0.784   5.557   1.641  0.3032  0.1746 -0.2807
10729TIP3    H153602   0.730   5.561   1.720  1.1743  0.2025  0.3251
10729TIP3    H253603   0.760   5.473   1.600 -2.0599  1.2990 -1.4216
10730TIP3   OH253604   0.154   0.925  12.754 -0.0427  0.7456  0.1021
10730TIP3    H153605   0.083   0.983  12.728 -0.1319  1.3709  1.6313
10730TIP3    H253606   0.227   0.983  12.774  0.3312  0.2298  0.2704
10731TIP3   OH253607   4.567   1.929   4.060  0.0502  0.2696  0.4729
10731TIP3    H153608   4.630   1.983   4.012 -1.8285  2.2008  0.0344
10731TIP3    H253609   4.618   1.891   4.132  1.5417  2.4433  0.6531
10732TIP3   OH253610   3.098   4.974   6.015  0.7075 -0.2162 -0.1391
10732TIP3    H153611   3.190   4.957   6.034  0.0519 -1.8471  2.0134
10732TIP3    H253612   3.062   4.888   5.992 -0.6166  0.0615  0.7529
10733TIP3   OH253613   2.711   2.333  15.886 -0.1371 -0.4027 -0.8090
10733TIP3    H153614   2.642   2.267  15.879 -1.1241  0.4975  0.1503
10733TIP3    H253615   2.667   2.416  15.868 -0.3405  0.7405  3.7593
10734TIP3   OH253616   3.909   4.892   2.194  0.5290  0.2551 -0.0956
10734TIP3    H153617   3.823   4.913   2.156  0.1960 -1.2086 -0.2284
10734TIP3    H253618   3.895   4.892   2.288  0.3888  0.1015 -0.1149
10735TIP3   OH253619   1.741   2.634  12.786 -0.3824  0.5809 -0.1788
10735TIP3    H153620   1.666   2.691  12.774 -1.6766 -0.7038  1.3576
10735TIP3    H253621   1.730   2.565  12.720 -0.5841  0.3740  0.0687
10736TIP3   OH253622   4.514   4.032   4.961 -0.1103  0.6065 -0.2955
10736TIP3    H153623   4.535   4.093   4.890 -2.2541 -0.5273 -2.0004
10736TIP3    H253624   4.474   3.957   4.918 -1.3101 -0.2412  2.0992
10737TIP3   OH253625   0.664   5.335  11.364 -0.3326  0.2455  0.3825
10737TIP3    H153626   0.611   5.335  11.284 -0.5204 -4.1789  0.2844
10737TIP3    H253627   0.605   5.302  11.432  0.8547  0.3757  1.5167
10738TIP3   OH253628   1.230   5.460  11.880 -0.0982  0.0062  0.0296
10738TIP3    H153629   1.252   5.367  11.884  1.5904  0.2867 -1.5233
10738TIP3    H253630   1.137   5.462  11.859  0.3886 -1.4197 -2.7147
10739TIP3   OH253631   0.460   6.039   2.101  0.0407 -0.5044  0.2539
10739TIP3    H153632   0.373   6.079   2.094  1.2293  2.4190  0.5181
10739TIP3    H253633   0.504   6.063   2.020  0.6970 -1.7333  0.2278
10740TIP3   OH253634   0.248   1.723  16.620  0.3025 -0.8369 -0.0132
10740TIP3    H153635   0.231   1.717  16.526  0.2830 -0.4054 -0.0414
10740TIP3    H253636   0.342   1.709  16.628  0.2703 -1.0802 -0.0793
10741TIP3   OH253637   3.908   5.500   1.210 -0.4116  0.0929 -0.2409
10741TIP3    H153638   3.859   5.455   1.278  0.1682  0.0434  0.1578
10741TIP3    H253639   3.855   5.491   1.132 -0.8849 -0.2222  0.1096
10742TIP3   OH253640   6.105   0.588  11.218 -0.0372  1.4215 -0.8097
10742TIP3    H153641   6.161   0.597  11.141  0.4888  1.3948 -0.4389
10742TIP3    H253642   6.024   0.632  11.194  0.9185  3.4745 -0.5819
10743TIP3   OH253643   1.954   6.038   1.167  0.4975  0.4122 -0.3350
10743TIP3    H153644   2.008   6.014   1.092  1.4168  0.9252  0.1386
10743TIP3    H253645   1.976   5.972   1.233  0.2394  0.3905 -0.2695
10744TIP3   OH253646   6.043   2.672  11.497 -0.2059 -0.0108  0.0555
10744TIP3    H153647   6.022   2.714  11.414  2.8725  3.3074  0.7104
10744TIP3    H253648   6.100   2.598  11.473 -0.9923 -0.3523 -0.8254
10745TIP3   OH253649   3.795   1.278  16.852 -0.3405 -0.3521 -0.3903
10745TIP3    H153650   3.734   1.252  16.921 -1.0848  0.2248 -0.8211
10745TIP3    H253651   3.866   1.321  16.899 -0.0589 -1.3590  0.1464
10746TIP3   OH253652   6.467   3.445   3.841 -0.2282  0.4022  0.4013
10746TIP3    H153653   6.458   3.491   3.757  0.6578  0.2199  0.1982
10746TIP3    H253654   6.552   3.472   3.874 -0.0562 -0.4388  0.6787
10747TIP3   OH253655   0.181   1.365   4.666 -0.3059  0.2226 -0.5681
10747TIP3    H153656   0.120   1.424   4.622 -1.5655 -1.3814 -1.0949
10747TIP3    H253657   0.124   1.306   4.716  0.8886 -0.5160 -0.0543
10748TIP3   OH253658   1.697   6.192  15.571 -0.0647 -0.0136  0.0878
10748TIP3    H153659   1.681   6.154  15.485 -1.5776 -1.0641  0.7904
10748TIP3    H253660   1.610   6.214  15.604  0.3646 -0.8286  1.8589
10749TIP3   OH253661   0.767   2.405  14.634  0.0111 -0.0979  0.5823
10749TIP3    H153662   0.813   2.404  14.550 -0.3648  0.9569  0.3410
10749TIP3    H253663   0.675   2.416  14.611 -0.0061  1.1519  1.1292
10750TIP3   OH253664   5.231   3.300  11.705 -0.1582 -0.5126  0.3776
10750TIP3    H153665   5.299   3.355  11.743  2.3057 -1.4028 -2.4053
10750TIP3    H253666   5.252   3.211  11.733 -0.0120 -0.8256 -0.6897
10751TIP3   OH253667   4.955   5.509  14.793  0.1680 -0.2521 -0.1668
10751TIP3    H153668   5.034   5.495  14.740 -0.4132  1.2604 -1.5251
10751TIP3    H253669   4.903   5.430  14.779  1.4810 -1.3524  0.8911
10752TIP3   OH253670   1.232   3.560   3.406  0.4457  0.4435  0.4765
10752TIP3    H153671   1.179   3.611   3.467 -0.4829 -1.3008  1.2267
10752TIP3    H253672   1.204   3.469   3.420  2.9356 -0.4655  0.1857
10753TIP3   OH253673   1.212   5.259  15.707  0.3692 -0.1197 -0.0932
10753TIP3    H153674   1.209   5.175  15.661 -0.0327  0.7542 -1.7725
10753TIP3    H253675   1.217   5.324  15.636 -2.1037  1.4202  1.0302
10754TIP3   OH253676   5.414   4.919   5.382 -0.5412  0.3699 -0.3551
10754TIP3    H153677   5.490   4.867   5.356 -1.9480 -1.1756 -1.6180
10754TIP3    H253678   5.447   5.009   5.388  1.4189 -0.2885 -0.6026
10755TIP3   OH253679   3.999   5.099  13.383  0.3796 -0.2385  0.7409
10755TIP3    H153680   4.070   5.111  13.321 -0.6266 -2.3611 -0.9556
10755TIP3    H253681   3.927   5.151  13.348 -0.0444 -1.0688  0.3564
10756TIP3   OH253682   4.927   6.398   4.227  0.0181  0.2109 -0.4917
10756TIP3    H153683   4.861   6.363   4.288 -0.7651  1.4327 -0.6043
10756TIP3    H253684   4.888   6.384   4.140 -0.1187  0.9794 -0.5555
10757TIP3   OH253685   1.625   2.028  13.777 -0.1085 -0.6010 -0.0525
10757TIP3    H153686   1.580   1.973  13.714  0.4866 -0.6350 -0.4517
10757TIP3    H253687   1.672   1.966  13.833  3.0325 -0.5095 -2.3192
10758TIP3   OH253688   5.951   3.538   4.452 -0.0976  0.1932  0.2116
10758TIP3    H153689   5.866   3.566   4.417 -0.5054  0.0777  1.0619
10758TIP3    H253690   6.002   3.618   4.459  0.7205 -0.0071 -2.4365
10759TIP3   OH253691   0.221   4.446   5.587  0.1860 -0.0972 -0.2720
10759TIP3    H153692   0.231   4.358   5.550 -1.0626 -0.3762 -0.0030
10759TIP3    H253693   0.132   4.447   5.622  1.0999  0.3184  2.2870
10760TIP3   OH253694   3.283   3.594  11.731 -0.6252 -0.1962  0.6346
10760TIP3    H153695   3.192   3.566  11.732 -0.6043 -0.2592  1.1126
10760TIP3    H253696   3.329   3.524  11.685 -1.1230  0.8535 -1.5869
10761TIP3   OH253697   5.105   4.854   3.078 -0.3931 -0.0453  0.4275
10761TIP3    H153698   5.021   4.889   3.050 -0.5941  0.3810  1.5125
10761TIP3    H253699   5.155   4.931   3.106  0.0973 -0.3683  0.4626
10762TIP3   OH253700   3.717   4.142   0.499  0.9727  0.4659  0.1327
10762TIP3    H153701   3.800   4.126   0.454  0.7273 -0.1992 -0.0886
10762TIP3    H253702   3.724   4.232   0.531  2.4832 -0.1134  1.5777
10763TIP3   OH253703   6.104   5.891  15.846 -0.1853 -0.2427  0.0425
10763TIP3    H153704   6.049   5.967  15.826 -0.6278 -0.8033 -0.9609
10763TIP3    H253705   6.174   5.925  15.902 -0.1096  1.0065 -0.7831
10764TIP3   OH253706   4.369   1.500  12.689  0.1297 -0.2399 -0.4692
10764TIP3    H153707   4.387   1.590  12.659 -0.9272  0.6728  1.4826
10764TIP3    H253708   4.336   1.456  12.610  0.9805  0.9635 -1.5593
10765TIP3   OH253709   3.153   4.408  17.122  0.1984 -0.7746  0.1454
10765TIP3    H153710   3.130   4.399  17.030  1.2999  0.5709 -0.3001
10765TIP3    H253711   3.090   4.471  17.157  2.7361  2.7289 -1.0190
10766TIP3   OH253712   5.992   3.358  12.839  0.2417 -1.0241  0.1138
10766TIP3    H153713   5.946   3.441  12.852  0.6294 -0.8586  0.4693
10766TIP3    H253714   5.985   3.314  12.924  1.5593 -0.5761  0.4689
10767TIP3   OH253715   3.744   4.680  15.772  0.1107  0.4767  0.6070
10767TIP3    H153716   3.749   4.760  15.824 -0.6039  0.3456  0.8932
10767TIP3    H253717   3.753   4.709  15.682  0.7058  0.7802  0.7595
10768TIP3   OH253718   5.904   4.205  15.342  0.9476  0.1032 -0.1267
10768TIP3    H153719   5.809   4.194  15.349  1.1222 -1.2891  0.3923
10768TIP3    H253720   5.915   4.283  15.289 -0.5141 -0.9810 -2.1755
10769TIP3   OH253721   1.987   5.152  16.320 -0.7008 -0.4915 -0.3335
10769TIP3    H153722   1.985   5.181  16.412  0.3367  1.8122 -0.9519
10769TIP3    H253723   1.902   5.110  16.307 -1.4237  0.3234  1.3509
10770TIP3   OH253724   1.897   4.736  14.206  0.4671 -0.2082 -0.0357
10770TIP3    H153725   1.875   4.817  14.253 -0.8086  0.6320 -1.9445
10770TIP3    H253726   1.975   4.758  14.155 -0.1962  0.0191 -0.9741
10771TIP3   OH253727   6.409   5.761  13.771 -0.0467  0.2653  0.6000
10771TIP3    H153728   6.412   5.677  13.816 -0.8678  0.0653  0.2940
10771TIP3    H253729   6.355   5.745  13.693 -0.4109  1.1266  0.6619
10772TIP3   OH253730   0.299   1.911  11.133  0.2321 -0.3472 -0.6467
10772TIP3    H153731   0.265   1.976  11.072 -0.6163 -0.3125 -0.1565
10772TIP3    H253732   0.267   1.827  11.099 -0.8288 -0.2676  0.1075
10773TIP3   OH253733   5.226   2.187  15.527  0.0092 -0.3292 -0.0404
10773TIP3    H153734   5.257   2.114  15.474  0.1987  0.3621 -0.9110
10773TIP3    H253735   5.146   2.217  15.483  0.0707  0.1453  0.1586
10774TIP3   OH253736   1.803   2.980   4.890 -0.4555  0.2891  0.0849
10774TIP3    H153737   1.895   2.967   4.868 -0.5642 -0.3128 -0.0567
10774TIP3    H253738   1.758   2.908   4.846 -0.9573  0.3981  0.4067
10775TIP3   OH253739   1.524   4.152   3.676  0.5378 -0.3176  0.4821
10775TIP3    H153740   1.523   4.126   3.768  1.6220  3.0350  1.5636
10775TIP3    H253741   1.616   4.172   3.657 -0.1221  2.5530 -0.1528
10776TIP3   OH253742   4.166   0.085  12.141  0.2047  0.3813 -0.4226
10776TIP3    H153743   4.151   0.131  12.223  1.4938 -0.6254  0.4205
10776TIP3    H253744   4.221   0.144  12.090 -1.0560  1.2475 -0.8202
10777TIP3   OH253745   3.720   0.660  13.379 -0.0613 -0.4774  0.5146
10777TIP3    H153746   3.695   0.660  13.286  0.8196  0.9479  0.2563
10777TIP3    H253747   3.708   0.750  13.407 -2.6344 -1.3051  2.4813
10778TIP3   OH253748   1.724   4.908   1.107 -0.2349 -0.6240 -0.3840
10778TIP3    H153749   1.724   4.988   1.054 -1.5090 -0.4867 -0.2086
10778TIP3    H253750   1.634   4.876   1.102  0.0709 -1.6092  0.2088
10779TIP3   OH253751   2.234   6.121   1.644 -0.1984 -0.2647 -0.2028
10779TIP3    H153752   2.300   6.053   1.654  1.0751  0.9875  0.1954
10779TIP3    H253753   2.238   6.147   1.552 -2.7170 -2.6523 -1.1239
10780TIP3   OH253754   4.337   5.503  12.186  0.0184 -0.0779  0.3159
10780TIP3    H153755   4.326   5.485  12.092  0.3667 -0.1011  0.2790
10780TIP3    H253756   4.429   5.529  12.194 -0.8482  3.7426 -0.0160
10781TIP3   OH253757   5.752   6.224   0.525 -0.8046  0.3909 -0.4425
10781TIP3    H153758   5.843   6.212   0.496 -0.4895  0.8347  0.3168
10781TIP3    H253759   5.742   6.318   0.533 -0.8164  0.2896  1.0029
10782TIP3   OH253760   6.515   1.498   1.346  0.6376 -0.3525 -0.1451
10782TIP3    H153761   6.429   1.534   1.365 -0.1385 -0.4244 -3.0280
10782TIP3    H253762   6.569   1.575   1.327  0.3999 -0.4129 -1.1306
10783TIP3   OH253763   0.450   3.471  15.546 -0.3676 -0.9436  0.4002
10783TIP3    H153764   0.438   3.472  15.641 -1.0863 -0.9599  0.3182
10783TIP3    H253765   0.379   3.414  15.513 -0.5545 -0.3867 -0.1924
10784TIP3   OH253766   1.974   6.286   3.000  0.1845  0.7019  0.5493
10784TIP3    H153767   2.019   6.370   3.011  0.2409  0.6259  0.9357
10784TIP3    H253768   1.887   6.310   2.968  0.9275  0.7753 -1.5374
10785TIP3   OH253769   4.268   4.775  11.697  0.0312 -0.1819  0.2039
10785TIP3    H153770   4.355   4.813  11.693 -0.1217  0.2867  1.0685
10785TIP3    H253771   4.251   4.762  11.790 -0.5544 -0.8993  0.0088
10786TIP3   OH253772   5.933   0.921   0.849  0.6375  0.4067 -0.6853
10786TIP3    H153773   5.971   1.000   0.887  1.6591 -0.2179 -0.3577
10786TIP3    H253774   5.910   0.946   0.759  0.0444  1.3327 -0.2838
10787TIP3   OH253775   6.694   5.292  15.229  0.3102 -0.2317  0.3178
10787TIP3    H153776   6.677   5.320  15.139  0.8745 -0.1044  0.2478
10787TIP3    H253777   6.609   5.261  15.261 -0.6616  2.5432  0.7464
10788TIP3   OH253778   3.767   3.124  16.621 -0.2779  0.3370 -0.6161
10788TIP3    H153779   3.829   3.123  16.693  1.4019  0.8601 -1.9938
10788TIP3    H253780   3.809   3.074  16.552 -2.0755 -0.6021 -1.1034
10789TIP3   OH253781   6.169   0.744  15.239  0.2844  0.2994  0.0017
10789TIP3    H153782   6.135   0.711  15.322 -1.0560  0.3709 -0.4886
10789TIP3    H253783   6.132   0.832  15.231 -0.6782 -0.1879 -1.2556
10790TIP3   OH253784   0.871   1.095  13.942  0.3634  0.4328  0.2793
10790TIP3    H153785   0.779   1.072  13.942  0.5241 -0.2100  0.9105
10790TIP3    H253786   0.871   1.191  13.940 -0.3168  0.4462  0.6069
10791TIP3   OH253787   3.649   0.954  14.675 -0.5478 -0.0382  0.0207
10791TIP3    H153788   3.645   0.912  14.761 -1.3016  1.2555  0.6548
10791TIP3    H253789   3.569   1.006  14.670  0.2505  1.1791 -0.7905
10792TIP3   OH253790   5.309   5.879   4.119  0.7309  0.2375 -0.4281
10792TIP3    H153791   5.368   5.845   4.186  1.0318  1.2433 -0.1700
10792TIP3    H253792   5.267   5.955   4.160  0.7986  0.7707 -1.3080
10793TIP3   OH253793   0.389   6.361   2.171 -0.2560  0.1406  0.5212
10793TIP3    H153794   0.312   6.385   2.120 -0.6156  0.2463  1.1049
10793TIP3    H253795   0.392   6.265   2.166 -0.0500  0.1759 -0.0393
10794TIP3   OH253796   3.013   2.550  15.648  0.0717  0.7278 -0.7034
10794TIP3    H153797   3.012   2.551  15.744 -1.5389 -3.2365 -0.5194
10794TIP3    H253798   2.921   2.560  15.623  0.0062 -1.7046 -1.6182
10795TIP3   OH253799   2.230   0.655  14.242  0.1312  0.1435  0.1355
10795TIP3    H153800   2.309   0.702  14.215  0.0911  0.9182  1.3376
10795TIP3    H253801   2.262   0.586  14.300  0.3350 -2.2110 -2.5469
10796TIP3   OH253802   2.591   0.676   0.319 -0.3508 -0.4177  0.5672
10796TIP3    H153803   2.665   0.719   0.276 -1.2816 -1.2646 -2.0592
10796TIP3    H253804   2.560   0.740   0.383  0.1985  1.5740 -1.0697
10797TIP3   OH253805   5.116   0.144   5.576  0.9808 -0.4536 -0.1533
10797TIP3    H153806   5.104   0.091   5.655 -0.9160  0.3821  0.1578
10797TIP3    H253807   5.211   0.143   5.561  1.6222  0.7437  3.1013
10798TIP3   OH253808   0.655   4.696  12.283 -0.6590  0.9560  0.3086
10798TIP3    H153809   0.580   4.708  12.223 -0.2479 -1.0051 -0.7051
10798TIP3    H253810   0.632   4.618  12.334  0.3537  0.7797  0.5190
10799TIP3   OH253811   2.196   2.950  15.991 -0.0950  0.4963 -0.2025
10799TIP3    H153812   2.130   2.918  15.929 -1.0557  3.3373 -0.8159
10799TIP3    H253813   2.279   2.915  15.959 -0.4815  2.2007 -3.4549
10800TIP3   OH253814   0.163   1.277   3.302 -0.2734  0.1364  0.1609
10800TIP3    H153815   0.253   1.288   3.271 -0.3057  0.0568  0.0386
10800TIP3    H253816   0.112   1.340   3.251 -0.5558 -0.9818 -0.9736
10801TIP3   OH253817   2.201   5.072   4.315  0.5123  0.7470  0.2345
10801TIP3    H153818   2.107   5.055   4.317  0.7350 -0.7994 -0.5485
10801TIP3    H253819   2.218   5.099   4.224  0.8136  1.1102  0.3982
10802TIP3   OH253820   2.126   5.152  12.777 -0.2881 -0.1454 -0.5835
10802TIP3    H153821   2.103   5.211  12.705 -0.8192 -0.7451 -0.9128
10802TIP3    H253822   2.199   5.100  12.745 -0.8635 -0.7726 -0.8828
10803TIP3   OH253823   0.528   5.957  12.914 -0.3247 -0.0810  0.1747
10803TIP3    H153824   0.510   5.981  13.005 -0.3469  0.4677  0.0294
10803TIP3    H253825   0.587   5.882  12.921 -0.8559 -0.4685  0.6402
10804TIP3   OH253826   6.222   5.434   1.337  0.1718  0.1803 -0.2841
10804TIP3    H153827   6.145   5.485   1.364 -1.1900 -0.8051 -2.0972
10804TIP3    H253828   6.284   5.500   1.305  1.2028  1.2273  3.4432
10805TIP3   OH253829   2.109   2.703  11.945  0.4505 -0.1313 -0.9391
10805TIP3    H153830   2.137   2.697  11.853 -0.3062  0.4788 -1.2153
10805TIP3    H253831   2.175   2.652  11.993  2.0223  1.2312 -1.5623
10806TIP3   OH253832   1.887   6.162  16.566 -0.8928 -0.0416 -0.3033
10806TIP3    H153833   1.947   6.140  16.637 -0.2205  2.2588 -0.0655
10806TIP3    H253834   1.837   6.237  16.599 -0.6940  0.9649 -2.1430
10807TIP3   OH253835   0.698   2.502  14.928 -0.1394  0.2628 -0.1043
10807TIP3    H153836   0.718   2.479  15.019 -0.1157  2.7154  0.6101
10807TIP3    H253837   0.764   2.458  14.876  0.6572 -0.1462  1.2092
10808TIP3   OH253838   1.774   4.956   2.928  0.3936  0.2232 -0.6766
10808TIP3    H153839   1.777   4.893   3.000 -1.2806  1.5432  0.6532
10808TIP3    H253840   1.709   4.921   2.867  0.6378 -0.1184 -0.7393
10809TIP3   OH253841   2.157   4.632   5.193 -0.9304  0.1155 -0.2132
10809TIP3    H153842   2.193   4.586   5.270 -0.3417  0.6273 -0.1712
10809TIP3    H253843   2.232   4.640   5.134 -1.5784 -1.0548 -1.2403
10810TIP3   OH253844   5.521   0.716  15.596  0.3783  0.4385 -0.3078
10810TIP3    H153845   5.573   0.744  15.521  0.5555 -3.5357 -1.9632
10810TIP3    H253846   5.580   0.660  15.647 -0.7154  0.3079  0.8888
10811TIP3   OH253847   3.040   0.609   2.848  0.6852 -0.0788  0.3904
10811TIP3    H153848   3.044   0.522   2.888 -1.7651 -0.1761  0.5983
10811TIP3    H253849   3.003   0.593   2.761  1.5661  0.6335 -0.1301
10812TIP3   OH253850   4.235   2.718  12.684 -1.0129  0.2897  0.1443
10812TIP3    H153851   4.140   2.723  12.681 -1.0550 -0.6828 -2.3546
10812TIP3    H253852   4.260   2.672  12.604  1.5977  0.8341  0.5316
10813TIP3   OH253853   3.440   6.360   3.350 -0.3646  0.4389  0.3696
10813TIP3    H153854   3.394   6.294   3.298 -0.7643  1.3810 -0.5225
10813TIP3    H253855   3.532   6.351   3.324 -0.5742  0.9751 -0.6242
10814TIP3   OH253856   2.323   2.980  13.306 -0.6289 -0.2325 -0.2794
10814TIP3    H153857   2.242   2.954  13.263 -0.5804 -0.8769 -0.0003
10814TIP3    H253858   2.384   2.997  13.235 -1.2575  1.1339 -0.5170
10815TIP3   OH253859   5.813   5.848   4.233  0.0408  0.0254  0.5423
10815TIP3    H153860   5.770   5.771   4.196  0.7638 -0.4888  0.7393
10815TIP3    H253861   5.890   5.861   4.177 -2.3086  3.3607 -2.3983
10816TIP3   OH253862   4.025   1.928  12.570  0.2990 -0.3817 -0.7548
10816TIP3    H153863   3.974   1.889  12.499 -2.0011  2.5997 -0.9428
10816TIP3    H253864   4.038   2.019  12.543  2.0472  0.0554  1.3011
10817TIP3   OH253865   4.872   0.693   1.090  0.0841  0.0730 -0.0599
10817TIP3    H153866   4.860   0.652   1.004  0.4034  1.6615 -0.8974
10817TIP3    H253867   4.844   0.783   1.077  0.9980  0.5701  1.2809
10818TIP3   OH253868   0.754   3.666  16.248  0.2387 -0.2622 -0.6487
10818TIP3    H153869   0.762   3.572  16.263 -2.5517 -0.4950 -0.0505
10818TIP3    H253870   0.688   3.695  16.311  1.0901  2.1410 -0.7631
10819TIP3   OH253871   1.725   0.016  13.830 -0.1717 -0.0841  0.2979
10819TIP3    H153872   1.698   0.083  13.893  0.3944  0.7271 -0.3083
10819TIP3    H253873   1.695  -0.067  13.869 -2.1880  0.6183  0.3910
10820TIP3   OH253874   1.760   3.119  14.163  0.6104 -0.3822  0.2950
10820TIP3    H153875   1.808   3.194  14.197  0.5771  0.4232 -1.3258
10820TIP3    H253876   1.705   3.155  14.093  0.0273 -1.7982 -0.0244
10821TIP3   OH253877   1.002   5.290  16.733 -0.0356 -0.5441  0.2913
10821TIP3    H153878   0.929   5.346  16.705 -0.7365 -1.5048  0.1564
10821TIP3    H253879   1.071   5.352  16.758 -0.1648  0.3900 -1.4663
10822TIP3   OH253880   1.512   6.540   1.536 -0.1536  0.2404 -0.5079
10822TIP3    H153881   1.476   6.452   1.524 -0.7699  0.4317 -0.0843
10822TIP3    H253882   1.537   6.544   1.628  1.2417  0.0124 -0.8540
10823TIP3   OH253883   5.088   3.500  14.854  0.2581  0.0738 -0.1532
10823TIP3    H153884   5.133   3.536  14.930 -1.0364  2.6185 -0.4693
10823TIP3    H253885   5.151   3.506  14.783  0.5577  0.3394  0.1328
10824TIP3   OH253886   1.560   3.543   2.668 -0.1952 -0.3894 -0.0765
10824TIP3    H153887   1.649   3.573   2.686 -0.2714  0.3273 -0.8445
10824TIP3    H253888   1.557   3.531   2.573 -1.4551  1.4197 -0.3139
10825TIP3   OH253889   3.906   0.748   5.048  0.0519  0.3167 -0.2235
10825TIP3    H153890   3.971   0.794   5.101 -1.3260  0.6530  1.2142
10825TIP3    H253891   3.940   0.658   5.041  2.2734  1.1870 -2.2533
10826TIP3   OH253892   1.651   0.841   3.110  0.1900 -0.6090 -0.0219
10826TIP3    H153893   1.601   0.782   3.166  1.0973 -1.1591  0.2306
10826TIP3    H253894   1.628   0.929   3.140 -0.6832 -0.8531  0.0304
10827TIP3   OH253895   1.669   5.475   0.909  0.4978  0.0154  0.0307
10827TIP3    H153896   1.616   5.555   0.912 -0.1206 -0.4228  2.1840
10827TIP3    H253897   1.614   5.408   0.949  1.0940 -1.4782 -1.5299
10828TIP3   OH253898   5.856   5.897  16.313  0.1522 -0.0448 -0.0051
10828TIP3    H153899   5.912   5.822  16.332 -1.7796 -1.7028 -0.5327
10828TIP3    H253900   5.880   5.962  16.379  0.5976 -1.8302  1.6856
10829TIP3   OH253901   3.451   3.462   2.341 -0.3605 -0.3260 -0.3646
10829TIP3    H153902   3.526   3.438   2.286 -0.0440 -0.7381  0.2332
10829TIP3    H253903   3.490   3.508   2.415 -0.8212  0.5962 -0.6790
10830TIP3   OH253904   2.284   5.591   0.733 -0.0675 -0.4463 -0.2479
10830TIP3    H153905   2.259   5.506   0.696 -0.0671 -0.6784  0.2826
10830TIP3    H253906   2.202   5.639   0.740  0.1852  0.5580 -2.8648
10831TIP3   OH253907   6.294   2.663  14.617  0.0249 -0.4995  0.3550
10831TIP3    H153908   6.348   2.732  14.656 -0.6434 -1.4286  3.1250
10831TIP3    H253909   6.222   2.651  14.679 -0.9767 -2.3113 -1.0724
10832TIP3   OH253910   3.596   5.943   2.498 -0.2289 -0.0532 -0.2086
10832TIP3    H153911   3.567   5.942   2.407  0.8746 -0.3985 -0.5678
10832TIP3    H253912   3.610   5.850   2.519 -2.4555 -0.1930  0.9878
10833TIP3   OH253913   6.003   2.463  15.055 -0.9260 -0.2732 -0.0106
10833TIP3    H153914   5.963   2.497  15.136  1.1629 -0.9003  1.3568
10833TIP3    H253915   6.008   2.368  15.069  1.0401 -0.2220 -0.0715
10834TIP3   OH253916   3.868   5.274  15.189 -0.1242 -0.2171  0.0222
10834TIP3    H153917   3.808   5.219  15.140  0.4657 -2.2795  1.5057
10834TIP3    H253918   3.942   5.289  15.129 -0.6685 -0.3233 -0.6826
10835TIP3   OH253919   6.420   4.150  16.800  0.8999 -0.0427 -0.3566
10835TIP3    H153920   6.359   4.077  16.804  1.2258 -0.3426 -0.8138
10835TIP3    H253921   6.414   4.182  16.710  0.0597  1.1040  0.0693
10836TIP3   OH253922   1.015   4.481  16.232  0.2923 -0.1197  0.6992
10836TIP3    H153923   1.075   4.421  16.188  1.4626  2.1278 -1.0062
10836TIP3    H253924   0.931   4.466  16.189  0.9888  0.6723 -1.0409
10837TIP3   OH253925   5.992   4.055  16.976  0.2025 -0.5133 -1.0501
10837TIP3    H153926   5.985   4.124  17.041 -0.6742 -2.3408  0.9246
10837TIP3    H253927   5.940   4.087  16.902  0.2473  1.1336 -0.4098
10838TIP3   OH253928   2.620   1.326   2.936 -0.5865  0.3986  0.7009
10838TIP3    H153929   2.609   1.240   2.975 -0.8583  1.1138  2.2507
10838TIP3    H253930   2.715   1.340   2.936 -0.2497 -1.0335 -2.2160
10839TIP3   OH253931   6.574   5.180   3.128 -0.1645 -0.0932  0.0316
10839TIP3    H153932   6.622   5.136   3.198 -0.6757  1.4206  1.3906
10839TIP3    H253933   6.518   5.111   3.092  1.3233 -1.3163 -0.0604
10840TIP3   OH253934   1.995   2.965   5.440  0.0872  0.5764 -0.3379
10840TIP3    H153935   1.949   2.913   5.506 -1.1143  1.3455 -0.5415
10840TIP3    H253936   2.011   2.903   5.369  0.1640  0.0794  0.1035
10841TIP3   OH253937   2.734   4.750   3.637  0.0345  0.2533  0.0421
10841TIP3    H153938   2.764   4.660   3.622 -1.3430  0.0668 -1.9129
10841TIP3    H253939   2.814   4.800   3.654  1.1543 -0.7966 -1.8246
10842TIP3   OH253940   6.203   0.012   4.882  0.1637  0.1710  0.1826
10842TIP3    H153941   6.235  -0.077   4.899 -0.6368  0.2221  2.1768
10842TIP3    H253942   6.228   0.062   4.960 -1.6961  1.0441  0.2729
10843TIP3   OH253943   4.811   6.308   3.018  0.5814 -0.1915  0.3872
10843TIP3    H153944   4.731   6.256   3.023  0.5997 -0.2313  0.2680
10843TIP3    H253945   4.880   6.248   3.046  0.7046 -0.4592 -0.4516
10844TIP3   OH253946   1.451   4.318  11.865 -0.2112 -0.6169  0.1094
10844TIP3    H153947   1.470   4.385  11.800  0.6073 -1.9277 -1.0484
10844TIP3    H253948   1.389   4.360  11.925  0.5788  1.2819 -0.3486
10845TIP3   OH253949   3.996   0.962   5.302  0.5972  0.4278  0.2102
10845TIP3    H153950   4.013   1.044   5.348 -0.8158  0.4905  0.6569
10845TIP3    H253951   3.920   0.980   5.247 -2.6817 -1.6612  3.5966
10846TIP3   OH253952   0.723   5.238   4.959  0.3170  0.9883  0.2407
10846TIP3    H153953   0.780   5.310   4.931  0.7184 -0.5204 -3.4871
10846TIP3    H253954   0.783   5.171   4.991  0.6313  0.0676 -2.0696
10847TIP3   OH253955   6.170   3.428  11.056 -0.3096 -0.0999  0.1635
10847TIP3    H153956   6.134   3.515  11.040 -2.3934 -0.8748  0.4363
10847TIP3    H253957   6.185   3.392  10.969  0.2209  0.3547  0.0524
10848TIP3   OH253958   5.603   6.443   6.319 -0.4785 -0.2656  0.2607
10848TIP3    H153959   5.668   6.437   6.389 -1.1004 -2.1020  0.7372
10848TIP3    H253960   5.562   6.357   6.317 -1.1336  0.0301 -1.7458
10849TIP3   OH253961   0.195   0.702   6.643 -0.1099  0.2928 -0.6093
10849TIP3    H153962   0.174   0.731   6.554 -0.4360 -1.1300 -1.0362
10849TIP3    H253963   0.262   0.634   6.630  0.1235  0.3489  0.2627
10850TIP3   OH253964   0.922   4.786  13.368  0.0727  0.2603  0.0175
10850TIP3    H153965   0.870   4.855  13.326 -1.2290 -1.6083 -1.6548
10850TIP3    H253966   1.012   4.803  13.341 -0.3678  0.7744 -1.1951
10851TIP3   OH253967   6.259   4.246  12.906  0.5642 -0.0629 -0.5113
10851TIP3    H153968   6.239   4.297  12.985  1.0596 -1.6527  0.6788
10851TIP3    H253969   6.284   4.160  12.939 -0.1487 -1.0627 -2.4652
10852TIP3   OH253970   4.836   2.654   4.861 -0.7171  0.4385  0.0613
10852TIP3    H153971   4.791   2.667   4.944 -2.3178 -1.6321 -0.4147
10852TIP3    H253972   4.767   2.666   4.795  0.0437 -0.1132 -0.8461
10853TIP3   OH253973   4.136   6.417  12.087  0.2081 -0.2682  0.3161
10853TIP3    H153974   4.155   6.325  12.071 -0.1169 -0.1128 -1.0217
10853TIP3    H253975   4.164   6.462  12.007 -1.1729  0.5787  0.2849
10854TIP3   OH253976   5.182   3.939   4.102 -0.9025  0.3691 -0.3371
10854TIP3    H153977   5.143   3.863   4.146 -2.0429  1.7224  1.1292
10854TIP3    H253978   5.274   3.915   4.091 -1.0923 -0.9776  0.6373
10855TIP3   OH253979   1.914   5.800   0.350 -0.5490  0.1985  0.1058
10855TIP3    H153980   1.876   5.882   0.319  1.0910  1.8302  2.1327
10855TIP3    H253981   1.844   5.759   0.401 -1.0741  0.8421 -0.0891
10856TIP3   OH253982   0.591   6.075   3.186  0.2128 -0.6178 -0.0656
10856TIP3    H153983   0.497   6.059   3.177  0.1481  0.4099 -1.5288
10856TIP3    H253984   0.600   6.110   3.274 -0.6035 -1.7373  0.5052
10857TIP3   OH253985   1.376   0.952   0.496  0.3106 -0.1063  0.4130
10857TIP3    H153986   1.342   0.887   0.435  1.2375  0.7292 -1.0469
10857TIP3    H253987   1.433   1.008   0.443  1.6521  0.2825  2.1655
10858TIP3   OH253988   0.642   2.398  11.599  0.9399 -0.5334  0.2710
10858TIP3    H153989   0.681   2.484  11.587 -1.4573  0.7746  1.0329
10858TIP3    H253990   0.668   2.348  11.522 -0.3089  2.0102 -1.9898
10859TIP3   OH253991   4.432   2.774  13.177 -0.1403  0.3531 -0.6805
10859TIP3    H153992   4.341   2.797  13.197 -0.2363 -0.1775 -0.4991
10859TIP3    H253993   4.425   2.693  13.126  0.3459 -1.5157  2.0323
10860TIP3   OH253994   3.764   1.800  17.345 -0.0155 -0.5156 -0.0580
10860TIP3    H153995   3.856   1.792  17.318  0.4532 -0.9558  1.5626
10860TIP3    H253996   3.768   1.810  17.441 -1.5342  1.5892 -0.1428
10861TIP3   OH253997   0.409   4.480   3.429 -0.3752 -0.3335 -0.2838
10861TIP3    H153998   0.396   4.412   3.362  1.6644  0.2600 -1.3617
10861TIP3    H253999   0.349   4.550   3.405  0.5843  0.0243 -1.7604
10862TIP3   OH254000   4.256   4.796   5.727  0.1461  0.0307  0.2671
10862TIP3    H154001   4.305   4.730   5.776 -0.6088 -0.1657  0.7722
10862TIP3    H254002   4.270   4.772   5.635 -0.9160 -1.4465  0.4540
10863TIP3   OH254003   5.916   3.406   4.997  0.2928 -0.0021 -0.1257
10863TIP3    H154004   6.002   3.447   5.008 -0.0592  0.6239  0.3825
10863TIP3    H254005   5.883   3.440   4.914  0.9846 -1.0861 -0.8598
10864TIP3   OH254006   6.051   0.426   3.091 -0.5274  0.4373  0.3021
10864TIP3    H154007   6.096   0.416   3.175  0.9033 -2.4196 -0.6813
10864TIP3    H254008   5.960   0.444   3.115 -0.2102 -0.4953  2.4642
10865TIP3   OH254009   1.290   4.601   0.814 -0.0739 -0.4208  0.1622
10865TIP3    H154010   1.381   4.628   0.824 -0.5761  2.3972 -1.6332
10865TIP3    H254011   1.257   4.590   0.903  1.4067  0.8387  0.8983
10866TIP3   OH254012   0.201   3.757  11.033 -0.3576 -0.3013 -0.6972
10866TIP3    H154013   0.291   3.763  11.000  0.1470  0.4325  0.7484
10866TIP3    H254014   0.149   3.803  10.968  0.4936  0.3783 -0.9122
10867TIP3   OH254015   1.485   5.806   5.061  0.0168  0.0459 -0.1121
10867TIP3    H154016   1.397   5.817   5.097 -0.3228  0.9109 -1.1389
10867TIP3    H254017   1.501   5.712   5.063 -0.8395 -0.0950  0.2883
10868TIP3   OH254018   2.763   1.010  14.322  0.1100  0.0537 -0.3864
10868TIP3    H154019   2.673   1.038  14.336 -0.1191 -0.4053 -0.8887
10868TIP3    H254020   2.765   0.919  14.353  0.6580  0.3818  0.5552
10869TIP3   OH254021   1.329   2.992  10.445 -0.1678  0.1437 -0.0946
10869TIP3    H154022   1.372   3.012  10.528  0.6520 -0.2147 -0.4206
10869TIP3    H254023   1.255   3.052  10.441  1.2110  1.9124 -0.2642
10870TIP3   OH254024   2.003   5.475   2.830  0.2180  0.4211 -0.3597
10870TIP3    H154025   1.950   5.480   2.909 -0.8441  1.2600 -1.0951
10870TIP3    H254026   2.083   5.522   2.851  0.0086  0.5041  0.2612
10871TIP3   OH254027   5.029   3.175  11.885 -0.1051 -0.1103  0.0095
10871TIP3    H154028   5.108   3.202  11.932 -0.8759  1.0366  0.6933
10871TIP3    H254029   4.979   3.126  11.950 -1.1298  1.3893  0.4038
10872TIP3   OH254030   1.579   1.757  16.132  0.1385 -0.2185 -0.0075
10872TIP3    H154031   1.521   1.804  16.072  0.7005  0.2836 -0.1703
10872TIP3    H254032   1.657   1.813  16.138  0.1651 -0.3560  1.0464
10873TIP3   OH254033   1.011   4.994   3.806  0.5255 -0.2457 -0.0215
10873TIP3    H154034   1.022   5.081   3.770 -0.3475  1.6821  3.7933
10873TIP3    H254035   1.092   4.978   3.854  0.7556 -1.6851 -0.8361
10874TIP3   OH254036   6.584   5.253   6.315 -0.1854 -0.1853  0.3163
10874TIP3    H154037   6.609   5.234   6.224 -0.8837 -0.2721  0.1362
10874TIP3    H254038   6.631   5.334   6.336  0.9741 -0.8373  0.3053
10875TIP3   OH254039   2.254   5.082   0.486  0.8486  0.1583 -0.1531
10875TIP3    H154040   2.232   5.035   0.566 -1.2962 -0.4592 -1.0445
10875TIP3    H254041   2.298   5.017   0.432  0.1543 -0.1161 -0.3957
10876TIP3   OH254042   0.551   3.112  14.276 -0.6389 -0.2374  0.7193
10876TIP3    H154043   0.605   3.106  14.354 -0.7364  2.0790  1.0324
10876TIP3    H254044   0.600   3.065  14.208 -0.7432 -2.6433  2.1834
10877TIP3   OH254045   0.324   5.208   3.417 -0.6024 -0.5278  0.8317
10877TIP3    H154046   0.349   5.205   3.510  0.3086  0.3204  0.6276
10877TIP3    H254047   0.332   5.117   3.387 -0.5060 -0.7395  1.4796
10878TIP3   OH254048   1.238   6.735  11.745 -0.1820  0.0374  0.3387
10878TIP3    H154049   1.203   6.646  11.750  1.9830 -1.0016 -1.3553
10878TIP3    H254050   1.198   6.773  11.667  0.4995 -0.2629 -0.1727
10879TIP3   OH254051   1.660   5.185   0.425 -0.1985  0.2822  0.6696
10879TIP3    H154052   1.588   5.124   0.436 -1.2945  1.0732 -1.4082
10879TIP3    H254053   1.737   5.130   0.412 -0.8244 -0.6254  0.7479
10880TIP3   OH254054   1.832   1.785  14.838 -0.5109  0.4592 -0.1155
10880TIP3    H154055   1.742   1.764  14.813 -0.6074  1.7901 -0.9602
10880TIP3    H254056   1.884   1.769  14.759  0.0673 -0.6051  0.4533
10881TIP3   OH254057   2.210   0.313  12.660 -0.2899 -0.3263 -0.1029
10881TIP3    H154058   2.288   0.266  12.691 -1.0335 -0.2069  2.1492
10881TIP3    H254059   2.222   0.403  12.692 -1.4177 -0.3466  0.4088
10882TIP3   OH254060   6.186   5.938  16.245  0.2067 -0.5184 -0.3495
10882TIP3    H154061   6.126   5.883  16.296  3.1383 -2.2320  1.5587
10882TIP3    H254062   6.214   6.005  16.307  0.5614  0.0244 -1.0971
10883TIP3   OH254063   0.066   3.627   1.500 -0.2742 -0.0990 -0.2436
10883TIP3    H154064  -0.020   3.596   1.473  0.6874 -2.8837 -0.3511
10883TIP3    H254065   0.117   3.629   1.419 -0.4555  2.7023 -0.4005
10884TIP3   OH254066   1.715   5.367  13.712 -0.6566  0.2534  0.0231
10884TIP3    H154067   1.651   5.308  13.751 -1.5219  0.6561 -0.7594
10884TIP3    H254068   1.688   5.454  13.740 -0.7638  0.4706 -0.7290
10885TIP3   OH254069   5.198   6.010   4.455 -0.3600  1.0033  0.3953
10885TIP3    H154070   5.150   6.048   4.381 -0.9694 -1.4969 -0.6055
10885TIP3    H254071   5.289   6.008   4.425 -0.4248  1.0636  0.1886
10886TIP3   OH254072   0.582   2.589   5.714 -0.0942  0.4598 -0.0033
10886TIP3    H154073   0.630   2.599   5.796  0.2436  0.4075 -0.1963
10886TIP3    H254074   0.578   2.677   5.677  2.4944  0.0344 -1.4830
10887TIP3   OH254075   6.116   5.364  15.157 -0.3299  0.2458 -0.4866
10887TIP3    H154076   6.048   5.383  15.222  0.1731 -1.7070  0.7054
10887TIP3    H254077   6.191   5.415  15.185 -0.3230 -0.0766  0.0954
10888TIP3   OH254078   0.669   3.809  14.958  0.1049 -0.2114  0.6975
10888TIP3    H154079   0.639   3.764  14.878 -1.4347 -0.7196  1.5197
10888TIP3    H254080   0.680   3.900  14.931  0.2031 -0.4901 -0.2503
10889TIP3   OH254081   5.759   4.408  11.500  0.0283 -0.0555  0.5060
10889TIP3    H154082   5.821   4.403  11.573  0.8679  0.4994 -0.1426
10889TIP3    H254083   5.695   4.473  11.527  1.7806  2.1149 -0.2464
10890TIP3   OH254084   1.294   4.444  14.404 -0.0827  0.7682 -0.1704
10890TIP3    H154085   1.293   4.479  14.493  0.2401  1.5467 -0.4653
10890TIP3    H254086   1.384   4.457  14.374 -0.2677  0.8092 -0.7203
10891TIP3   OH254087   5.255   1.122  12.947  0.1014 -0.5971 -0.0985
10891TIP3    H154088   5.276   1.075  12.866  1.3459 -1.2353  0.5635
10891TIP3    H254089   5.215   1.204  12.918  1.0870 -0.5373 -1.3857
10892TIP3   OH254090   0.085   3.520   5.098  0.1729 -0.5696  0.1532
10892TIP3    H154091   0.106   3.504   5.190  1.1422  0.3899  0.1239
10892TIP3    H254092   0.159   3.570   5.065 -1.0548  0.8317 -0.6205
10893TIP3   OH254093   6.024   2.405  12.441 -0.7886 -0.2468 -0.6825
10893TIP3    H154094   6.069   2.342  12.385 -0.8465  0.9054 -2.0824
10893TIP3    H254095   5.933   2.404  12.409 -1.4766 -1.4527  1.1248
10894TIP3   OH254096   5.969   0.671  17.268 -0.0669 -0.0591 -0.2747
10894TIP3    H154097   5.928   0.685  17.183 -0.1944  0.5288 -0.1208
10894TIP3    H254098   5.947   0.749  17.319  0.3337 -0.2261  0.1697
10895TIP3   OH254099   2.712   0.832   6.145  0.3942  0.1318  0.2945
10895TIP3    H154100   2.738   0.772   6.076  0.4474  0.5025 -0.0120
10895TIP3    H254101   2.759   0.913   6.126 -0.5160  0.6303  0.0645
10896TIP3   OH254102   0.643   3.678   4.382 -0.1495  0.1788  0.3688
10896TIP3    H154103   0.653   3.601   4.325  1.1335 -0.6178  1.5889
10896TIP3    H254104   0.561   3.718   4.354 -2.0862 -2.9020  1.0963
10897TIP3   OH254105   1.917   4.885  11.256 -0.7791 -0.4159 -0.4834
10897TIP3    H154106   1.982   4.905  11.188  1.1269 -0.5780  1.2066
10897TIP3    H254107   1.928   4.954  11.321 -1.9399 -0.7683  0.1068
10898TIP3   OH254108   1.857   3.349   1.906  0.2140  0.5528  0.2340
10898TIP3    H154109   1.816   3.262   1.907  0.4416  0.4392 -0.0899
10898TIP3    H254110   1.898   3.357   1.992 -0.2134  0.5357  0.4429
10899TIP3   OH254111   1.846   2.889  15.645  0.1063  0.0597  0.1022
10899TIP3    H154112   1.773   2.941  15.678 -0.2310 -1.1420  1.3540
10899TIP3    H254113   1.812   2.799  15.642  1.2829 -0.3932 -0.0804
10900TIP3   OH254114   3.889   2.450   2.969 -0.3060  0.7204 -0.1136
10900TIP3    H154115   3.831   2.416   3.038 -0.4570 -1.6170 -1.2813
10900TIP3    H254116   3.969   2.474   3.016 -0.4404 -0.7071  0.9313
10901TIP3   OH254117   0.773   2.238  14.307  0.1462 -0.2503  0.1886
10901TIP3    H154118   0.784   2.150  14.344 -1.0015 -1.0103 -1.1688
10901TIP3    H254119   0.690   2.269  14.345 -0.6727 -0.7497 -1.1045
10902TIP3   OH254120   6.570   5.043  12.185  0.5466 -0.0834  0.3625
10902TIP3    H154121   6.611   5.028  12.270  1.8617  0.0022 -0.2340
10902TIP3    H254122   6.476   5.046  12.203  0.5587 -3.1187  1.3945
10903TIP3   OH254123   3.160   5.529  16.891 -0.3326  0.2434  0.1772
10903TIP3    H154124   3.067   5.547  16.901 -0.5642 -0.8335  0.1111
10903TIP3    H254125   3.201   5.615  16.884 -1.0213  0.8574  2.6956
10904TIP3   OH254126   3.247   6.216   6.134  0.0169  0.7952  0.1554
10904TIP3    H154127   3.325   6.226   6.188  0.3483 -1.5101  0.2288
10904TIP3    H254128   3.175   6.246   6.190  0.4222 -0.9138  1.7204
10905TIP3   OH254129   4.705   4.983  12.700  0.0528 -0.2203  0.5246
10905TIP3    H154130   4.700   5.076  12.724 -2.8661 -0.1844  0.1121
10905TIP3    H254131   4.651   4.938  12.764  1.2376 -1.6590  0.5738
10906TIP3   OH254132   1.712   0.970  12.156  0.2174  0.3916 -0.4282
10906TIP3    H154133   1.735   1.028  12.229 -2.8566  0.7951  0.3622
10906TIP3    H254134   1.730   1.023  12.078 -0.0875  1.4714  0.2006
10907TIP3   OH254135   2.931   6.534   2.636  0.0115 -0.2219 -0.1490
10907TIP3    H154136   2.845   6.542   2.677 -0.7490  0.5020 -1.7869
10907TIP3    H254137   2.989   6.588   2.689 -0.9921  0.8859 -0.1414
10908TIP3   OH254138   6.697   0.506  15.171 -0.2396  0.8103  0.1882
10908TIP3    H154139   6.734   0.558  15.100  2.5417  1.8153  2.1775
10908TIP3    H254140   6.682   0.420  15.133  0.0730  1.6206 -1.8855
10909TIP3   OH254141   4.929   2.399   3.086  0.2218  0.3511  0.2433
10909TIP3    H154142   4.949   2.484   3.047  1.9154  0.0091  0.3138
10909TIP3    H254143   4.865   2.418   3.155 -2.5386  1.0225 -2.3142
10910TIP3   OH254144   5.699   3.298   1.794  0.3371 -0.0495  0.4379
10910TIP3    H154145   5.722   3.216   1.751  0.9011 -0.4104  1.4159
10910TIP3    H254146   5.659   3.272   1.877  0.8275  0.6617  0.9060
10911TIP3   OH254147   3.428   3.618   0.281  0.2543  0.0127 -0.2098
10911TIP3    H154148   3.444   3.545   0.342 -0.5634  0.8742  1.0856
10911TIP3    H254149   3.454   3.696   0.330  0.1661  0.6889 -1.2118
10912TIP3   OH254150   5.071   3.058   0.932 -0.4596 -0.7387 -0.3524
10912TIP3    H154151   5.029   3.079   0.849 -0.7492 -0.8525 -0.2360
10912TIP3    H254152   5.163   3.043   0.910 -0.0446  1.4700 -0.3179
10913TIP3   OH254153   4.821   0.790  14.612 -0.4821 -0.2054  0.0068
10913TIP3    H154154   4.849   0.841  14.688  0.8650 -0.8801 -0.0140
10913TIP3    H254155   4.879   0.714  14.611  0.3538  0.3821 -2.4124
10914TIP3   OH254156   3.003   0.913  16.984  0.2232  0.3101  0.1222
10914TIP3    H154157   3.015   0.945  16.894  1.6190  0.3841  0.3168
10914TIP3    H254158   2.914   0.940  17.007 -0.8081 -1.1585 -1.8228
10915TIP3   OH254159   4.769   2.350   1.623  0.4820  0.2608 -0.3445
10915TIP3    H154160   4.797   2.258   1.622 -1.4954 -0.3792 -0.8430
10915TIP3    H254161   4.757   2.372   1.531  0.6789  0.9334 -0.2096
10916TIP3   OH254162   4.799   6.539   3.205  0.2426  0.2143  0.2343
10916TIP3    H154163   4.724   6.520   3.262  0.6827  0.0386  0.7548
10916TIP3    H254164   4.798   6.468   3.140  1.5399 -1.3382  1.8279
10917TIP3   OH254165   1.828   1.640  17.323 -0.1541 -0.4552  0.7793
10917TIP3    H154166   1.902   1.584  17.298 -0.4065 -0.5922  0.3256
10917TIP3    H254167   1.860   1.729  17.307  1.0159 -0.2875  3.5063
10918TIP3   OH254168   4.938   1.354  14.750  0.6081  0.2537  0.3085
10918TIP3    H154169   4.875   1.305  14.803  1.4579  0.3261  1.4225
10918TIP3    H254170   4.939   1.441  14.790  1.4292  0.2438  0.3239
10919TIP3   OH254171   0.791   5.374  13.590 -0.4438 -0.0095  0.4761
10919TIP3    H154172   0.849   5.417  13.527  0.1050  0.5794  1.3547
10919TIP3    H254173   0.834   5.388  13.675 -1.2072 -0.7091  0.9918
10920TIP3   OH254174   5.832   6.115  14.699 -0.2506  0.1704  0.0683
10920TIP3    H154175   5.893   6.147  14.633 -1.0043  1.1058 -0.2099
10920TIP3    H254176   5.860   6.158  14.780 -0.8992  1.1134 -0.1866
10921TIP3   OH254177   6.699   0.167   1.885 -0.4144  0.0962  0.6417
10921TIP3    H154178   6.749   0.103   1.834  1.8269  2.0212  0.2999
10921TIP3    H254179   6.608   0.137   1.877  0.3553 -2.0937 -0.8646
10922TIP3   OH254180   1.938   2.004  11.795  0.1173 -0.0243 -0.2470
10922TIP3    H154181   1.957   2.012  11.888  2.6091 -0.1870 -0.6714
10922TIP3    H254182   2.020   2.029  11.751 -0.0786 -2.5492 -2.2934
10923TIP3   OH254183   4.137   0.675   4.466 -0.6464  0.3569 -0.0590
10923TIP3    H154184   4.207   0.735   4.493 -1.5028  2.0040 -1.2471
10923TIP3    H254185   4.181   0.593   4.447  0.4306  0.1828  2.7793
10924TIP3   OH254186   2.299   5.055  16.610 -0.3735 -0.1671  0.2076
10924TIP3    H154187   2.384   5.099  16.610 -0.2344 -0.4339 -0.3843
10924TIP3    H254188   2.236   5.124  16.589 -0.0911 -0.3530 -1.3416
10925TIP3   OH254189   6.088   5.533  13.149 -0.0940 -0.6296  0.1429
10925TIP3    H154190   6.096   5.625  13.125  1.5938 -0.9654 -0.7683
10925TIP3    H254191   6.077   5.533  13.244  0.8299  0.4930  0.2753
10926TIP3   OH254192   2.947   5.649  17.174 -0.7518  0.6988 -0.1834
10926TIP3    H154193   2.879   5.598  17.218  0.3689 -0.4915  0.2283
10926TIP3    H254194   2.922   5.647  17.081 -1.7751  1.0878  0.0696
10927TIP3   OH254195   3.571   4.725  14.064 -0.2589  0.8066  0.1393
10927TIP3    H154196   3.524   4.680  14.133  0.9945  1.3755  1.4087
10927TIP3    H254197   3.504   4.746  13.999 -1.4799  0.3039  1.2008
10928TIP3   OH254198   5.213   4.389  11.195 -0.4626 -0.1827  0.0307
10928TIP3    H154199   5.307   4.406  11.203 -0.4640  0.2941 -0.8918
10928TIP3    H254200   5.203   4.346  11.110 -0.7886 -2.5106  1.1448
10929TIP3   OH254201   5.515   2.610   6.632  0.1110  0.6141  0.1973
10929TIP3    H154202   5.572   2.682   6.605  1.4953 -0.2901  0.6232
10929TIP3    H254203   5.575   2.542   6.662 -1.2178 -0.2418  0.9903
10930TIP3   OH254204   3.987   3.444  14.903  0.5897  0.4681  0.3994
10930TIP3    H154205   3.947   3.529  14.924 -1.8820 -0.5688  0.2525
10930TIP3    H254206   4.039   3.422  14.980 -0.3686  1.2124  1.2961
10931TIP3   OH254207   5.324   5.930  14.696 -0.5745 -0.3828 -0.1559
10931TIP3    H154208   5.279   5.850  14.723 -1.3534  0.4560  1.1092
10931TIP3    H254209   5.414   5.918  14.726 -0.8090 -0.5688  0.4781
10932TIP3   OH254210   3.212   4.732   2.522 -0.1551 -0.3677  0.6455
10932TIP3    H154211   3.123   4.722   2.554 -0.5272  1.5161  0.3120
10932TIP3    H254212   3.217   4.823   2.492  1.8099 -0.4915  0.4544
10933TIP3   OH254213   3.332   4.189  16.507 -0.1307 -0.2487 -0.4670
10933TIP3    H154214   3.360   4.186  16.416  0.7609 -0.0668 -0.2045
10933TIP3    H254215   3.239   4.165  16.504 -0.9321  2.5786 -1.7425
10934TIP3   OH254216   4.821   0.692  13.816  0.6573 -0.4650 -0.2238
10934TIP3    H154217   4.795   0.604  13.841  0.1363 -0.0755  0.6394
10934TIP3    H254218   4.832   0.739  13.898  0.6045  0.3631 -0.6725
10935TIP3   OH254219   2.392   1.939   0.948 -0.6517 -1.1817 -0.0456
10935TIP3    H154220   2.478   1.968   0.917 -0.9271 -2.2342 -1.9938
10935TIP3    H254221   2.411   1.876   1.017  0.1000 -0.4614  0.4161
10936TIP3   OH254222   4.201   4.394  12.579  0.8707 -0.0612 -0.0792
10936TIP3    H154223   4.151   4.345  12.514  0.6861 -0.1903  0.1606
10936TIP3    H254224   4.248   4.328  12.629 -2.0087 -0.3688  2.5286
10937TIP3   OH254225   1.613   3.618  12.465  0.2914  0.0506 -0.0580
10937TIP3    H154226   1.565   3.637  12.545  0.9291  0.3438  0.2565
10937TIP3    H254227   1.682   3.683  12.462 -0.2295  0.5872 -1.2834
10938TIP3   OH254228   4.870   2.980  11.173  0.0630  0.3956  0.1973
10938TIP3    H154229   4.802   3.046  11.158  2.2031  2.8949  0.8676
10938TIP3    H254230   4.874   2.971  11.268 -0.5177 -1.1661  0.1157
10939TIP3   OH254231   2.567   0.547   4.437  0.1639 -0.3487  0.4571
10939TIP3    H154232   2.507   0.594   4.495  0.5932  1.7673 -0.6983
10939TIP3    H254233   2.654   0.567   4.473  0.4859  1.6024 -1.2323
10940TIP3   OH254234   0.123   0.974   5.185 -0.3296 -0.2582 -0.0495
10940TIP3    H154235   0.207   0.987   5.227  0.0986  0.5295 -1.1166
10940TIP3    H254236   0.089   1.062   5.170 -1.5940 -0.5590  0.8110
10941TIP3   OH254237   3.983   3.536   3.994 -0.8580  0.3198  0.2146
10941TIP3    H154238   3.927   3.601   4.036 -0.3814  1.4345 -0.8012
10941TIP3    H254239   3.943   3.520   3.909 -2.2159 -2.4580  1.2702
10942TIP3   OH254240   0.049   1.834   1.971 -0.3778 -0.7131 -0.0868
10942TIP3    H154241   0.090   1.918   1.947 -0.1219 -0.6981  0.4074
10942TIP3    H254242   0.103   1.800   2.042 -1.3633 -0.5651  0.7600
10943TIP3   OH254243   4.863   5.702  14.201 -0.3480 -0.0759 -0.3527
10943TIP3    H154244   4.806   5.626  14.191  1.9991 -2.0058  0.2001
10943TIP3    H254245   4.882   5.705  14.295  1.2636 -0.1278 -0.6512
10944TIP3   OH254246   4.816   0.768  12.509  0.0184 -0.5095 -0.2587
10944TIP3    H154247   4.816   0.674  12.529 -1.2998 -0.6381 -0.7252
10944TIP3    H254248   4.906   0.787  12.485  0.7922 -1.1866  1.8904
10945TIP3   OH254249   5.305   1.405  12.042 -0.0454 -0.1148 -0.2272
10945TIP3    H154250   5.339   1.494  12.041  0.6517 -0.3821 -0.5826
10945TIP3    H254251   5.261   1.397  12.127  2.5971 -0.4331  1.1962
10946TIP3   OH254252   3.860   5.464  15.385 -0.6350 -0.1526 -0.7225
10946TIP3    H154253   3.845   5.400  15.316 -0.2525  1.4433 -2.3547
10946TIP3    H254254   3.940   5.510  15.359 -0.9495  1.0478  0.3263
10947TIP3   OH254255   5.325   3.795  11.773 -0.1477 -0.4390  0.0982
10947TIP3    H154256   5.324   3.798  11.677 -0.4034  0.7560  0.1343
10947TIP3    H254257   5.400   3.849  11.799 -0.4243 -0.2842  0.5916
10948TIP3   OH254258   5.676   1.152   0.664 -0.0115 -0.2050 -0.4605
10948TIP3    H154259   5.718   1.182   0.745  0.0621  1.1098 -0.9629
10948TIP3    H254260   5.745   1.106   0.616 -0.0205 -0.8734  0.1436
10949TIP3   OH254261   0.796   0.820  13.694  0.1319  0.2174 -0.1062
10949TIP3    H154262   0.812   0.906  13.655 -0.0387 -0.1936 -1.0872
10949TIP3    H254263   0.827   0.830  13.784  0.7976  1.0865 -0.4104
10950TIP3   OH254264   0.812   4.586   4.851  0.4168  0.6385  0.3058
10950TIP3    H154265   0.843   4.495   4.861  2.6699  1.2464 -0.4231
10950TIP3    H254266   0.751   4.582   4.777 -1.7594 -0.6990  2.0597
10951TIP3   OH254267   6.663   0.463   5.179 -0.1741 -0.7073  0.3603
10951TIP3    H154268   6.746   0.423   5.155  0.6600  0.7384  0.7191
10951TIP3    H254269   6.635   0.417   5.258  1.3075  0.0995  1.3909
10952TIP3   OH254270   6.192   5.461  14.173 -0.1347 -0.7695  0.0879
10952TIP3    H154271   6.283   5.467  14.205 -0.5670  0.6572  1.1362
10952TIP3    H254272   6.143   5.428  14.249 -0.7203 -0.1384 -0.0176
10953TIP3   OH254273   2.162   3.431  14.176 -0.2249  1.0225  0.0493
10953TIP3    H154274   2.110   3.357  14.208  0.1328  1.6683  2.2087
10953TIP3    H254275   2.108   3.469  14.107  0.2467 -2.1319 -2.3300
10954TIP3   OH254276   6.203   5.501  11.088  0.2920  0.0434  0.4583
10954TIP3    H154277   6.131   5.451  11.050  1.3100 -0.3801 -1.0543
10954TIP3    H254278   6.204   5.477  11.180 -0.1434 -1.6322  0.0572
10955TIP3   OH254279   2.051   0.188   1.113 -0.3002  0.1441  0.2341
10955TIP3    H154280   2.092   0.195   1.199 -0.4639  0.4199  0.2923
10955TIP3    H254281   1.957   0.192   1.131 -0.5411 -3.4161  0.3851
10956TIP3   OH254282   2.601   6.161  15.833 -0.0761  0.5010  0.0326
10956TIP3    H154283   2.605   6.118  15.747 -0.7143 -0.6751  0.5641
10956TIP3    H254284   2.533   6.113  15.880  0.6108  0.8023  1.3806
10957TIP3   OH254285   5.849   5.867  10.836 -0.6610 -0.2059  0.1393
10957TIP3    H154286   5.938   5.830  10.842 -1.6488 -2.6378  0.8786
10957TIP3    H254287   5.864   5.962  10.830  2.0076 -0.5817 -0.7556
10958TIP3   OH254288   4.225   2.179  16.563  0.4154  0.2434 -0.1733
10958TIP3    H154289   4.259   2.195  16.651 -1.7120 -1.2496  0.9986
10958TIP3    H254290   4.259   2.252  16.511  0.1647  2.2544  2.3101
10959TIP3   OH254291   2.796   1.502  12.656 -0.3163 -0.3014 -0.1925
10959TIP3    H154292   2.815   1.463  12.741 -0.0808  1.9225  0.8592
10959TIP3    H254293   2.708   1.540  12.667  0.1670  0.9707 -0.5319
10960TIP3   OH254294   3.631   0.777  16.542 -0.2374 -0.8367  0.1219
10960TIP3    H154295   3.643   0.867  16.512  2.7162 -1.1597  0.0837
10960TIP3    H254296   3.558   0.744  16.489  0.2582  0.7609 -1.6659
10961TIP3   OH254297   5.173   6.033   1.527 -0.1074 -0.1984 -0.0869
10961TIP3    H154298   5.115   6.039   1.451  0.7559 -2.1192 -0.9398
10961TIP3    H254299   5.125   5.976   1.588 -1.0391  1.7485  1.1206
10962TIP3   OH254300   5.016   5.903   4.673  0.0441 -0.4045  0.1930
10962TIP3    H154301   5.029   5.968   4.604 -0.8397  0.3412  0.7111
10962TIP3    H254302   5.011   5.954   4.754  3.2123 -1.3961  1.1618
10963TIP3   OH254303   4.318   5.988  12.472  0.4094 -0.5905 -0.0005
10963TIP3    H154304   4.355   6.054  12.413 -0.3348  0.7779  1.0120
10963TIP3    H254305   4.337   5.905  12.429 -0.5876  0.3457 -2.4677
10964TIP3   OH254306   2.036   5.657  16.745 -0.5119  0.2565 -0.1240
10964TIP3    H154307   2.096   5.729  16.723  2.0726 -1.8199 -0.4980
10964TIP3    H254308   2.000   5.680  16.830 -0.3191  2.2826 -0.5446
10965TIP3   OH254309   1.555   5.348  13.050 -0.0182  0.0153  0.1607
10965TIP3    H154310   1.514   5.386  12.972 -1.3359 -1.3540  0.1500
10965TIP3    H254311   1.490   5.358  13.119  0.3026 -0.6643  0.5718
10966TIP3   OH254312   5.084   3.226  12.697 -0.2077 -0.3293  0.1063
10966TIP3    H154313   5.090   3.188  12.609  0.5807  0.5889 -0.2479
10966TIP3    H254314   4.990   3.236  12.712 -0.3841 -1.2288 -0.2967
10967TIP3   OH254315   0.533   2.150  14.894  0.0030  0.2871  0.5570
10967TIP3    H154316   0.563   2.162  14.804 -2.3839  0.8891 -0.2511
10967TIP3    H254317   0.603   2.185  14.949  1.2298  0.5008 -1.0883
10968TIP3   OH254318   2.492   0.361   5.464  0.5976 -0.1263 -0.0409
10968TIP3    H154319   2.556   0.431   5.452 -0.4089  0.9449  0.6815
10968TIP3    H254320   2.479   0.356   5.559  0.2729 -0.9574 -0.1178
10969TIP3   OH254321   4.625   4.645  17.347 -0.0846  0.4450  0.4762
10969TIP3    H154322   4.695   4.662  17.410  0.4564 -0.5784  0.1782
10969TIP3    H254323   4.611   4.550  17.351  0.0824  0.3235 -1.0483
10970TIP3   OH254324   4.760   2.805   0.965  0.2159 -0.6592  0.3469
10970TIP3    H154325   4.745   2.713   0.943 -1.0291 -0.7774  1.5950
10970TIP3    H254326   4.834   2.803   1.026 -1.2706 -1.1078  2.2205
10971TIP3   OH254327   5.313   3.762   4.489 -0.0769 -0.0265 -0.4563
10971TIP3    H154328   5.329   3.697   4.558 -0.7374 -0.0916 -0.3541
10971TIP3    H254329   5.396   3.809   4.481  0.3382 -0.7200 -0.3624
10972TIP3   OH254330   1.943   0.031   0.855  0.0280  0.4173  0.5537
10972TIP3    H154331   2.004   0.104   0.865 -0.8849  1.1125  1.2784
10972TIP3    H254332   1.874   0.065   0.799 -0.3034  0.0400  0.7273
10973TIP3   OH254333   4.321   0.450   4.636 -0.2738 -0.0139  0.0911
10973TIP3    H154334   4.275   0.499   4.704  0.6822 -1.9793  2.3187
10973TIP3    H254335   4.376   0.514   4.592 -1.6846  1.5107  0.4635
10974TIP3   OH254336   0.322   0.144   3.109  0.1006 -0.6177  0.3206
10974TIP3    H154337   0.325   0.094   3.027  0.6995  0.0530 -0.0707
10974TIP3    H254338   0.234   0.182   3.111 -0.0538 -0.9606  0.1916
10975TIP3   OH254339   6.143   3.982   4.155  0.4597 -0.1292  0.0004
10975TIP3    H154340   6.158   3.944   4.241  3.6680 -1.5869 -1.0193
10975TIP3    H254341   6.220   3.955   4.104 -0.6058  1.8677 -2.9064
10976TIP3   OH254342   0.766   6.304   1.340 -0.4030 -0.5146 -0.2111
10976TIP3    H154343   0.765   6.209   1.329  1.6266 -0.6995  0.7449
10976TIP3    H254344   0.831   6.335   1.277 -1.2662  0.2999 -0.7285
10977TIP3   OH254345   3.558   1.139   2.898 -0.2020 -0.2076 -0.5353
10977TIP3    H154346   3.487   1.170   2.842  0.5650  0.0697 -1.3796
10977TIP3    H254347   3.637   1.176   2.860  0.3823 -0.2776  0.5535
10978TIP3   OH254348   5.300   2.429   2.649 -0.0831 -0.5636  0.4113
10978TIP3    H154349   5.234   2.399   2.712 -1.9414 -1.0802 -1.6534
10978TIP3    H254350   5.256   2.424   2.564  2.7739 -1.3851 -1.1532
10979TIP3   OH254351   1.419   6.191  15.317 -0.1747  0.0969 -0.2658
10979TIP3    H154352   1.444   6.254  15.384 -2.1200  0.5458  0.0740
10979TIP3    H254353   1.407   6.109  15.365 -1.7879  0.4693  0.0174
10980TIP3   OH254354   0.108   3.563  14.603  0.0880 -0.1623  0.6316
10980TIP3    H154355   0.065   3.648  14.607  0.7518  0.2922 -1.1388
10980TIP3    H254356   0.192   3.576  14.647 -0.4533 -0.3782  1.7987
10981TIP3   OH254357   4.087   3.790  13.267 -0.2198  0.0168 -0.8304
10981TIP3    H154358   4.079   3.723  13.199 -0.7605 -1.2719  0.4462
10981TIP3    H254359   4.170   3.772  13.310 -0.2911  0.2635 -0.5837
10982TIP3   OH254360   6.291   2.208   0.283  0.1360  0.0389 -0.3223
10982TIP3    H154361   6.312   2.117   0.259 -4.5416 -1.7069  1.1075
10982TIP3    H254362   6.213   2.229   0.232 -1.3267  1.6406  2.3546
10983TIP3   OH254363   2.392   1.349   2.230  0.1700  0.2394  0.0109
10983TIP3    H154364   2.397   1.422   2.292  0.4083  0.3988 -0.1961
10983TIP3    H254365   2.454   1.285   2.263 -0.8347 -0.3519  0.8174
10984TIP3   OH254366   3.250   0.855   2.033  0.4126  0.0114  0.0245
10984TIP3    H154367   3.186   0.905   2.083 -0.0793 -0.1074 -0.4755
10984TIP3    H254368   3.313   0.824   2.098 -0.0003  0.1822  0.5123
10985TIP3   OH254369   4.105   3.556  12.519 -0.1064 -0.2405 -0.8451
10985TIP3    H154370   4.057   3.484  12.480  0.5627 -0.9202 -0.4504
10985TIP3    H254371   4.062   3.571  12.603  2.7667 -3.6828  1.5251
10986TIP3   OH254372   2.523   0.548   1.883 -0.2967  0.3133 -0.3641
10986TIP3    H154373   2.547   0.621   1.826 -1.9417  0.8782 -0.3841
10986TIP3    H254374   2.570   0.566   1.965 -0.4067  1.2083 -0.4827
10987TIP3   OH254375   0.385   6.448  13.139  0.9290  0.2018 -0.1614
10987TIP3    H154376   0.401   6.358  13.111 -0.4380 -0.5709  1.3936
10987TIP3    H254377   0.469   6.493  13.123  1.5755 -1.2626 -1.1458
10988TIP3   OH254378   6.047   4.076   3.373  0.0090  0.0019  0.1594
10988TIP3    H154379   5.985   4.019   3.326  1.9711 -0.8756 -1.4940
10988TIP3    H254380   5.991   4.137   3.420 -2.1429 -0.5584 -1.4857
10989TIP3   OH254381   4.273   5.284   2.427 -0.4190 -0.4250  0.1001
10989TIP3    H154382   4.350   5.272   2.482 -1.2655 -2.4620  0.9447
10989TIP3    H254383   4.308   5.313   2.343  1.1047  0.3488  0.9494
10990TIP3   OH254384   6.258   2.136  13.091 -0.0941 -0.5570  0.2456
10990TIP3    H154385   6.278   2.055  13.044  1.4814 -1.1758  1.8488
10990TIP3    H254386   6.343   2.165  13.126 -0.3141  2.6489 -1.5073
10991TIP3   OH254387   1.207   3.501   4.227  0.4351  0.3763 -0.1662
10991TIP3    H154388   1.162   3.507   4.311 -1.3388  2.8196 -1.1497
10991TIP3    H254389   1.196   3.409   4.201 -1.7286  0.2550  0.8976
10992TIP3   OH254390   0.466   3.362   1.495 -0.3240  0.0945  0.2750
10992TIP3    H154391   0.485   3.370   1.401 -0.6157 -0.9766  0.1067
10992TIP3    H254392   0.527   3.422   1.537 -0.1595  0.5635 -0.5970
10993TIP3   OH254393   0.577   6.336  16.724  0.0335  0.3390  0.1119
10993TIP3    H154394   0.578   6.417  16.673 -1.5332  0.5894  0.4424
10993TIP3    H254395   0.523   6.276  16.674 -0.0129 -0.0194  0.5886
10994TIP3   OH254396   6.678   0.079  12.820 -0.0659  0.2289 -0.3977
10994TIP3    H154397   6.774   0.079  12.814 -0.0930  0.6086 -0.9309
10994TIP3    H254398   6.653   0.171  12.811 -0.5894 -0.0574 -2.7493
10995TIP3   OH254399   2.549   5.040  12.017  0.0786  0.2334  0.0687
10995TIP3    H154400   2.580   5.130  12.029 -1.0678  0.7591 -0.6838
10995TIP3    H254401   2.627   4.986  12.028  0.8818  1.3533  0.0673
10996TIP3   OH254402   4.927   3.521  13.900  0.3972 -0.4490  0.1936
10996TIP3    H154403   4.888   3.583  13.961 -0.8279 -0.9075 -0.0903
10996TIP3    H254404   4.908   3.435  13.939  0.7477 -0.6927 -0.1687
10997TIP3   OH254405   5.894   0.447   5.376 -0.1403  0.3906 -0.5313
10997TIP3    H154406   5.930   0.400   5.451 -1.6045 -1.1214 -0.7090
10997TIP3    H254407   5.800   0.427   5.378 -0.6671  2.5654 -1.2008
10998TIP3   OH254408   1.986   0.779  14.138 -0.1971  0.3783  0.1386
10998TIP3    H154409   1.992   0.700  14.084  1.8366  0.6570 -0.1001
10998TIP3    H254410   2.060   0.774  14.198 -0.5271  1.6853  0.6997
10999TIP3   OH254411   4.915   5.460   2.689 -0.7572  0.0281 -0.0148
10999TIP3    H154412   4.990   5.409   2.719 -1.2237  0.3205  1.7698
10999TIP3    H254413   4.900   5.525   2.758 -0.9165  1.8360 -1.6697
11000TIP3   OH254414   4.874   5.303   3.887 -0.0438 -0.7767  0.0495
11000TIP3    H154415   4.919   5.281   3.805 -0.0612 -0.5563 -0.0204
11000TIP3    H254416   4.914   5.246   3.953 -0.5405 -1.4917 -0.2491
11001TIP3   OH254417   2.355   4.857   4.639 -0.0219  0.2639  0.6921
11001TIP3    H154418   2.279   4.799   4.635  2.1386 -2.7778 -2.4699
11001TIP3    H254419   2.381   4.868   4.548  3.3152  1.1254  1.6114
11002TIP3   OH254420   4.591   6.524   2.866 -0.5410  0.2312  0.0096
11002TIP3    H154421   4.635   6.471   2.933 -2.4993 -0.3418  0.9251
11002TIP3    H254422   4.619   6.486   2.783  0.6995 -0.0671  0.5419
11003TIP3   OH254423   2.073   5.601  15.896  0.4212  0.1404  0.4231
11003TIP3    H154424   2.139   5.541  15.861  0.3807  0.8258 -0.9291
11003TIP3    H254425   2.054   5.569  15.984  0.5878 -1.6543 -0.1605
11004TIP3   OH254426   4.042   1.908  12.865 -0.3490  0.2144 -0.0361
11004TIP3    H154427   4.031   1.814  12.882  0.1821  0.3558  1.2222
11004TIP3    H254428   4.054   1.914  12.770  1.7888 -1.2658  0.0529
11005TIP3   OH254429   2.399   4.790  13.731  0.0452  0.0350 -0.3768
11005TIP3    H154430   2.433   4.743  13.655  1.1081  0.0567  0.0687
11005TIP3    H254431   2.318   4.830  13.701 -0.5936 -1.5899 -0.9473
11006TIP3   OH254432   5.393   0.302   2.679 -0.3340  0.6294 -0.5493
11006TIP3    H154433   5.340   0.375   2.710 -1.2232 -0.8857  1.7205
11006TIP3    H254434   5.340   0.224   2.697  1.6283 -0.7719 -0.5292
11007TIP3   OH254435   1.316   2.963   1.659  0.3174 -0.5180 -0.4332
11007TIP3    H154436   1.271   3.000   1.582  1.3614  1.0111 -0.3703
11007TIP3    H254437   1.273   2.879   1.675 -1.7674  0.3765 -1.0150
11008TIP3   OH254438   1.507   5.284  17.339  0.5758 -0.2204  0.0187
11008TIP3    H154439   1.515   5.319  17.428 -0.0001  0.8572 -0.3389
11008TIP3    H254440   1.443   5.214  17.346  2.1565 -1.6587  0.8559
11009TIP3   OH254441   3.661   5.790  13.379  0.4418 -0.4362  0.0619
11009TIP3    H154442   3.710   5.762  13.456  0.5558  0.6738  0.4041
11009TIP3    H254443   3.646   5.709  13.330 -2.3065 -1.7349  2.7294
11010TIP3   OH254444   2.213   2.425   6.484  0.2412 -0.4868 -0.4532
11010TIP3    H154445   2.135   2.418   6.538 -0.2929 -0.1332 -1.1690
11010TIP3    H254446   2.208   2.513   6.446  1.2908 -0.2373 -0.0488
11011TIP3   OH254447   3.032   3.796   3.069 -0.6839  0.3552 -0.0398
11011TIP3    H154448   3.086   3.746   3.007 -0.1967  1.7275 -0.7763
11011TIP3    H254449   2.961   3.831   3.015 -1.0551  0.4116  0.4808
11012TIP3   OH254450   4.757   0.010   4.237  0.0120  0.6073 -0.1411
11012TIP3    H154451   4.672  -0.024   4.264 -0.0437  1.6506  1.1065
11012TIP3    H254452   4.748   0.105   4.244  0.3454  0.9084 -2.9300
11013TIP3   OH254453   1.540   1.891  13.358 -0.3891  0.3355  0.0632
11013TIP3    H154454   1.625   1.878  13.315 -0.7234 -0.1228 -0.4726
11013TIP3    H254455   1.557   1.874  13.451 -0.0460 -0.4506 -0.1406
11014TIP3   OH254456   3.808   1.137  16.075 -0.1737  0.3035  0.1036
11014TIP3    H154457   3.854   1.062  16.112 -0.1374  0.0683 -0.4260
11014TIP3    H254458   3.794   1.195  16.150  0.6627  0.2139  0.3342
11015TIP3   OH254459   2.146   1.717  11.446  0.0692  0.0973 -0.4352
11015TIP3    H154460   2.234   1.745  11.421 -0.0340  2.3894  1.4620
11015TIP3    H254461   2.160   1.655  11.518  0.1508  0.0900 -0.4571
11016TIP3   OH254462   1.783   3.440   2.822 -0.2126  0.1098  0.3665
11016TIP3    H154463   1.836   3.505   2.868 -0.8651  0.4134  0.6969
11016TIP3    H254464   1.810   3.448   2.730 -0.6357  1.1823  0.3292
11017TIP3   OH254465   0.209   5.923   2.353 -0.0280 -0.3154 -0.4024
11017TIP3    H154466   0.251   5.869   2.286  1.7033 -0.6234  0.8921
11017TIP3    H254467   0.233   5.883   2.436 -0.6640  1.0802  0.4992
11018TIP3   OH254468   3.355   0.978  10.416 -0.2699  0.1255 -0.1657
11018TIP3    H154469   3.294   1.051  10.410  0.2764  0.6136  0.0647
11018TIP3    H254470   3.416   1.003  10.485 -0.2892 -0.7195  0.1780
11019TIP3   OH254471   1.637   0.234  13.940  0.1227  0.1660 -0.0382
11019TIP3    H154472   1.554   0.267  13.974  1.3589  0.0997  3.3893
11019TIP3    H254473   1.700   0.303  13.959  1.4024 -1.0579  0.2655
11020TIP3   OH254474   1.445   2.453   0.168  0.2988  0.4157  1.0002
11020TIP3    H154475   1.426   2.537   0.209 -0.6631  0.2204  0.9939
11020TIP3    H254476   1.364   2.402   0.180 -0.3779  0.6298 -1.8119
11021TIP3   OH254477   2.966   5.341  12.786 -0.1750  0.4999 -0.0892
11021TIP3    H154478   3.056   5.365  12.761  0.0858 -0.1591  0.1819
11021TIP3    H254479   2.977   5.292  12.868 -1.0337  2.9569  1.5752
11022TIP3   OH254480   1.974   5.740  17.001 -0.5656  0.1239 -0.2070
11022TIP3    H154481   1.902   5.694  17.044  0.3379 -0.1843  1.0378
11022TIP3    H254482   2.050   5.723  17.057  0.3973  0.7603 -1.2779
11023TIP3   OH254483   4.073   4.718   0.276  0.3393 -0.7779  0.4778
11023TIP3    H154484   4.111   4.743   0.192 -0.2918  0.1893  0.4737
11023TIP3    H254485   4.040   4.629   0.261  0.4999 -0.7289 -0.2059
11024TIP3   OH254486   3.139   3.829  11.511 -0.2459  0.1461  0.1172
11024TIP3    H154487   3.187   3.909  11.491 -2.3213  0.7700 -2.9539
11024TIP3    H254488   3.197   3.758  11.482  0.5589  0.6085  0.5396
11025TIP3   OH254489   6.643   4.758   3.356  0.0639 -0.2374 -0.1013
11025TIP3    H154490   6.731   4.773   3.323  0.3295  0.2239  0.7908
11025TIP3    H254491   6.613   4.844   3.386 -0.3693 -0.5418  0.3660
11026TIP3   OH254492   4.204   0.872   2.056 -0.7747  0.0102 -0.4295
11026TIP3    H154493   4.254   0.863   2.137 -0.7577 -1.1049 -0.5449
11026TIP3    H254494   4.115   0.847   2.081 -0.7741 -0.3117 -0.7421
11027TIP3   OH254495   2.773   0.343   4.251 -0.5883 -0.4564 -0.2293
11027TIP3    H154496   2.682   0.331   4.275 -0.7813 -0.6587 -1.0267
11027TIP3    H254497   2.822   0.293   4.316 -1.0577 -0.5548  0.0488
11028TIP3   OH254498   5.342   3.892  13.346  0.1850  0.0028  0.1466
11028TIP3    H154499   5.351   3.798  13.365  2.2604  0.1429  0.1226
11028TIP3    H254500   5.371   3.935  13.426  0.8297  0.6048 -0.3991
11029TIP3   OH254501   4.651   6.062  15.947  0.0588 -0.2320 -0.1264
11029TIP3    H154502   4.609   5.980  15.923  0.2824 -0.2173 -0.5754
11029TIP3    H254503   4.587   6.129  15.926 -0.7339 -0.3811  1.6684
11030TIP3   OH254504   3.262   2.578  11.192  0.1947 -0.4246  0.0195
11030TIP3    H154505   3.306   2.659  11.219  0.4511 -0.2822 -0.7808
11030TIP3    H254506   3.307   2.553  11.111 -0.2241 -1.0931 -0.0137
11031TIP3   OH254507   4.838   4.570   2.068  0.5577  0.3297 -0.0572
11031TIP3    H154508   4.795   4.485   2.074  1.3306  0.0006  0.8968
11031TIP3    H254509   4.773   4.633   2.099  0.4851 -0.0734  0.5993
11032TIP3   OH254510   2.575   0.517  15.528 -0.3259 -0.3120  0.2898
11032TIP3    H154511   2.495   0.553  15.566  1.0596  1.7321  1.5273
11032TIP3    H254512   2.578   0.427  15.559 -1.8305 -0.2384  0.7305
11033TIP3   OH254513   3.050   1.006  11.831 -1.2371 -0.3359  0.0937
11033TIP3    H154514   3.101   0.988  11.910 -1.3595 -0.6389  0.1036
11033TIP3    H254515   2.984   1.069  11.859  0.0071  1.1741 -0.2341
11034TIP3   OH254516   4.537   1.741  12.799 -0.8372  0.3583  0.3706
11034TIP3    H154517   4.550   1.744  12.704  2.1388  1.3431  0.7085
11034TIP3    H254518   4.454   1.787  12.813 -2.9792 -2.4797 -1.8694
11035TIP3   OH254519   2.092   6.623  13.488 -0.3160  0.0058 -0.2520
11035TIP3    H154520   2.184   6.642  13.505 -0.6549  0.5824  1.0852
11035TIP3    H254521   2.093   6.538  13.443  0.8344 -0.1442  0.0165
11036TIP3   OH254522   4.947   6.638   6.274 -0.1566 -0.8918 -0.1120
11036TIP3    H154523   5.036   6.617   6.246 -0.5542 -1.3598 -1.0675
11036TIP3    H254524   4.957   6.665   6.366  1.0532 -0.2417 -0.4072
11037TIP3   OH254525   1.867   1.014  15.827 -0.7541 -0.1431  0.3662
11037TIP3    H154526   1.859   0.974  15.914  0.1107  0.7880  0.9033
11037TIP3    H254527   1.785   1.062  15.816 -1.3477 -1.1901  0.1670
11038TIP3   OH254528   3.336   6.593  16.069  0.4284  0.2288  0.0549
11038TIP3    H154529   3.322   6.502  16.043 -0.4684  0.1520  0.7685
11038TIP3    H254530   3.318   6.594  16.163  1.5182  0.9282  0.2662
11039TIP3   OH254531   5.299   4.923  11.638 -0.2606  0.1727  0.6001
11039TIP3    H154532   5.285   5.017  11.651 -0.2436  0.0792  1.3092
11039TIP3    H254533   5.241   4.881  11.702  1.2252 -0.2727  1.7169
11040TIP3   OH254534   5.354   3.117  14.057  0.1983 -0.2614 -0.1700
11040TIP3    H154535   5.373   3.035  14.102 -0.3405 -0.8375 -0.9831
11040TIP3    H254536   5.259   3.126  14.062  0.1248 -0.3580 -1.2122
11041TIP3   OH254537   4.409   0.645   1.653 -0.0922  0.9502  0.2434
11041TIP3    H154538   4.422   0.560   1.696  0.3769  1.2193  0.6468
11041TIP3    H254539   4.314   0.661   1.660 -0.2612  0.2328 -0.2881
11042TIP3   OH254540   2.588   2.465   6.365  0.0427 -0.5237 -0.0738
11042TIP3    H154541   2.532   2.424   6.431  0.0658 -1.9904 -0.9360
11042TIP3    H254542   2.557   2.556   6.361 -1.4928 -0.9990  0.2966
11043TIP3   OH254543   2.090   2.511   4.450  0.0289  0.1552 -0.5585
11043TIP3    H154544   2.126   2.590   4.411  1.4123  0.1118  0.5378
11043TIP3    H254545   2.150   2.441   4.423  1.6205  0.2663  2.2566
11044TIP3   OH254546   4.178   6.004  13.961  0.4488 -0.0712 -0.3396
11044TIP3    H154547   4.107   6.037  14.016  0.7374 -1.3872  0.8933
11044TIP3    H254548   4.234   6.080  13.946  0.0271  0.4637  0.6905
11045TIP3   OH254549   5.150   1.930   3.569 -0.3357 -0.0281  0.7639
11045TIP3    H154550   5.233   1.939   3.522 -0.0974 -0.3838  1.1103
11045TIP3    H254551   5.086   1.912   3.500 -0.2405  0.8543  0.4319
11046TIP3   OH254552   1.175   5.192   5.043  0.1375 -0.0781  0.3648
11046TIP3    H154553   1.187   5.221   5.134 -1.3326  0.7356  0.3216
11046TIP3    H254554   1.118   5.258   5.004 -1.6722 -1.9443 -0.3238
11047TIP3   OH254555   6.663   0.545  12.627  0.0040 -0.2063 -0.4935
11047TIP3    H154556   6.628   0.576  12.543  0.3037  1.2683 -0.1083
11047TIP3    H254557   6.663   0.623  12.683 -2.2307 -1.5532  1.6071
11048TIP3   OH254558   0.021   1.836  14.973  0.0302  0.0701  0.4979
11048TIP3    H154559  -0.040   1.776  15.015  0.7169 -0.4771  0.7367
11048TIP3    H254560   0.036   1.905  15.039 -0.6479  0.4363  0.2767
11049TIP3   OH254561   5.112   2.845   4.609 -0.3470 -0.0842 -0.2031
11049TIP3    H154562   5.137   2.870   4.698 -0.4316 -1.2539  0.1602
11049TIP3    H254563   5.187   2.869   4.555  0.4391 -0.9718  0.4561
11050TIP3   OH254564   2.081   0.285   5.364 -0.2228 -0.5378  0.9351
11050TIP3    H154565   2.104   0.197   5.393 -1.7852 -0.5820  2.1492
11050TIP3    H254566   2.055   0.331   5.444 -0.5632  0.6658  0.1637
11051TIP3   OH254567   1.865   3.739  13.462  0.2437  0.0912  0.4444
11051TIP3    H154568   1.835   3.812  13.408 -1.0742 -0.5622  0.2482
11051TIP3    H254569   1.958   3.730  13.441  0.1613  0.9654 -0.3825
11052TIP3   OH254570   4.700   4.618  12.778  0.3699 -0.2745  0.3776
11052TIP3    H154571   4.643   4.663  12.715 -0.1408 -1.3964 -0.0130
11052TIP3    H254572   4.787   4.654  12.763  0.2887 -0.6384 -1.1262
11053TIP3   OH254573   6.144   0.138  16.773  0.2594  0.1337  0.1676
11053TIP3    H154574   6.100   0.071  16.825 -0.1344 -1.3233 -1.8984
11053TIP3    H254575   6.075   0.199  16.749 -0.4223 -1.3196 -1.7969
11054TIP3   OH254576   2.313   6.476   0.348 -0.1031  0.3858 -0.0667
11054TIP3    H154577   2.314   6.436   0.261 -1.5030  0.5509 -0.1875
11054TIP3    H254578   2.356   6.561   0.335 -0.2461  0.3837 -0.5816
11055TIP3   OH254579   0.317   1.400   5.445 -0.0942 -0.0256 -0.2828
11055TIP3    H154580   0.354   1.405   5.357 -1.0081 -0.5407 -0.7005
11055TIP3    H254581   0.222   1.408   5.432 -0.5112 -2.9332  0.3671
11056TIP3   OH254582   2.511   0.485   0.913  0.2597  0.0263 -0.6669
11056TIP3    H154583   2.544   0.541   0.982  0.2122 -1.0540  0.2723
11056TIP3    H254584   2.588   0.440   0.878  0.1945  0.0131 -0.7968
11057TIP3   OH254585   3.998   1.790   2.168 -0.0871 -0.0411 -0.3658
11057TIP3    H154586   4.008   1.735   2.246  1.6805 -0.9501 -1.1746
11057TIP3    H254587   4.083   1.786   2.125 -0.0915  2.8409 -0.8289
11058TIP3   OH254588   0.430   0.483   3.406 -0.1320  0.6759  0.0190
11058TIP3    H154589   0.444   0.395   3.441  0.1745  0.5488 -0.4076
11058TIP3    H254590   0.370   0.471   3.332  1.4239  0.5398 -1.2741
11059TIP3   OH254591   1.526   6.140  17.234 -0.6892 -0.4411 -0.1404
11059TIP3    H154592   1.450   6.099  17.192  0.3460 -3.1258  0.3879
11059TIP3    H254593   1.496   6.163  17.322 -1.2455 -0.2409 -0.3755
11060TIP3   OH254594   4.400   1.195   6.740 -0.5006 -0.0946 -0.0457
11060TIP3    H154595   4.317   1.242   6.749 -1.7719 -2.5362  2.4694
11060TIP3    H254596   4.462   1.245   6.793 -1.8682 -1.1328  2.7281
11061TIP3   OH254597   6.306   3.905   4.399 -0.5367  0.2028  0.2094
11061TIP3    H154598   6.364   3.963   4.350 -1.0457  0.5097 -0.0418
11061TIP3    H254599   6.362   3.863   4.464  0.0593  0.1192 -0.3587
11062TIP3   OH254600   2.422   4.316   3.621 -0.1071 -0.3545  0.7932
11062TIP3    H154601   2.470   4.393   3.593 -1.5859  0.6161  0.8395
11062TIP3    H254602   2.337   4.349   3.650 -0.6588 -1.9570  1.1262
11063TIP3   OH254603   5.533   2.069  14.017  0.4042  0.4567 -0.3877
11063TIP3    H154604   5.559   2.161  14.023  2.6120 -0.0484 -1.4257
11063TIP3    H254605   5.615   2.021  14.010 -0.6987 -1.6196  0.0712
11064TIP3   OH254606   2.775   3.416   1.435  0.0041  0.1078  0.6088
11064TIP3    H154607   2.851   3.403   1.378 -0.5666 -1.9902  0.2374
11064TIP3    H254608   2.813   3.433   1.522  0.8779  3.1239 -0.2263
11065TIP3   OH254609   4.124   3.904  15.688 -0.7346  0.4928 -0.2128
11065TIP3    H154610   4.102   3.975  15.748 -1.9144 -0.1844  0.1755
11065TIP3    H254611   4.135   3.827  15.744  0.5714  0.3521 -0.6254
11066TIP3   OH254612   2.071   1.117   2.993 -1.1845  0.1798 -0.1130
11066TIP3    H154613   2.123   1.191   2.961 -1.4477  0.3644 -0.1246
11066TIP3    H254614   2.075   1.053   2.922 -0.8977  0.1534 -0.0747
11067TIP3   OH254615   0.809   4.191  17.389 -0.2008  0.0279  0.1161
11067TIP3    H154616   0.820   4.249  17.464  1.0996 -1.8852  1.5221
11067TIP3    H254617   0.895   4.150  17.378 -1.6158 -3.5634  0.9916
11068TIP3   OH254618   4.937   5.159   4.791 -0.9361  0.0870 -0.0018
11068TIP3    H154619   4.911   5.231   4.734 -1.7805  0.0962  0.3775
11068TIP3    H254620   5.014   5.191   4.837 -1.0463  0.5794 -0.1570
11069TIP3   OH254621   6.745   1.021   0.336 -0.2390  0.0607 -0.0527
11069TIP3    H154622   6.703   1.036   0.420  1.2941 -0.5413  0.8630
11069TIP3    H254623   6.735   1.104   0.289 -2.6123 -0.1430  0.0081
11070TIP3   OH254624   1.143   6.448   0.504  0.5833 -0.2712  0.2408
11070TIP3    H154625   1.150   6.396   0.423 -0.5035 -1.7280  1.0276
11070TIP3    H254626   1.224   6.499   0.506  0.4129  0.2155 -2.0180
11071TIP3   OH254627   5.021   2.789   1.070 -0.2926 -0.1340  0.5867
11071TIP3    H154628   5.076   2.711   1.063  0.8175  0.4895  1.9052
11071TIP3    H254629   5.059   2.851   1.008 -0.0608 -0.0290  0.8297
11072TIP3   OH254630   2.696   3.163   0.683 -0.7282  0.0304  0.5678
11072TIP3    H154631   2.674   3.250   0.717 -1.1286 -0.3544  1.3104
11072TIP3    H254632   2.721   3.113   0.760 -0.0497 -0.3887  0.0851
11073TIP3   OH254633   6.080   5.177  12.098 -0.5660  0.3654 -0.3341
11073TIP3    H154634   6.056   5.207  12.186  0.2236  0.8113 -0.2623
11073TIP3    H254635   6.019   5.223  12.040 -0.1890  1.1488 -0.1228
11074TIP3   OH254636   6.754   0.269   3.925 -0.7091  0.5855 -0.0802
11074TIP3    H154637   6.720   0.331   3.861 -1.7371 -0.2272 -0.3596
11074TIP3    H254638   6.677   0.240   3.975 -0.9587 -2.9048 -2.1225
11075TIP3   OH254639   2.298   4.113  12.899 -0.6904 -0.2284  0.3181
11075TIP3    H154640   2.329   4.150  12.816  0.1088 -1.5619 -0.0057
11075TIP3    H254641   2.288   4.019  12.881 -3.1183 -0.1785  0.9532
11076TIP3   OH254642   2.327   3.925  12.102  0.1717 -0.1333  0.0523
11076TIP3    H154643   2.375   3.869  12.041  0.5148  1.8343 -1.6210
11076TIP3    H254644   2.238   3.926  12.068  0.4260  1.1921 -0.6524
11077TIP3   OH254645   3.942   5.945  14.145 -0.0734 -0.6225  0.2641
11077TIP3    H154646   3.904   5.971  14.229 -0.0225 -0.9074  0.3748
11077TIP3    H254647   3.999   5.871  14.166  1.8477  0.7972  0.3765
11078TIP3   OH254648   5.801   4.017  11.791 -0.0758 -0.7919 -0.1204
11078TIP3    H154649   5.882   4.066  11.777  0.3680 -1.0614  1.3500
11078TIP3    H254650   5.764   4.055  11.872 -1.7137 -0.2934 -1.0515
11079TIP3   OH254651   4.971   0.118  14.718 -0.2269  0.0112 -0.6314
11079TIP3    H154652   5.043   0.093  14.659  0.7953  0.6610  0.2902
11079TIP3    H254653   4.896   0.130  14.661  0.3032 -1.0202 -1.5953
11080TIP3   OH254654   4.704   5.871  13.045  0.1047 -0.0900  0.0743
11080TIP3    H154655   4.625   5.921  13.066  0.2049  0.4949 -0.8908
11080TIP3    H254656   4.713   5.878  12.950  2.1573  1.1275  0.3032
11081TIP3   OH254657   2.598   2.508   0.362  0.2277 -0.6434 -0.5169
11081TIP3    H154658   2.552   2.472   0.438  0.8249  0.8517  0.5886
11081TIP3    H254659   2.552   2.590   0.343  0.1015 -0.9876 -1.7822
11082TIP3   OH254660   4.901   1.583  17.050 -0.5701 -0.0602 -0.5582
11082TIP3    H154661   4.835   1.521  17.080 -0.1540  0.0860  0.7067
11082TIP3    H254662   4.914   1.643  17.123  0.7630  0.0803 -0.8757
11083TIP3   OH254663   4.360   4.093   6.420  0.1856 -0.3592  0.6950
11083TIP3    H154664   4.333   4.049   6.500 -0.9664 -0.0190  0.5196
11083TIP3    H254665   4.444   4.054   6.397  0.1185 -1.0534  1.6059
11084TIP3   OH254666   3.965   5.461  13.583 -0.0937 -0.3371 -0.5659
11084TIP3    H154667   4.005   5.500  13.660 -1.1644 -1.2146  0.4737
11084TIP3    H254668   3.876   5.439  13.610 -0.4036 -0.9466 -1.9609
11085TIP3   OH254669   5.004   3.883  12.884  0.2914 -0.1223  0.2855
11085TIP3    H154670   4.927   3.835  12.854  0.5511 -0.0720 -0.4714
11085TIP3    H254671   5.017   3.854  12.974  0.3974 -1.4174 -0.1334
11086TIP3   OH254672   5.507   1.078   4.412 -0.5223 -0.5312 -0.0074
11086TIP3    H154673   5.530   0.985   4.405  1.4574 -0.0462 -0.4959
11086TIP3    H254674   5.513   1.097   4.505  1.0932 -0.4644 -0.0903
11087TIP3   OH254675   6.275   0.581  10.720 -0.5753 -0.2843  0.0945
11087TIP3    H154676   6.316   0.556  10.637 -0.4470  2.3657 -0.7175
11087TIP3    H254677   6.191   0.533  10.720 -0.1675 -1.0501 -1.0905
11088TIP3   OH254678   4.055   3.635  13.837 -0.1888 -0.3249 -0.2391
11088TIP3    H154679   4.019   3.587  13.763 -3.2579  0.6634  0.4620
11088TIP3    H254680   4.110   3.571  13.883  1.3242 -1.1114 -2.9452
11089TIP3   OH254681   3.501   1.413   0.174  0.1326  0.1512  0.4834
11089TIP3    H154682   3.479   1.481   0.111  0.7703  2.2517  2.4049
11089TIP3    H254683   3.440   1.342   0.154  0.6000  0.5063 -2.7225
11090TIP3   OH254684   4.659   1.105  11.909  0.3929 -0.2934 -0.0899
11090TIP3    H154685   4.620   1.192  11.920  2.6566  0.8955 -0.9039
11090TIP3    H254686   4.659   1.090  11.815 -2.6619 -2.5861  0.1205
11091TIP3   OH254687   3.551   3.618   4.984 -0.6214  0.2010  0.1997
11091TIP3    H154688   3.560   3.708   4.954 -0.3095  0.4801  1.0952
11091TIP3    H254689   3.566   3.565   4.906  1.9686  0.8415  0.1614
11092TIP3   OH254690   5.283   1.049   5.737  0.0995 -0.3253 -0.6009
11092TIP3    H154691   5.246   0.961   5.748 -0.3873 -0.1964 -1.1659
11092TIP3    H254692   5.222   1.093   5.678  0.5811  0.2506 -0.6721
11093TIP3   OH254693   3.048   5.104  12.570 -0.2061 -0.3211  0.6134
11093TIP3    H154694   3.019   5.186  12.532  0.7935 -0.4674 -0.5388
11093TIP3    H254695   3.061   5.046  12.496  0.4441 -1.0755  1.2875
11094TIP3   OH254696   4.231   6.229   5.442  0.0304 -0.6436  0.0397
11094TIP3    H154697   4.198   6.278   5.367 -0.5016 -0.4493  0.3978
11094TIP3    H254698   4.322   6.209   5.419  0.7477  1.7964  0.4836
11095TIP3   OH254699   6.261   1.006  13.370 -0.0733  0.2250 -0.2457
11095TIP3    H154700   6.315   1.072  13.326 -0.6316  0.1121 -1.1172
11095TIP3    H254701   6.237   1.046  13.453  0.0900  0.8786 -0.5102
11096TIP3   OH254702   6.586   3.582  12.894  0.0556  0.5129  0.0308
11096TIP3    H154703   6.631   3.539  12.967  0.4610  0.1460 -0.4287
11096TIP3    H254704   6.536   3.511  12.852 -0.6429  0.8357  0.2942
11097TIP3   OH254705   6.443   1.322   2.963 -0.0320  0.1378 -0.8253
11097TIP3    H154706   6.358   1.283   2.985  0.3247 -0.0148  0.3146
11097TIP3    H254707   6.469   1.369   3.042  0.8965  0.2783 -1.2072
11098TIP3   OH254708   4.059   4.042   5.120  0.5280 -0.2215  0.0299
11098TIP3    H154709   4.029   4.108   5.184 -2.3601  0.0097 -1.3965
11098TIP3    H254710   4.076   3.964   5.173 -1.0258  0.2013  1.2518
11099TIP3   OH254711   1.039   0.360   1.790 -0.1486 -0.7640  0.1101
11099TIP3    H154712   1.011   0.275   1.757 -0.0933 -0.7842  0.1151
11099TIP3    H254713   0.960   0.414   1.788  0.1142 -0.3985 -1.2235
11100TIP3   OH254714   4.403   3.069   1.937 -0.4616 -0.0082  0.3297
11100TIP3    H154715   4.346   2.992   1.939 -1.1218  0.4099 -1.1555
11100TIP3    H254716   4.344   3.143   1.931  0.1056  0.7924  3.1966
11101TIP3   OH254717   3.851   0.122   5.199 -0.1749  0.5576  0.4555
11101TIP3    H154718   3.833   0.169   5.280 -0.2348  1.0159  0.1765
11101TIP3    H254719   3.781   0.057   5.193 -0.9135  1.3714  0.1197
11102TIP3   OH254720   1.440   2.079   1.721  0.5981 -0.1476  0.9731
11102TIP3    H154721   1.365   2.034   1.759 -0.2872  0.0475 -0.4496
11102TIP3    H254722   1.506   2.080   1.790 -1.5206  1.8067  3.1090
11103TIP3   OH254723   0.093   6.310  15.258 -0.1632 -0.1196  0.2997
11103TIP3    H154724   0.023   6.250  15.232  1.0446 -1.8415  0.8619
11103TIP3    H254725   0.132   6.339  15.176  0.2198 -1.3272  0.0439
11104TIP3   OH254726   3.766   6.255   5.341  0.3172 -0.1924 -0.2081
11104TIP3    H154727   3.702   6.321   5.367  0.8045  0.6738 -1.1688
11104TIP3    H254728   3.838   6.304   5.303  0.3643 -1.2929 -1.6323
11105TIP3   OH254729   5.111   5.733  11.072 -0.2189 -0.1882  0.2771
11105TIP3    H154730   5.020   5.750  11.095 -0.0496  0.7875  0.2674
11105TIP3    H254731   5.150   5.820  11.062  0.3771 -0.5880 -1.0613
11106TIP3   OH254732   0.380   5.347   4.596  0.9917  0.2108 -0.5855
11106TIP3    H154733   0.420   5.413   4.539  1.2467 -0.1820 -0.8691
11106TIP3    H254734   0.397   5.264   4.552 -0.9901  0.0964 -1.2163
11107TIP3   OH254735   5.540   5.701   3.368  0.4352  0.3614 -0.0897
11107TIP3    H154736   5.461   5.717   3.421 -1.2545  0.1268 -2.3960
11107TIP3    H254737   5.554   5.607   3.373  1.3570  0.5400  1.3001
11108TIP3   OH254738   0.574   4.959   4.249 -0.2629 -0.3193  0.5092
11108TIP3    H154739   0.545   4.871   4.276  1.8260 -0.7307  1.7297
11108TIP3    H254740   0.646   4.942   4.188  0.9239  0.4565  1.6203
11109TIP3   OH254741   1.258   3.039   0.256 -0.0964 -0.1136 -0.0236
11109TIP3    H154742   1.342   3.072   0.226  0.6772 -1.5107  0.5131
11109TIP3    H254743   1.244   2.960   0.203 -1.6673  0.7406 -0.9616
11110TIP3   OH254744   5.392   6.188  15.863 -0.1738  0.3753  0.2789
11110TIP3    H154745   5.473   6.141  15.841  0.2368  0.4609  1.5194
11110TIP3    H254746   5.365   6.228  15.780  0.7797 -0.0577 -0.2703
11111TIP3   OH254747   3.525   2.437  11.085 -0.1024  0.2346  0.1214
11111TIP3    H154748   3.584   2.507  11.113  0.5754 -0.0198 -0.6393
11111TIP3    H254749   3.491   2.465  11.001  1.9045 -1.2930 -1.2932
11112TIP3   OH254750   1.468   2.453   1.918  0.9779  0.0109 -0.1241
11112TIP3    H154751   1.520   2.533   1.921  2.4851 -0.9057 -0.2438
11112TIP3    H254752   1.445   2.442   1.826  2.7309 -0.8295 -0.5096
11113TIP3   OH254753   4.619   5.636  14.865  0.3557  0.2163  0.1657
11113TIP3    H154754   4.674   5.674  14.796 -0.0757 -1.6541 -1.2839
11113TIP3    H254755   4.540   5.690  14.866  1.1033  1.3318  0.4504
11114TIP3   OH254756   3.444   2.489  14.845 -0.0405 -0.3349  0.6226
11114TIP3    H154757   3.454   2.552  14.774  0.3871 -1.3878 -0.2669
11114TIP3    H254758   3.425   2.543  14.922 -3.1172  0.7359 -0.7239
11115TIP3   OH254759   1.112   0.940   4.514  0.1751 -0.4210 -0.0373
11115TIP3    H154760   1.136   1.000   4.443 -0.7267  0.5110  0.4146
11115TIP3    H254761   1.027   0.904   4.486  0.5914 -1.3004 -0.1832
11116TIP3   OH254762   2.883   3.107   3.167 -0.1691 -0.0945 -0.6191
11116TIP3    H154763   2.938   3.029   3.168 -0.2733 -0.1610  0.2909
11116TIP3    H254764   2.944   3.180   3.174 -0.1776 -0.1621  0.2117
11117TIP3   OH254765   2.483   0.917   5.850 -0.1944  0.4762  0.1011
11117TIP3    H154766   2.536   0.993   5.873  0.6510 -0.1024  0.1439
11117TIP3    H254767   2.467   0.927   5.756 -1.4732  1.5260  0.4107
11118TIP3   OH254768   5.119   0.228  15.510 -0.4267 -0.2691 -0.3779
11118TIP3    H154769   5.099   0.309  15.557 -0.3741 -0.2908 -0.3186
11118TIP3    H254770   5.121   0.254  15.418  1.5561  0.2078 -0.2422
11119TIP3   OH254771   6.028   6.504   0.103 -0.1810  0.3235 -0.6049
11119TIP3    H154772   6.031   6.442   0.176  1.7559  1.3591  0.2496
11119TIP3    H254773   6.080   6.462   0.034  0.0426  0.4148 -0.4936
11120TIP3   OH254774   5.471   1.315  16.870  0.0811 -0.2207  0.3367
11120TIP3    H154775   5.461   1.368  16.790 -0.5787  1.0530  1.2316
11120TIP3    H254776   5.382   1.291  16.894  0.2988 -0.8190  0.5604
11121TIP3   OH254777   6.727   0.364   5.777  0.2416 -0.0140 -0.3609
11121TIP3    H154778   6.660   0.296   5.789 -2.2818  2.1667 -1.2081
11121TIP3    H254779   6.696   0.416   5.704  2.7644  1.3264 -0.5987
11122TIP3   OH254780   6.503   6.718   0.362  0.2883 -0.7233 -0.3824
11122TIP3    H154781   6.551   6.797   0.390 -2.0948  1.8420 -2.9082
11122TIP3    H254782   6.559   6.678   0.296  0.0490  0.8826 -1.5943
11123TIP3   OH254783   2.905   5.056   5.265  0.3006  0.3880 -0.3561
11123TIP3    H154784   2.924   5.149   5.257 -2.2671  0.8110 -3.5811
11123TIP3    H254785   2.946   5.016   5.188 -0.5321 -0.7536 -0.2393
11124TIP3   OH254786   1.181   0.064   2.421  0.0390 -0.0404  0.4442
11124TIP3    H154787   1.106   0.108   2.461 -0.1168 -1.8626  2.2906
11124TIP3    H254788   1.233   0.032   2.494 -0.5037 -3.9328 -0.6094
11125TIP3   OH254789   1.795   4.666   5.811  0.2960 -0.1750  0.2025
11125TIP3    H154790   1.747   4.743   5.841  2.9480  1.0418  1.7550
11125TIP3    H254791   1.826   4.623   5.891  1.4678 -1.0598 -0.6771
11126TIP3   OH254792   4.701   2.141   1.306  0.8489 -0.0946 -0.0555
11126TIP3    H154793   4.678   2.229   1.337  1.0283  0.0660 -0.3799
11126TIP3    H254794   4.721   2.153   1.213  2.0275 -0.2708  0.1645
11127TIP3   OH254795   1.986   4.322   2.909  0.4026 -0.2607 -0.0915
11127TIP3    H154796   1.986   4.405   2.861  0.4169 -0.2233 -0.0268
11127TIP3    H254797   1.969   4.256   2.842  2.7291 -0.4571 -0.5867
11128TIP3   OH254798   1.805   4.576   4.668 -0.3683  0.0028 -0.1811
11128TIP3    H154799   1.777   4.492   4.703  0.6098 -0.0449  0.5254
11128TIP3    H254800   1.825   4.629   4.745  2.1023 -0.1899 -0.6140
11129TIP3   OH254801   0.022   2.547   0.797 -0.0625 -0.3005  0.3919
11129TIP3    H154802  -0.050   2.603   0.769 -1.9123 -2.7379 -0.0396
11129TIP3    H254803   0.014   2.468   0.744  3.3525 -0.4719 -0.1121
11130TIP3   OH254804   3.016   1.402  11.676  0.4036 -0.0438 -0.4939
11130TIP3    H154805   3.079   1.467  11.707 -0.4538  0.8723 -0.6347
11130TIP3    H254806   2.979   1.365  11.756  0.6495 -0.1291 -0.4168
11131TIP3   OH254807   0.506   2.481  15.415  0.1661 -1.0062 -0.0643
11131TIP3    H154808   0.521   2.409  15.477  0.6190  0.0773  1.1282
11131TIP3    H254809   0.411   2.485  15.406 -0.0536  0.0696  2.1427
11132TIP3   OH254810   5.040   1.653  11.333  0.1432 -0.0662  0.7279
11132TIP3    H154811   5.116   1.678  11.281  1.3761 -1.1783  1.9227
11132TIP3    H254812   5.056   1.561  11.356 -1.4399 -0.2419  1.2226
11133TIP3   OH254813   0.219   1.001  13.488  0.2713  0.2428  0.1947
11133TIP3    H154814   0.305   0.975  13.521  0.3328 -1.4760 -1.1563
11133TIP3    H254815   0.228   0.995  13.392 -1.4152 -0.2759  0.0414
11134TIP3   OH254816   0.292   6.155   0.487 -0.6558 -0.2265  0.5850
11134TIP3    H154817   0.282   6.247   0.464 -0.5673  0.1222  1.9075
11134TIP3    H254818   0.224   6.138   0.552  0.7832 -0.4676  2.1068
11135TIP3   OH254819   5.733   3.203   4.959 -0.3145 -0.6091  0.1109
11135TIP3    H154820   5.659   3.221   5.017 -1.0454 -0.3511 -0.8659
11135TIP3    H254821   5.795   3.274   4.977 -0.3427 -0.7675  0.8624
11136TIP3   OH254822   3.241   5.117  15.839  0.4451 -0.1020 -0.8928
11136TIP3    H154823   3.304   5.068  15.788  1.3641  0.0625  0.0424
11136TIP3    H254824   3.292   5.152  15.913 -0.9290 -0.8165  0.4603
11137TIP3   OH254825   6.261   3.810   4.801  0.1781  0.5897 -0.0038
11137TIP3    H154826   6.256   3.799   4.896 -1.1043  0.7531 -0.0300
11137TIP3    H254827   6.354   3.805   4.781  0.4097 -0.2507  1.1664
11138TIP3   OH254828   4.040   6.058   5.520  0.0907 -0.1871 -0.2119
11138TIP3    H154829   4.102   6.120   5.483  1.6653 -0.5775  1.6167
11138TIP3    H254830   4.082   6.027   5.600 -2.3556 -0.6876  0.9760
11139TIP3   OH254831   2.571   1.369   1.575 -0.2665  0.1369  0.9805
11139TIP3    H154832   2.496   1.315   1.600 -1.4925  0.3257 -1.8381
11139TIP3    H254833   2.545   1.458   1.597 -0.2758  0.0641  1.2653
11140TIP3   OH254834   5.126   3.040  15.174 -0.4448  0.0344  0.1783
11140TIP3    H154835   5.078   3.029  15.092  0.3692  1.8296 -0.5806
11140TIP3    H254836   5.217   3.024  15.151 -0.2373  0.3448  0.7755
11141TIP3   OH254837   4.604   1.196   2.844  0.2556 -0.5341 -0.3183
11141TIP3    H154838   4.579   1.166   2.931  0.3130 -1.5341 -0.6322
11141TIP3    H254839   4.579   1.124   2.786 -2.1755  1.1339 -1.4951
11142TIP3   OH254840   0.437   0.632   3.691  0.0584 -0.2625 -0.5142
11142TIP3    H154841   0.371   0.641   3.760  0.7877 -0.4940  0.2369
11142TIP3    H254842   0.392   0.586   3.620 -0.5890 -0.4098 -0.0163
11143TIP3   OH254843   1.733   0.556   3.216  1.2354  0.2224 -0.2776
11143TIP3    H154844   1.812   0.557   3.270 -0.1667 -4.5600  2.4418
11143TIP3    H254845   1.752   0.493   3.147 -0.0436 -0.7588  0.2417
11144TIP3   OH254846   5.447   3.909  12.577  0.5721  0.2245  0.0516
11144TIP3    H154847   5.354   3.933  12.581  0.6293  0.3186  2.2424
11144TIP3    H254848   5.480   3.928  12.665  1.9120 -2.7468  0.3258
11145TIP3   OH254849   6.554   0.988   2.390 -0.0464  0.2839  0.1010
11145TIP3    H154850   6.555   1.075   2.349 -0.2942  0.1046 -0.2913
11145TIP3    H254851   6.487   0.939   2.342  0.9992 -0.5476 -0.5956
11146TIP3   OH254852   3.318   0.778  11.903  0.0838  0.4389 -0.1108
11146TIP3    H154853   3.412   0.787  11.920  0.0788  1.9650 -0.7159
11146TIP3    H254854   3.306   0.685  11.883  1.1932 -0.0903  1.4538
11147TIP3   OH254855   1.294   0.831   3.787  0.8237  0.3015 -0.3385
11147TIP3    H154856   1.284   0.779   3.867 -1.4574  1.7929  0.4359
11147TIP3    H254857   1.249   0.779   3.720 -2.8999  1.7444  0.7610
11148TIP3   OH254858   4.188   5.391   0.485  0.0660  0.0892  0.5170
11148TIP3    H154859   4.166   5.340   0.563  1.2158 -2.9352 -0.9694
11148TIP3    H254860   4.282   5.380   0.475  0.2127  1.8413 -0.4135
11149TIP3   OH254861   5.726   2.221   1.385 -0.0164 -0.2107  0.5407
11149TIP3    H154862   5.681   2.185   1.461 -0.3315  0.4693  0.6915
11149TIP3    H254863   5.802   2.266   1.422 -0.5171  0.6734  0.5391
11150TIP3   OH254864   4.447   5.345   0.847  0.0904  0.3943 -0.6613
11150TIP3    H154865   4.469   5.428   0.803 -1.1834  0.7686 -0.6278
11150TIP3    H254866   4.527   5.321   0.893 -0.0125  2.5695  0.8311
11151TIP3   OH254867   2.233   1.647   1.244 -0.1597  0.3293  0.2804
11151TIP3    H154868   2.170   1.577   1.229  0.1300  0.1105  0.0706
11151TIP3    H254869   2.198   1.697   1.318 -2.2175  2.0771 -1.7238
11152TIP3   OH254870   3.673   0.355  11.498  0.2371  0.2748 -0.4183
11152TIP3    H154871   3.661   0.424  11.563 -1.4789  0.1502 -0.5650
11152TIP3    H254872   3.730   0.291  11.541  1.6307  1.6060 -0.1824
11153TIP3   OH254873   1.287   2.224  17.058  0.2460 -0.0129  0.6289
11153TIP3    H154874   1.352   2.251  17.123  0.5717 -0.0263  0.3111
11153TIP3    H254875   1.299   2.285  16.985 -2.2236  2.0969  1.7911
11154TIP3   OH254876   0.779   0.805  13.060 -0.2575  0.1725  0.1267
11154TIP3    H154877   0.795   0.739  12.993 -0.6463 -0.1641  0.3588
11154TIP3    H254878   0.861   0.854  13.066 -0.0193 -0.1862 -0.1595
11155TIP3   OH254879   3.192   1.816  11.521 -0.0968  0.3901 -0.3204
11155TIP3    H154880   3.111   1.788  11.562  0.5211 -4.1959 -1.5774
11155TIP3    H254881   3.245   1.851  11.593 -1.8529  0.0858  1.1982
11156TIP3   OH254882   2.296   0.112  13.872 -0.0648  0.1566 -0.4851
11156TIP3    H154883   2.356   0.059  13.923 -0.5972  0.2551  0.2665
11156TIP3    H254884   2.232   0.050  13.838  0.7203 -0.0198 -1.6994
11157TIP3   OH254885   1.799   5.474   6.536 -0.3079 -0.0340 -0.3362
11157TIP3    H154886   1.711   5.459   6.502 -0.2478 -2.2169  0.3150
11157TIP3    H254887   1.855   5.417   6.484  0.7913  1.4466 -0.8475
11158TIP3   OH254888   3.094   0.767  13.766  0.3261  0.1121  0.0593
11158TIP3    H154889   3.176   0.815  13.768 -0.5071  1.7094 -1.3558
11158TIP3    H254890   3.032   0.822  13.813  0.3469 -1.8318  2.5925
11159TIP3   OH254891   4.803   2.201   2.694 -0.3715 -0.4016  0.0910
11159TIP3    H154892   4.884   2.152   2.705 -0.0514  0.4744  2.0629
11159TIP3    H254893   4.830   2.293   2.688 -0.8926 -0.2878 -4.3465
11160TIP3   OH254894   1.997   4.939  11.516  0.0200 -0.0863 -0.7849
11160TIP3    H154895   1.992   4.844  11.522 -0.6726  0.0474  2.3583
11160TIP3    H254896   2.090   4.959  11.524 -0.0470 -0.4573  1.5068
11161TIP3   OH254897   1.471   3.618   3.883  0.0835 -0.4256 -0.3000
11161TIP3    H154898   1.510   3.628   3.796 -0.9331  0.4374 -0.6704
11161TIP3    H254899   1.531   3.559   3.929  2.2667  1.4498 -0.5775
11162TIP3   OH254900   2.775   1.300   3.629 -0.0104  0.2146  0.1512
11162TIP3    H154901   2.706   1.269   3.570 -0.4909 -1.1026  1.3556
11162TIP3    H254902   2.823   1.221   3.653 -0.7845  0.4374  2.7291
11163TIP3   OH254903   5.037   2.006   4.127 -0.0724  0.0157  0.4377
11163TIP3    H154904   5.105   1.994   4.194 -0.4114 -0.3211  0.7253
11163TIP3    H254905   5.032   1.921   4.083 -1.3483 -0.4552  1.4098
11164TIP3   OH254906   2.522   3.545   3.185 -0.1031  0.2976  0.1098
11164TIP3    H154907   2.449   3.562   3.245 -0.0738  0.7324  0.0190
11164TIP3    H254908   2.581   3.619   3.196 -0.1849  0.4721 -0.5850
11165TIP3   OH254909   3.403   4.199  11.471  0.1801 -0.0479  0.1617
11165TIP3    H154910   3.377   4.258  11.401  0.2653 -0.1297  0.0598
11165TIP3    H254911   3.370   4.113  11.444 -2.1776  0.3463  1.4989
11166TIP3   OH254912   0.191   0.809   1.719 -0.5306 -0.1828 -0.1595
11166TIP3    H154913   0.134   0.884   1.700 -0.3420 -0.3066 -1.2749
11166TIP3    H254914   0.224   0.826   1.808 -1.2689  0.5464 -0.0103
11167TIP3   OH254915   6.166   0.778   4.766 -0.1665 -0.4763 -0.2008
11167TIP3    H154916   6.204   0.851   4.716 -1.2242 -0.8761 -1.6717
11167TIP3    H254917   6.189   0.796   4.857  2.2355  0.0805 -0.8340
11168TIP3   OH254918   0.956   4.931   2.552 -0.4387  0.2412  0.0658
11168TIP3    H154919   0.887   4.874   2.587 -1.7467 -0.7105 -3.5637
11168TIP3    H254920   0.910   5.008   2.519  0.2951  0.0476 -1.5301
11169TIP3   OH254921   0.491   4.947   5.957 -0.1417 -0.3426 -0.2337
11169TIP3    H154922   0.397   4.931   5.948 -0.4443 -0.1883  2.1612
11169TIP3    H254923   0.501   4.982   6.045  2.1096  0.2111 -0.6602
11170TIP3   OH254924   6.160   5.116   4.322 -0.2393  0.3942 -0.5078
11170TIP3    H154925   6.105   5.099   4.245 -0.7168 -0.1810 -0.0435
11170TIP3    H254926   6.101   5.154   4.386 -0.2686 -0.8320  0.2328
11171TIP3   OH254927   5.868   6.120  10.752  0.6725  0.1552  0.8466
11171TIP3    H154928   5.940   6.152  10.698 -0.6323  0.3939 -0.8177
11171TIP3    H254929   5.811   6.195  10.764 -0.1537 -0.4350  0.7025
11172TIP3   OH254930   6.475   0.311  15.974 -0.0463  0.0209 -0.1909
11172TIP3    H154931   6.431   0.322  16.058 -0.0702  0.2397 -0.2327
11172TIP3    H254932   6.545   0.248  15.992 -2.1600 -2.6759 -0.7541
11173TIP3   OH254933   1.139   4.113   3.691 -0.3174 -0.0727 -0.1427
11173TIP3    H154934   1.212   4.171   3.715 -2.1720  2.9006 -1.0360
11173TIP3    H254935   1.110   4.076   3.774  1.3294 -0.2449  0.3940
11174TIP3   OH254936   5.013   6.273   3.928  0.0625  0.1950 -0.1823
11174TIP3    H154937   4.981   6.359   3.901  0.9244  1.3960  2.2541
11174TIP3    H254938   5.105   6.287   3.951  0.2638 -1.4170  0.1545
11175TIP3   OH254939   1.652   5.957  14.471 -0.1340 -0.7425 -0.4585
11175TIP3    H154940   1.688   6.016  14.404 -0.3804 -0.2041 -0.1242
11175TIP3    H254941   1.717   5.887  14.479  1.9849  1.2645  1.6554
11176TIP3   OH254942   1.301   4.949   2.328 -0.1547 -0.5557  0.9881
11176TIP3    H154943   1.347   5.030   2.309 -0.5438 -0.0216  2.2238
11176TIP3    H254944   1.260   4.924   2.245 -0.3978  0.7560  0.7020
11177TIP3   OH254945   6.367   6.488   3.315 -0.5373 -0.8163  0.2302
11177TIP3    H154946   6.394   6.508   3.226  0.8523  1.1370  1.0244
11177TIP3    H254947   6.429   6.421   3.344  0.7813  0.4939  0.5738
11178TIP3   OH254948   2.597   2.534  12.721 -0.1895  0.3959  0.1904
11178TIP3    H154949   2.554   2.449  12.715  0.0622  0.2640  0.2133
11178TIP3    H254950   2.531   2.597  12.693 -0.7052  0.2917  1.1624
11179TIP3   OH254951   0.207   1.464   3.640  0.0439  0.0286 -0.3865
11179TIP3    H154952   0.242   1.465   3.729  0.4106 -0.9859 -0.4989
11179TIP3    H254953   0.164   1.549   3.629 -0.3591  0.0038  0.9008
11180TIP3   OH254954   0.728   2.905  12.639 -0.4318 -0.8288 -0.0530
11180TIP3    H154955   0.728   2.999  12.624  0.3503 -0.9514 -0.8932
11180TIP3    H254956   0.695   2.867  12.558  1.4203 -1.3848 -0.5820
11181TIP3   OH254957   1.545   4.168   2.528  0.5853  0.0683  0.0855
11181TIP3    H154958   1.535   4.104   2.599 -1.0761 -2.3765 -2.1674
11181TIP3    H254959   1.469   4.226   2.537  2.0535  1.8704  2.0838
11182TIP3   OH254960   4.995   5.744   2.397 -0.1233 -0.5332 -0.1323
11182TIP3    H154961   5.021   5.802   2.324 -0.3439 -0.1318  0.1035
11182TIP3    H254962   4.899   5.739   2.390 -0.0572 -1.4266 -0.5626
11183TIP3   OH254963   4.287   6.202  15.413 -0.0090  0.0530  0.2253
11183TIP3    H154964   4.354   6.159  15.361 -1.0911 -2.4375  0.7465
11183TIP3    H254965   4.304   6.174  15.503 -1.2818 -0.0410  0.4586
11184TIP3   OH254966   1.853   3.759   4.230 -0.5711 -0.2013 -0.1447
11184TIP3    H154967   1.760   3.766   4.248 -0.4972 -1.5685  0.9736
11184TIP3    H254968   1.874   3.667   4.246  1.1932  0.3135  0.8219
11185TIP3   OH254969   2.889   5.237  12.213 -0.1199  0.0064  0.5835
11185TIP3    H154970   2.847   5.198  12.136  1.1800 -0.8063  0.2482
11185TIP3    H254971   2.888   5.331  12.196 -0.7553 -0.0885  0.0496
11186TIP3   OH254972   2.666   6.494   0.170 -0.2679 -0.0226 -0.0471
11186TIP3    H154973   2.697   6.544   0.245 -0.1509 -0.8182  0.4475
11186TIP3    H254974   2.711   6.410   0.177 -0.6686 -0.3030 -0.7040
11187TIP3   OH254975   0.987   0.124  13.780 -0.5968  0.3711  0.1487
11187TIP3    H154976   1.061   0.113  13.720 -0.9042 -0.2580 -0.1206
11187TIP3    H254977   0.954   0.212  13.761 -0.3166  0.4084 -0.1829
11188TIP3   OH254978   1.332   1.143   1.119 -0.7511 -0.0712 -0.3954
11188TIP3    H154979   1.249   1.183   1.144 -1.8636 -1.2789 -1.9361
11188TIP3    H254980   1.352   1.180   1.033 -0.0382 -0.3156 -0.3457
11189TIP3   OH254981   5.834   0.767  12.607  0.3767  0.4216  0.0037
11189TIP3    H154982   5.763   0.812  12.652 -0.9829 -0.6500 -0.9758
11189TIP3    H254983   5.809   0.770  12.514  0.8923 -1.1531 -0.2211
11190TIP3   OH254984   1.530   3.131  12.740  0.1447  0.1709  0.2830
11190TIP3    H154985   1.603   3.071  12.720 -1.9402 -1.6306 -2.7088
11190TIP3    H254986   1.454   3.073  12.750 -1.3512  2.1386  0.8361
11191TIP3   OH254987   4.569   2.940   5.704 -0.0690  0.0113 -0.5880
11191TIP3    H154988   4.635   2.887   5.750 -0.3273  0.0738 -0.1375
11191TIP3    H254989   4.619   3.010   5.663 -0.0671  1.6641  1.9740
11192TIP3   OH254990   5.096   6.567  11.178 -0.3856 -0.5053 -0.1347
11192TIP3    H154991   5.186   6.536  11.174 -0.2501 -0.5490  1.9195
11192TIP3    H254992   5.078   6.601  11.091  0.6371 -3.0832 -1.4456
11193TIP3   OH254993   0.007   1.636   4.237  0.1207  0.0984  0.1889
11193TIP3    H154994  -0.087   1.616   4.238  0.1739 -0.1257  0.9331
11193TIP3    H254995   0.050   1.551   4.236  0.3361  0.1685 -1.8112
11194TIP3   OH254996   2.653   5.168   4.294 -0.3621  0.1266  0.5671
11194TIP3    H154997   2.610   5.139   4.374 -2.5007  0.4155 -0.3906
11194TIP3    H254998   2.592   5.232   4.256  1.7041  1.8387 -0.1035
11195TIP3   OH254999   5.033   2.905  14.239  0.0644 -0.6141 -0.1324
11195TIP3    H155000   5.018   2.883  14.331  0.1492  0.1127  0.0574
11195TIP3    H255001   5.098   2.975  14.241 -1.7356  1.1566 -0.6090
11196TIP3   OH255002   3.361   5.493   3.809  0.3246 -0.2575  0.2970
11196TIP3    H155003   3.273   5.454   3.807  0.7801 -1.3130  0.4326
11196TIP3    H255004   3.396   5.468   3.894  0.7673  0.1696  0.2444
11197TIP3   OH255005   1.752   4.544  12.367 -0.5225 -0.3908 -0.0860
11197TIP3    H155006   1.693   4.547  12.291 -1.0617  0.7489  0.3603
11197TIP3    H255007   1.744   4.454  12.399  0.0251 -1.0056 -1.6089
11198TIP3   OH255008   4.819   1.182   3.793  0.2394 -0.1219  0.3771
11198TIP3    H155009   4.783   1.271   3.797  2.4397  0.8200  1.0782
11198TIP3    H255010   4.895   1.190   3.736  0.5730 -1.5255  0.5979
11199TIP3   OH255011   5.552   4.393   4.573 -0.4632  0.0073 -0.5328
11199TIP3    H155012   5.493   4.323   4.600 -0.5438  0.0938 -0.4860
11199TIP3    H255013   5.534   4.405   4.479  1.1828 -1.6324 -1.1078
11200TIP3   OH255014   4.905   5.306   5.660 -0.0780  0.3339 -0.3739
11200TIP3    H155015   4.931   5.343   5.575  1.5246 -1.7084 -0.8678
11200TIP3    H255016   4.824   5.258   5.641  1.6651 -2.4331 -1.5561
11201TIP3   OH255017   3.170   0.222  10.990  0.3385  0.3732  0.0956
11201TIP3    H155018   3.256   0.265  10.981  0.0360  1.4803  2.0186
11201TIP3    H255019   3.166   0.162  10.915  1.3263  2.7697 -2.0247
11202TIP3   OH255020   3.213   2.829  14.331 -0.5734 -0.3980  0.1417
11202TIP3    H155021   3.293   2.882  14.329 -0.3840 -0.6099  1.4521
11202TIP3    H255022   3.196   2.810  14.238  0.3255  0.4813 -0.2344
11203TIP3   OH255023   1.536   3.191   6.667  0.9119  0.2831 -0.0833
11203TIP3    H155024   1.605   3.198   6.601  0.6194  2.0220 -0.2455
11203TIP3    H255025   1.553   3.262   6.728  1.1541 -1.2602  1.7610
11204TIP3   OH255026   0.339   1.990   3.761 -0.1043 -0.5949 -0.4699
11204TIP3    H155027   0.303   2.004   3.848  0.1292  1.6540 -0.6670
11204TIP3    H255028   0.428   1.959   3.776 -0.2192 -0.6581  0.0796
11205TIP3   OH255029   4.028   0.027   3.250 -0.1697 -0.1431 -0.0982
11205TIP3    H155030   3.937  -0.000   3.243 -0.1450  0.0607 -1.4726
11205TIP3    H255031   4.053   0.004   3.339 -0.8515 -2.4042 -0.4326
11206TIP3   OH255032   4.677   0.125  14.029  0.1124 -0.1988 -0.1519
11206TIP3    H155033   4.660   0.037  14.061 -0.4473  0.3495  1.1028
11206TIP3    H255034   4.772   0.130  14.021  0.2288 -0.5130  0.9697
11207TIP3   OH255035   3.591   1.039  10.569 -0.7017  0.1823  0.0104
11207TIP3    H155036   3.644   1.117  10.551 -1.4957  0.7511  0.1098
11207TIP3    H255037   3.651   0.980  10.614  0.1060  0.4539 -0.6750
11208TIP3   OH255038   4.158   4.853   2.022 -0.6588  0.3251  0.6622
11208TIP3    H155039   4.169   4.846   1.927  0.3465 -2.4596  0.8770
11208TIP3    H255040   4.065   4.872   2.034 -1.0768 -0.5639 -0.8889
11209TIP3   OH255041   6.313   3.509  13.101 -0.0052 -0.1975 -0.0787
11209TIP3    H155042   6.389   3.468  13.141  0.3223  0.7327  0.2868
11209TIP3    H255043   6.239   3.482  13.155  0.2154 -0.2504  0.1968
11210TIP3   OH255044   5.759   1.611   4.968  0.4138  0.5720 -0.0262
11210TIP3    H155045   5.735   1.634   4.878  1.4104  1.8675  0.0029
11210TIP3    H255046   5.797   1.692   5.003  0.2266  0.0227  1.4962
11211TIP3   OH255047   5.209   5.538   1.670  0.3159  0.1186 -0.0862
11211TIP3    H155048   5.305   5.539   1.670  0.3302 -0.0513  0.8888
11211TIP3    H255049   5.186   5.471   1.735 -0.4641  0.2011 -0.2699
11212TIP3   OH255050   6.682   2.144   3.200 -0.9228 -0.1629 -0.1080
11212TIP3    H155051   6.777   2.144   3.205 -0.9070 -2.8440  1.8146
11212TIP3    H255052   6.662   2.094   3.120 -0.7031 -0.0218 -0.2505
11213TIP3   OH255053   3.987   2.625  15.414 -0.4019 -0.2449 -0.4647
11213TIP3    H155054   4.037   2.658  15.488  0.3076  0.0936 -1.0783
11213TIP3    H255055   3.965   2.535  15.437  1.3173 -0.7259 -0.5676
11214TIP3   OH255056   4.554   6.546   5.810 -0.2762  0.5589  0.2130
11214TIP3    H155057   4.510   6.484   5.753 -0.9297  1.2730 -0.0835
11214TIP3    H255058   4.526   6.522   5.898  0.3776 -0.2625  0.2061
11215TIP3   OH255059   5.178   3.013  11.723  0.3241 -0.8454  0.0179
11215TIP3    H155060   5.222   2.956  11.787 -0.3183 -1.5118 -0.1225
11215TIP3    H255061   5.116   3.064  11.775 -0.8268 -2.0142 -0.1736
11216TIP3   OH255062   1.965   6.552   4.810 -0.5391 -0.1002 -0.1952
11216TIP3    H155063   2.037   6.535   4.750 -1.4394 -1.4547 -0.9363
11216TIP3    H255064   1.952   6.647   4.806  0.0341 -0.0569 -1.4219
11217TIP3   OH255065   2.601   6.140  17.087  0.2402  0.1978 -0.0739
11217TIP3    H155066   2.686   6.106  17.116  0.3958  0.9804  0.4027
11217TIP3    H255067   2.598   6.118  16.994  1.2022  0.6164 -0.2188
11218TIP3   OH255068   2.152   2.271  16.233 -0.0472 -0.2864  0.7507
11218TIP3    H155069   2.087   2.322  16.281  0.8520  1.1627  0.4819
11218TIP3    H255070   2.234   2.319  16.244  0.4590 -0.6434 -1.0771
11219TIP3   OH255071   5.755   5.421  17.026  0.3528 -0.3564 -0.1876
11219TIP3    H155072   5.802   5.368  16.963  0.1906 -0.3276 -0.3343
11219TIP3    H255073   5.822   5.473  17.069  0.4728 -0.4342 -0.2822
11220TIP3   OH255074   6.403   3.618   0.055  0.5085  0.4570 -0.6742
11220TIP3    H155075   6.438   3.688  -0.000  0.1636  0.9613 -0.2654
11220TIP3    H255076   6.321   3.653   0.090  0.5217 -0.0051 -0.1589
11221TIP3   OH255077   5.932   4.115  17.345  0.5010  0.1128  0.0918
11221TIP3    H155078   5.972   4.191  17.388  0.4430  0.0572  0.2473
11221TIP3    H255079   6.006   4.063  17.314  0.6037  2.0022 -3.2548
11222TIP3   OH255080   0.275   6.705  15.657  0.2091  0.2696  0.0847
11222TIP3    H155081   0.294   6.639  15.590 -1.6788  0.0364 -0.2954
11222TIP3    H255082   0.205   6.758  15.618 -0.9552  0.1090  1.8381
11223TIP3   OH255083   4.420   1.354  11.560 -0.1628 -0.0786  0.3551
11223TIP3    H155084   4.432   1.404  11.641 -1.2579 -1.0057  1.1183
11223TIP3    H255085   4.503   1.362  11.514  0.6087  0.1431  1.7489
11224TIP3   OH255086   0.966   2.668   2.979 -0.0931  0.6339 -0.7206
11224TIP3    H155087   0.957   2.647   3.072 -0.9292  0.7124 -0.7769
11224TIP3    H255088   1.047   2.624   2.952 -1.8232 -2.7339 -0.8838
11225TIP3   OH255089   4.782   6.502   1.655 -0.1417  0.1282 -0.0037
11225TIP3    H155090   4.823   6.586   1.676  0.3734  0.8466 -3.2650
11225TIP3    H255091   4.850   6.454   1.608 -0.7609 -1.7510  0.9276
11226TIP3   OH255092   4.221   5.039   4.486  0.0278 -0.2057  0.2445
11226TIP3    H155093   4.154   4.973   4.505 -0.4710  0.6495  1.6428
11226TIP3    H255094   4.268   5.005   4.410 -1.1963 -1.4238 -0.0027
11227TIP3   OH255095   0.071   2.678   0.487  0.1276  0.6570 -0.3329
11227TIP3    H155096  -0.001   2.742   0.482 -0.2711  0.2371 -0.0158
11227TIP3    H255097   0.083   2.663   0.581 -2.7604 -3.0375 -0.3407
11228TIP3   OH255098   5.931   2.479  12.706  0.4894 -0.3331 -0.4991
11228TIP3    H155099   5.953   2.566  12.673  0.9481 -0.8339 -1.5290
11228TIP3    H255100   5.862   2.447  12.648  0.1564 -0.5793  0.0128
11229TIP3   OH255101   1.656   5.475   3.317  0.6240  0.7106 -0.1842
11229TIP3    H155102   1.694   5.549   3.366  0.6617 -0.0359  0.9710
11229TIP3    H255103   1.562   5.490   3.321  0.6883  1.4011 -1.1286
11230TIP3   OH255104   4.206   0.085  13.267 -0.3868 -0.1290 -0.0400
11230TIP3    H155105   4.279   0.079  13.328 -2.1595  0.3405  2.2367
11230TIP3    H255106   4.142   0.140  13.311 -2.6115 -1.4747 -1.4203
11231TIP3   OH255107   4.050   2.834  11.340  0.4595  0.4271  0.1006
11231TIP3    H155108   4.006   2.792  11.266  0.4443  1.5505 -0.5532
11231TIP3    H255109   3.981   2.881  11.386  0.4244 -0.4711  0.9969
11232TIP3   OH255110   5.881   5.927   1.230 -0.5822 -0.4277  0.7410
11232TIP3    H155111   5.796   5.972   1.229 -0.3598  0.1125 -1.8096
11232TIP3    H255112   5.858   5.834   1.234 -1.2371 -0.2575  1.1705
11233TIP3   OH255113   5.746   2.225   2.425 -0.0077  0.2920 -0.6327
11233TIP3    H155114   5.746   2.160   2.354 -0.6235  0.3355 -0.6742
11233TIP3    H255115   5.653   2.238   2.445  0.1780 -1.4334  1.7401
11234TIP3   OH255116   5.896   4.569  13.918 -0.2952 -0.2584  0.6223
11234TIP3    H155117   5.834   4.612  13.860  1.0850  1.9307  0.6745
11234TIP3    H255118   5.923   4.490  13.870  0.6682  1.3839 -1.7188
11235TIP3   OH255119   2.654   3.731   0.439  0.2203  0.3277 -0.0136
11235TIP3    H155120   2.734   3.684   0.413 -0.9822 -0.4405 -2.6162
11235TIP3    H255121   2.675   3.823   0.427  1.0215  0.1969  0.3187
11236TIP3   OH255122   2.360   5.890  13.816 -1.0088  0.4567  0.1103
11236TIP3    H155123   2.271   5.920  13.795 -1.6484  0.1620  2.2215
11236TIP3    H255124   2.367   5.898  13.911  1.6159  1.4722 -0.0801
11237TIP3   OH255125   5.829   1.039   6.138 -0.0852 -0.2008 -0.2789
11237TIP3    H155126   5.840   1.097   6.214  0.0316  0.2158 -0.6142
11237TIP3    H255127   5.861   1.090   6.064  0.6875 -0.9478 -0.4821
11238TIP3   OH255128   2.837   5.440  11.039  0.0450  0.5510 -0.3659
11238TIP3    H155129   2.780   5.376  10.998 -1.5331 -0.0935  2.5829
11238TIP3    H255130   2.873   5.491  10.966 -0.9998 -1.7173 -2.5855
11239TIP3   OH255131   1.032   1.516   6.450  0.3544  0.2931  0.0123
11239TIP3    H155132   1.091   1.592   6.451  0.1229  0.4838 -0.4922
11239TIP3    H255133   0.969   1.533   6.519  0.2883  0.5748 -0.1158
11240TIP3   OH255134   0.317   5.560   1.592  0.2977 -0.3743  0.5787
11240TIP3    H155135   0.363   5.532   1.672  1.4080 -1.4880 -0.4072
11240TIP3    H255136   0.335   5.491   1.529  1.0234  1.3716 -1.2246
11241TIP3   OH255137   5.193   4.743   5.315  0.0087  0.4644  0.5477
11241TIP3    H155138   5.160   4.803   5.248 -0.6818  1.9884  2.1839
11241TIP3    H255139   5.274   4.784   5.346  0.3136 -0.2163  0.6704
11242TIP3   OH255140   3.907   1.369   3.713  0.1603 -0.0946 -0.1779
11242TIP3    H155141   3.934   1.321   3.635 -0.0282  0.3137 -0.4997
11242TIP3    H255142   3.900   1.460   3.684 -0.9464 -0.0875  0.0365
11243TIP3   OH255143   0.854   3.802  12.683  0.6598  0.1352  0.2137
11243TIP3    H155144   0.883   3.770  12.768  0.1982  1.1127  0.7509
11243TIP3    H255145   0.858   3.725  12.626  1.6900 -0.3671  0.9223
11244TIP3   OH255146   5.091   1.190   1.420 -0.6030 -0.3701  0.7035
11244TIP3    H155147   5.053   1.171   1.506  0.6603 -0.5349  1.2555
11244TIP3    H255148   5.068   1.281   1.403 -0.7506 -0.2926  1.2923
11245TIP3   OH255149   1.017   2.551   1.188 -0.1598  0.0617 -0.1759
11245TIP3    H155150   1.019   2.478   1.125 -0.8468 -0.9031  0.8719
11245TIP3    H255151   0.930   2.589   1.176  0.6614  1.6093 -1.6485
11246TIP3   OH255152   5.817   5.354  12.511  0.1434  0.2862 -0.0688
11246TIP3    H155153   5.886   5.292  12.487  1.5731  1.5227  0.6878
11246TIP3    H255154   5.821   5.422  12.444  0.7219  1.1544  0.8255
11247TIP3   OH255155   2.113   1.843   1.397  0.2672 -0.8815 -0.0043
11247TIP3    H155156   2.113   1.918   1.337  0.6533 -0.0342  1.0424
11247TIP3    H255157   2.033   1.854   1.448 -0.2053 -1.7590 -0.5396
11248TIP3   OH255158   2.255   2.718   5.618  0.3296  0.2091 -0.4279
11248TIP3    H155159   2.344   2.681   5.621  0.5546  0.6902 -0.9729
11248TIP3    H255160   2.268   2.809   5.591 -0.3801  0.0977 -1.1738
11249TIP3   OH255161   0.909   5.079   0.119 -0.3643 -0.0096  0.5373
11249TIP3    H155162   0.995   5.121   0.123 -0.6167  0.6739 -0.4895
11249TIP3    H255163   0.916   5.015   0.048 -0.5968 -0.2062  0.6875
11250TIP3   OH255164   5.822   0.292   2.229 -0.1992  0.4293  0.2984
11250TIP3    H155165   5.905   0.262   2.266 -0.6374  0.2292  1.1406
11250TIP3    H255166   5.762   0.296   2.304 -0.5261  2.1026  0.0018
11251TIP3   OH255167   0.345   5.310  12.194 -0.7954  0.5151  0.1604
11251TIP3    H155168   0.259   5.318  12.235 -1.0944 -0.4991 -0.2424
11251TIP3    H255169   0.329   5.261  12.113  0.0884  0.7321 -0.1576
11252TIP3   OH255170   0.765   0.649   5.945  0.0927  0.1800  0.6055
11252TIP3    H155171   0.724   0.619   6.026 -0.3107 -0.3140  0.2289
11252TIP3    H255172   0.808   0.731   5.968  1.5628 -0.8752  1.7601
11253TIP3   OH255173   5.853   3.686  13.398  0.2844  0.0412 -0.6818
11253TIP3    H155174   5.879   3.678  13.490 -0.8503 -0.3664 -0.3810
11253TIP3    H255175   5.818   3.599  13.376 -2.6836  1.0973 -0.4522
11254TIP3   OH255176   4.678   1.549  14.821 -0.4344 -0.6459 -0.0181
11254TIP3    H155177   4.655   1.483  14.886  0.1143 -1.3590 -0.5245
11254TIP3    H255178   4.759   1.588  14.854 -0.4852 -0.5821  0.0303
11255TIP3   OH255179   2.189   1.158  11.224 -0.1585 -0.0130 -0.3121
11255TIP3    H155180   2.202   1.224  11.156 -1.2402 -0.3195 -0.8380
11255TIP3    H255181   2.264   1.099  11.216  1.4275  1.7234  0.8937
11256TIP3   OH255182   5.265   1.926  12.423  0.0194 -0.2585  0.2097
11256TIP3    H155183   5.222   1.842  12.407 -0.6689 -0.3161  2.0710
11256TIP3    H255184   5.350   1.904  12.460  0.8585 -0.1152 -1.5221
11257TIP3   OH255185   2.045   2.419  14.501 -0.2024  0.0078  0.4523
11257TIP3    H155186   1.956   2.441  14.475 -0.0573 -0.6356 -0.6606
11257TIP3    H255187   2.090   2.503  14.506 -0.1280  0.1633 -1.8780
11258TIP3   OH255188   1.861   4.203  16.041  0.0268 -0.4151 -0.2725
11258TIP3    H155189   1.930   4.172  15.982 -0.1364 -0.8714 -0.2241
11258TIP3    H255190   1.908   4.243  16.114  0.2317  0.0135 -0.6361
11259TIP3   OH255191   2.522   0.909   2.520 -0.0357 -0.2680 -0.2475
11259TIP3    H155192   2.462   0.881   2.589 -0.0074 -1.1263 -0.5564
11259TIP3    H255193   2.609   0.898   2.559 -0.0518  0.5706  0.0512
11260TIP3   OH255194   5.564   3.495  14.308 -0.7732  0.4236 -0.3252
11260TIP3    H155195   5.572   3.588  14.331 -0.4533  0.3499 -0.1323
11260TIP3    H255196   5.627   3.483  14.237 -1.3176  0.5112 -0.8269
11261TIP3   OH255197   2.229   1.998  12.788  0.2526 -0.3103  0.0984
11261TIP3    H155198   2.164   1.993  12.717  0.0259  1.3447  0.1484
11261TIP3    H255199   2.256   2.090  12.789  1.1051 -0.5509  1.4186
11262TIP3   OH255200   3.968   2.846  12.979  0.0780  0.2978 -0.5855
11262TIP3    H155201   3.961   2.824  12.886 -0.8655 -0.7272 -0.3047
11262TIP3    H255202   3.939   2.937  12.985 -1.0358  0.0055 -1.1720
11263TIP3   OH255203   2.631   0.900  12.942 -0.1812 -0.0363 -0.0903
11263TIP3    H155204   2.698   0.961  12.971 -0.3698  0.9796 -1.6963
11263TIP3    H255205   2.609   0.850  13.020 -0.3047  2.2053  1.4026
11264TIP3   OH255206   2.730   0.054   0.989 -0.0285  0.5893  0.1389
11264TIP3    H155207   2.715  -0.030   1.032  0.2991 -0.1416 -1.1349
11264TIP3    H255208   2.645   0.097   0.992 -0.5593 -0.3929 -0.4611
11265TIP3   OH255209   5.987   5.583  12.102 -0.1347 -0.3156 -0.0592
11265TIP3    H155210   6.077   5.580  12.072 -0.0428  0.2447  0.1506
11265TIP3    H255211   5.984   5.518  12.173  0.2198 -0.0141  0.2369
11266TIP3   OH255212   0.137   6.563  13.099 -0.2678 -0.5567 -0.2961
11266TIP3    H155213   0.076   6.526  13.036  1.7623  1.1754 -3.5452
11266TIP3    H255214   0.213   6.505  13.097 -0.5527 -1.0577  1.4487
11267TIP3   OH255215   1.191   5.485   3.930  0.8083 -0.5841 -0.1335
11267TIP3    H155216   1.101   5.476   3.960  0.8833 -1.8807 -0.2501
11267TIP3    H255217   1.244   5.456   4.004  1.3626  3.5457  1.3351
11268TIP3   OH255218   3.099   0.044   1.269  0.7151  0.1643 -0.2009
11268TIP3    H155219   3.079   0.136   1.288  2.2984  0.5353 -0.1599
11268TIP3    H255220   3.194   0.037   1.282  1.4435 -0.3769 -4.3366
11269TIP3   OH255221   4.408   0.485   0.357  0.0368  0.2046 -0.8176
11269TIP3    H155222   4.429   0.534   0.278  1.2991  1.3026  0.1500
11269TIP3    H255223   4.343   0.420   0.329  0.6435  0.3929 -2.7849
11270TIP3   OH255224   3.381   4.228   4.056 -0.1812 -0.4654  0.1661
11270TIP3    H155225   3.300   4.200   4.098 -0.2180 -0.8230 -0.1378
11270TIP3    H255226   3.383   4.181   3.973 -0.1477  0.3052 -0.2733
11271TIP3   OH255227   3.429   1.125  17.228 -0.2884 -0.8879  0.0096
11271TIP3    H155228   3.404   1.123  17.320 -1.9051 -0.2030 -0.3903
11271TIP3    H255229   3.404   1.212  17.198  0.1782 -1.1216 -1.1046
11272TIP3   OH255230   1.786   6.231  15.828 -0.0543 -0.0657  0.4409
11272TIP3    H155231   1.749   6.200  15.746 -1.7994  0.1295  1.1123
11272TIP3    H255232   1.767   6.325  15.828 -1.1652 -0.2678  1.5889
11273TIP3   OH255233   5.625   5.939  11.099  0.2272 -0.3229  0.0994
11273TIP3    H155234   5.713   5.953  11.065  0.8785  0.3727  1.9242
11273TIP3    H255235   5.568   5.984  11.037  1.4660  2.1940  0.6437
11274TIP3   OH255236   5.356   4.569  15.901 -0.3564 -0.6980 -0.1558
11274TIP3    H155237   5.285   4.624  15.868  0.7920  0.1932 -1.2713
11274TIP3    H255238   5.340   4.483  15.863 -0.0480 -0.1308 -1.6295
11275TIP3   OH255239   0.296   6.646  13.657  0.0075 -0.0264 -0.2151
11275TIP3    H155240   0.337   6.581  13.715  0.0674 -0.0346 -0.2669
11275TIP3    H255241   0.333   6.628  13.571  1.5953  1.3543  0.1241
11276TIP3   OH255242   6.029   1.637   1.200  0.2670  0.0398 -0.3404
11276TIP3    H155243   6.114   1.669   1.170 -0.2291  2.8199  0.9261
11276TIP3    H255244   6.019   1.673   1.289 -1.5748 -1.5329  0.1811
11277TIP3   OH255245   5.700   5.723   0.341  0.0468  0.3758  0.1617
11277TIP3    H155246   5.780   5.716   0.393 -1.3644 -0.8131  2.3362
11277TIP3    H255247   5.699   5.642   0.289  0.0066  0.1481  0.5151
11278TIP3   OH255248   1.848   6.109  11.537 -0.1879  0.7684 -0.0526
11278TIP3    H155249   1.941   6.092  11.526 -0.4164  0.6333 -2.2171
11278TIP3    H255250   1.805   6.027  11.510 -0.9601  1.2016 -0.1713
11279TIP3   OH255251   3.192   0.715   3.660  0.0649 -0.1182 -0.2107
11279TIP3    H155252   3.156   0.727   3.748 -0.0489  0.3691 -0.3180
11279TIP3    H255253   3.229   0.627   3.660 -0.4631 -0.3427  0.1401
11280TIP3   OH255254   1.789   6.262  15.279  0.2704  0.7703 -0.0933
11280TIP3    H155255   1.733   6.263  15.202 -0.8195  0.9564  0.6904
11280TIP3    H255256   1.804   6.169  15.297 -1.9876  0.5958  1.2342
11281TIP3   OH255257   3.375   0.916   5.565 -0.2171  0.5094  0.2888
11281TIP3    H155258   3.465   0.896   5.544 -1.3697 -3.1243 -2.0071
11281TIP3    H255259   3.343   0.840   5.614 -2.3886  1.0554 -0.1337
11282TIP3   OH255260   4.686   0.637  13.172  0.2673 -0.5423 -0.2621
11282TIP3    H155261   4.707   0.549  13.142  0.4169 -0.3716 -0.6561
11282TIP3    H255262   4.740   0.695  13.119  1.6150 -0.2995  1.3021
11283TIP3   OH255263   5.466   1.088   5.508  0.2381 -0.3663 -0.4995
11283TIP3    H155264   5.402   1.033   5.463 -0.1965  0.4451 -0.8823
11283TIP3    H255265   5.432   1.095   5.598  0.6100 -1.2016 -0.2827
11284TIP3   OH255266   2.310   5.307   1.298  0.3033 -0.3420 -0.5826
11284TIP3    H155267   2.377   5.256   1.343  0.6209  1.8036  1.5534
11284TIP3    H255268   2.228   5.281   1.340  0.0332 -1.3287 -1.6654
11285TIP3   OH255269   5.972   0.464   5.885  0.1458  0.5054 -0.0684
11285TIP3    H155270   5.987   0.375   5.916 -2.5807 -0.2841 -0.7541
11285TIP3    H255271   5.971   0.517   5.965 -1.7526 -0.6870  0.7693
11286TIP3   OH255272   5.010   1.201  14.545 -0.0466  0.4153 -0.5313
11286TIP3    H155273   4.936   1.140  14.552  0.9851 -0.8383 -0.1444
11286TIP3    H255274   4.996   1.263  14.617 -0.2346 -0.3893  0.1502
11287TIP3   OH255275   4.341   2.118   4.305 -0.0601 -0.3144 -0.3373
11287TIP3    H155276   4.365   2.073   4.386 -2.3765  0.0337  0.6224
11287TIP3    H255277   4.290   2.053   4.256 -2.7013  0.8447  0.6809
11288TIP3   OH255278   3.156   0.735  12.180  0.1503  0.3024  0.1622
11288TIP3    H155279   3.221   0.748  12.112  0.2185  0.1392  0.1959
11288TIP3    H255280   3.202   0.690  12.251  0.4372  1.7247  0.9115
11289TIP3   OH255281   4.520   4.886  16.756 -0.0263 -0.1633 -0.0209
11289TIP3    H155282   4.515   4.884  16.661  0.0581  0.9269 -0.0623
11289TIP3    H255283   4.597   4.834  16.778  0.3158  0.0930 -0.5894
11290TIP3   OH255284   5.025   3.986  14.247  0.0410 -0.2778  0.8708
11290TIP3    H155285   5.005   3.935  14.325  0.7263 -1.1821  0.4659
11290TIP3    H255286   4.958   3.961  14.183 -1.1891  1.2685  1.4793
11291TIP3   OH255287   0.561   1.267   0.531  0.1041 -0.7825 -0.1617
11291TIP3    H155288   0.548   1.184   0.484 -0.0171 -1.2570  0.7003
11291TIP3    H255289   0.564   1.333   0.461 -0.6201 -1.4088 -0.8136
11292TIP3   OH255290   3.087   0.860  14.506 -0.2072  0.2992  0.2346
11292TIP3    H155291   3.056   0.892  14.421  1.0652 -0.0476 -0.3768
11292TIP3    H255292   3.108   0.768  14.491  1.4646  0.6111  0.5005
11293TIP3   OH255293   0.941   6.153  10.441  0.2530 -0.2964 -0.0446
11293TIP3    H155294   1.005   6.195  10.383  1.5327 -0.6327  1.0517
11293TIP3    H255295   0.994   6.120  10.514 -0.9707 -1.9625  0.1586
11294TIP3   OH255296   2.036   4.107   0.242 -0.0143 -0.2011  0.0570
11294TIP3    H155297   2.080   4.084   0.324  0.7580 -1.5668 -0.7123
11294TIP3    H255298   2.012   4.023   0.203 -1.5539  0.4643 -0.5068
11295TIP3   OH255299   0.007   6.176   0.213 -0.2278  0.4626 -0.3237
11295TIP3    H155300   0.065   6.111   0.173  0.7802  1.9588 -1.4424
11295TIP3    H255301   0.053   6.259   0.200 -1.4168  1.3966  1.1390
11296TIP3   OH255302   1.835   2.608  15.543 -0.5913  0.1851 -0.4798
11296TIP3    H155303   1.909   2.591  15.485  1.1351  0.6685  1.4548
11296TIP3    H255304   1.834   2.534  15.603 -0.6257  0.9843  0.5217
11297TIP3   OH255305   4.411   4.455  17.152 -0.0881  0.2817 -0.0607
11297TIP3    H155306   4.417   4.399  17.230 -0.7897  0.3833  0.0669
11297TIP3    H255307   4.351   4.409  17.094 -1.6390  1.4777  0.5425
11298TIP3   OH255308   3.405   2.367   0.207 -0.5065 -0.0588 -0.3166
11298TIP3    H155309   3.388   2.461   0.212 -1.4899 -0.1559 -1.4153
11298TIP3    H255310   3.325   2.326   0.239  0.2175 -0.5345  0.9328
11299TIP3   OH255311   5.004   3.453  15.379 -0.4094  0.2155  0.7844
11299TIP3    H155312   4.934   3.439  15.316  0.2762 -2.0879  0.4688
11299TIP3    H255313   4.961   3.447  15.465 -0.9794  1.2670  0.5873
11300TIP3   OH255314   5.569   4.006   5.305 -0.3265  0.1410 -0.3346
11300TIP3    H155315   5.480   3.999   5.339 -0.1496  0.9645  0.3403
11300TIP3    H255316   5.562   3.977   5.214 -0.8127 -2.1615  0.3469
11301TIP3   OH255317   0.314   3.876  12.216  0.0174  0.5049  0.7748
11301TIP3    H155318   0.245   3.811  12.228  0.1374  0.3248  0.5190
11301TIP3    H255319   0.327   3.914  12.303 -1.8179  2.0093  0.4470
11302TIP3   OH255320   4.568   3.792  12.000  0.4929  0.1651 -0.1283
11302TIP3    H155321   4.580   3.861  12.066  0.9855  0.1089 -0.1619
11302TIP3    H255322   4.636   3.728  12.019 -1.1101 -1.2651  1.1061
11303TIP3   OH255323   1.618   4.939   2.666  0.2790  0.3228 -0.2561
11303TIP3    H155324   1.707   4.913   2.642 -0.0737  0.8730 -2.2998
11303TIP3    H255325   1.566   4.859   2.656  0.5147 -0.0253  1.0396
11304TIP3   OH255326   4.749   3.287  16.929 -0.1729 -0.1103 -0.2391
11304TIP3    H155327   4.666   3.292  16.882  0.6002  1.3371 -1.5757
11304TIP3    H255328   4.815   3.290  16.860  1.0127  2.1876  0.8761
11305TIP3   OH255329   4.834   3.649  16.772  0.4641  0.0617  0.5648
11305TIP3    H155330   4.923   3.639  16.805  0.0921 -2.0037  1.0854
11305TIP3    H255331   4.779   3.643  16.851 -0.1722  0.5130  0.1637
11306TIP3   OH255332   0.642   2.779   2.323 -0.5922 -0.3067  0.2069
11306TIP3    H155333   0.678   2.690   2.324 -0.7778 -0.4688 -1.9700
11306TIP3    H255334   0.558   2.771   2.368 -0.1939 -1.0082  0.8590
11307TIP3   OH255335   1.986   1.820  16.311  0.1942 -0.1538 -0.1384
11307TIP3    H155336   1.959   1.731  16.289 -1.0189  0.2516 -0.3392
11307TIP3    H255337   1.910   1.874  16.291  0.8990  0.9307  0.0262
11308TIP3   OH255338   5.409   4.984  12.751  0.4238 -0.6243  0.3499
11308TIP3    H155339   5.459   5.029  12.683  0.4725  0.7470  1.2447
11308TIP3    H255340   5.384   4.901  12.712 -2.1937  1.2781 -2.5234
11309TIP3   OH255341   2.528   1.160  17.150  0.3783 -0.2401  0.2212
11309TIP3    H155342   2.482   1.217  17.089 -0.2387 -0.5499  0.3896
11309TIP3    H255343   2.582   1.104  17.095 -0.4442 -0.7614 -0.0719
11310TIP3   OH255344   6.253   3.952  16.871 -0.0462  0.2770  0.3880
11310TIP3    H155345   6.253   3.902  16.952  0.3791  0.5014  0.5350
11310TIP3    H255346   6.177   4.010  16.878  0.6878  1.1836  1.2035
11311TIP3   OH255347   2.455   2.798  12.687 -0.4290  0.1727  0.3448
11311TIP3    H155348   2.477   2.857  12.614 -1.0837  1.0614  0.8429
11311TIP3    H255349   2.376   2.836  12.725  0.9286  0.8012  2.6939
11312TIP3   OH255350   2.501   3.252   3.365  0.5677 -0.2489 -0.1689
11312TIP3    H155351   2.568   3.252   3.433 -0.7219  0.6851  1.1891
11312TIP3    H255352   2.456   3.336   3.377 -1.4130 -1.2218 -0.4007
11313TIP3   OH255353   6.245   6.622   3.677 -0.7097 -0.5843  0.1540
11313TIP3    H155354   6.180   6.553   3.661 -1.2999  0.3837 -2.0543
11313TIP3    H255355   6.324   6.575   3.704 -1.6796 -1.9522  0.7156
11314TIP3   OH255356   5.762   1.157   3.393  0.1382 -0.1276  0.7374
11314TIP3    H155357   5.696   1.144   3.461  0.8952 -0.7587  1.3672
11314TIP3    H255358   5.844   1.172   3.441  0.3515  1.3452 -0.0180
11315TIP3   OH255359   2.195   5.797  15.583 -0.2105 -0.1470 -0.7233
11315TIP3    H155360   2.211   5.707  15.555 -0.1921 -0.0216 -1.1268
11315TIP3    H255361   2.213   5.850  15.505 -0.4656  0.1824 -0.5616
11316TIP3   OH255362   4.464   3.081  13.277  0.1909  0.0188  0.0573
11316TIP3    H155363   4.484   3.138  13.351 -0.5764  0.6715 -0.2299
11316TIP3    H255364   4.495   2.994  13.305  1.4531  0.5754  0.4530
11317TIP3   OH255365   0.711   0.975  13.274 -0.4095 -0.0200  0.5006
11317TIP3    H155366   0.759   0.947  13.195  0.9858  0.4756  1.1375
11317TIP3    H255367   0.731   0.908  13.339  0.8384  1.0626  1.2707
11318TIP3   OH255368   5.518   2.240  16.605 -0.4831 -0.2019  0.3098
11318TIP3    H155369   5.485   2.175  16.544 -0.2468 -2.4072  2.3632
11318TIP3    H255370   5.443   2.263  16.659 -0.3953  0.6872  0.0599
11319TIP3   OH255371   5.562   5.343   3.117  0.2376 -0.1656 -0.5795
11319TIP3    H155372   5.565   5.362   3.211  0.8956 -0.3298 -0.5661
11319TIP3    H255373   5.485   5.286   3.107  0.8080 -1.0699  0.0295
11320TIP3   OH255374   1.151   1.305   4.388  0.4132 -0.2790 -0.2035
11320TIP3    H155375   1.057   1.285   4.384  0.2266  0.3552  0.6680
11320TIP3    H255376   1.161   1.382   4.333  0.9220 -1.9464 -2.5590
11321TIP3   OH255377   2.341   1.567  12.303 -0.2551 -0.4898 -0.6823
11321TIP3    H155378   2.401   1.633  12.339 -1.7696  0.0834  0.9114
11321TIP3    H255379   2.384   1.484  12.321  0.4145 -0.0608 -0.2621
11322TIP3   OH255380   3.871   0.511  13.078  0.0990 -0.2342  0.2386
11322TIP3    H155381   3.836   0.538  12.993 -0.7475 -1.4911  0.1667
11322TIP3    H255382   3.909   0.591  13.115 -0.6445  0.6025 -0.7700
11323TIP3   OH255383   2.496   5.158   6.457 -0.1641 -0.4228 -0.2175
11323TIP3    H155384   2.422   5.204   6.496 -1.9966 -3.1659 -0.1966
11323TIP3    H255385   2.506   5.198   6.370 -0.1959  1.4317  0.5905
11324TIP3   OH255386   6.240   4.070   2.538 -0.7068 -0.5672  1.0804
11324TIP3    H155387   6.332   4.043   2.530  0.1031  2.5136 -2.9868
11324TIP3    H255388   6.190   3.995   2.506  0.5183 -1.5254  1.3305
11325TIP3   OH255389   6.533   6.071   1.435 -0.1911 -0.0998 -0.2163
11325TIP3    H155390   6.624   6.090   1.455 -0.8940  1.4747  1.8106
11325TIP3    H255391   6.509   6.001   1.496  0.4047 -2.8442 -2.8527
11326TIP3   OH255392   3.429   2.058   1.682  0.2173 -0.5194 -0.5505
11326TIP3    H155393   3.423   2.007   1.601 -0.6758 -2.3171  0.5726
11326TIP3    H255394   3.514   2.035   1.719  0.0647 -0.7488 -0.3360
11327TIP3   OH255395   5.525   5.429  14.813  0.1313  0.4938  0.5956
11327TIP3    H155396   5.598   5.374  14.783  1.3864  2.0866  0.6057
11327TIP3    H255397   5.475   5.373  14.872 -0.2922 -1.5547 -1.5464
11328TIP3   OH255398   4.281   1.434   1.781  0.0997 -0.1189 -0.0613
11328TIP3    H155399   4.362   1.471   1.817  1.8007 -0.3441 -3.3126
11328TIP3    H255400   4.211   1.479   1.829  2.1044  0.9727  2.0405
11329TIP3   OH255401   5.283   3.312   0.277  0.2893  0.1699 -0.2458
11329TIP3    H155402   5.318   3.235   0.231  0.7800  1.1192 -1.5133
11329TIP3    H255403   5.251   3.277   0.360  1.5869 -1.2098 -0.2771
11330TIP3   OH255404   5.786   0.210   3.964  0.3124  0.1012  0.2983
11330TIP3    H155405   5.877   0.215   3.993  1.0305  0.0829 -1.7913
11330TIP3    H255406   5.784   0.138   3.902 -1.4246 -0.6612  1.1633
11331TIP3   OH255407   2.082   4.366   6.050  0.1733  0.1702  0.2129
11331TIP3    H155408   2.177   4.362   6.060  0.1451 -0.8929  0.1392
11331TIP3    H255409   2.050   4.286   6.091 -0.6195  0.0498 -0.5985
11332TIP3   OH255410   5.815   3.713   5.661  0.0045  0.2962  0.1998
11332TIP3    H155411   5.749   3.668   5.714 -0.5822 -0.2090 -0.9193
11332TIP3    H255412   5.790   3.805   5.664 -1.0415  0.0583 -0.5708
11333TIP3   OH255413   5.306   1.630  15.045  0.3064 -0.1415  0.1440
11333TIP3    H155414   5.291   1.535  15.050  0.8220 -0.1772  1.1514
11333TIP3    H255415   5.396   1.638  15.016 -0.0693  0.0620 -1.0277
11334TIP3   OH255416   1.536   0.184   4.884 -0.0486 -0.0548  0.5975
11334TIP3    H155417   1.470   0.251   4.900  1.8633  1.7768  1.4644
11334TIP3    H255418   1.568   0.202   4.796 -0.7924 -1.0322  0.1186
11335TIP3   OH255419   2.517   0.232  17.093  0.4929 -0.7569 -0.2250
11335TIP3    H155420   2.576   0.208  17.022 -0.0997 -1.8970 -0.3668
11335TIP3    H255421   2.430   0.226  17.054  0.2114 -0.5261  0.3626
11336TIP3   OH255422   1.387   1.462   5.209  0.2117 -0.1165 -0.3395
11336TIP3    H155423   1.389   1.381   5.260 -0.2178 -0.7633 -1.3029
11336TIP3    H255424   1.304   1.504   5.233 -0.1506 -0.5877 -0.7465
11337TIP3   OH255425   5.337   0.002   4.934 -0.4099  0.3247  0.0884
11337TIP3    H155426   5.328   0.087   4.976 -2.5432  0.3827 -0.3884
11337TIP3    H255427   5.344   0.022   4.841  0.5121  0.0123  0.0761
11338TIP3   OH255428   5.909   0.456  16.436 -0.4879  0.7267  0.0458
11338TIP3    H155429   5.932   0.549  16.433 -1.2481  0.9414  0.3999
11338TIP3    H255430   5.818   0.456  16.466 -0.4966 -0.1343  0.0274
11339TIP3   OH255431   0.715   4.482   0.986 -0.0103  0.4453 -0.0013
11339TIP3    H155432   0.686   4.487   1.077  1.2899  0.6126  0.4193
11339TIP3    H255433   0.803   4.519   0.987  1.0099 -1.8059 -0.8706
11340TIP3   OH255434   3.852   1.028  16.700 -0.6582  0.1609  0.6387
11340TIP3    H155435   3.942   1.044  16.728 -0.1712 -0.2212 -0.6338
11340TIP3    H255436   3.808   1.112  16.713  1.1552  2.0221 -3.3281
11341TIP3   OH255437   3.779   0.348   0.989 -0.4485  0.2269  0.2477
11341TIP3    H155438   3.715   0.299   0.938 -0.8238  0.8818  0.0670
11341TIP3    H255439   3.861   0.302   0.977 -1.2895 -2.1150  2.4915
11342TIP3   OH255440   3.505   1.931   0.192 -0.2917  0.0491  0.0469
11342TIP3    H155441   3.582   1.904   0.242 -0.4971  1.2224  1.0259
11342TIP3    H255442   3.492   2.023   0.215 -0.6964  0.4942 -1.7999
11343TIP3   OH255443   0.146   5.612   0.365  0.0679 -0.0165 -0.2307
11343TIP3    H155444   0.237   5.593   0.341  0.1176  0.0887 -0.1302
11343TIP3    H255445   0.113   5.664   0.292  0.2928  0.5081  0.0359
11344TIP3   OH255446   3.005   6.351  16.669 -0.1070 -0.3357  0.7102
11344TIP3    H155447   3.082   6.321  16.717 -1.2486 -1.2592  2.0536
11344TIP3    H255448   3.011   6.446  16.670  1.2680 -0.4043  0.3338
11345TIP3   OH255449   2.233   0.098   3.786  0.1484 -0.3764 -0.1281
11345TIP3    H155450   2.146   0.133   3.762  0.1049 -0.4955 -0.1445
11345TIP3    H255451   2.290   0.175   3.786 -0.3503  0.0566  1.8729
11346TIP3   OH255452   2.445   1.203  14.739  0.4413  0.9304 -0.3635
11346TIP3    H155453   2.521   1.158  14.777  0.6959  0.5379 -1.3137
11346TIP3    H255454   2.481   1.256  14.668 -0.4622 -1.7374 -3.0150
11347TIP3   OH255455   4.190   2.470   6.001  0.3409  0.2304 -0.7037
11347TIP3    H155456   4.259   2.408   6.025  0.9106  0.9752 -0.4187
11347TIP3    H255457   4.161   2.507   6.084 -0.4747 -0.1378 -0.8111
11348TIP3   OH255458   0.614   1.530  11.336 -0.4930  0.0249  0.1278
11348TIP3    H155459   0.523   1.558  11.347 -0.3252  1.0713 -0.9700
11348TIP3    H255460   0.659   1.606  11.301  0.7126 -0.6363  0.1665
11349TIP3   OH255461   3.757   5.044   3.082  0.3481 -0.1940 -0.0630
11349TIP3    H155462   3.691   4.994   3.034 -0.2609 -0.1753  0.7362
11349TIP3    H255463   3.840   5.016   3.044 -0.0948 -0.4741 -0.8511
11350TIP3   OH255464   3.482   1.559   5.857  0.6443  0.7205 -0.3573
11350TIP3    H155465   3.452   1.610   5.932 -0.5661 -1.3426  0.6344
11350TIP3    H255466   3.416   1.490   5.846  1.2640  0.4051 -2.7612
11351TIP3   OH255467   3.628   2.563   1.528  0.4580  0.4003 -0.1388
11351TIP3    H155468   3.570   2.550   1.602  0.2977 -0.3995 -0.3936
11351TIP3    H255469   3.660   2.475   1.507 -1.6440  0.1500 -2.7628
11352TIP3   OH255470   2.050   2.117  11.460 -0.2949 -0.9304  0.5850
11352TIP3    H155471   2.085   2.111  11.371 -1.0916  0.6363  0.1335
11352TIP3    H255472   2.121   2.086  11.516  0.3435 -1.6219 -0.5535
11353TIP3   OH255473   1.868   3.674  14.111 -0.5285  0.5098 -0.1120
11353TIP3    H155474   1.841   3.682  14.203 -2.5244 -1.1411 -0.4827
11353TIP3    H255475   1.921   3.752  14.095  0.0220  0.7627  2.4776
11354TIP3   OH255476   4.039   1.662   2.429  0.4653 -0.3885  0.2232
11354TIP3    H155477   3.993   1.593   2.382  2.6418 -0.4448 -2.0234
11354TIP3    H255478   4.096   1.615   2.491 -0.9325 -0.3845  1.5711
11355TIP3   OH255479   2.986   2.846   3.128 -0.1525 -0.9293 -0.3279
11355TIP3    H155480   3.002   2.873   3.037  1.9647  0.1590  0.3130
11355TIP3    H255481   3.028   2.760   3.135  1.5258 -0.1083  0.1236
11356TIP3   OH255482   4.202   3.530   3.207 -0.5819 -0.5153  0.0086
11356TIP3    H155483   4.288   3.552   3.242 -1.1217 -2.0067  2.4950
11356TIP3    H255484   4.162   3.614   3.187  0.4851  0.3383  1.2842
11357TIP3   OH255485   6.518   5.445   4.074  0.1597  0.4902  0.0879
11357TIP3    H155486   6.524   5.535   4.107  0.6891  0.5398 -0.1356
11357TIP3    H255487   6.508   5.391   4.152  2.5086  0.4936  0.4645
11358TIP3   OH255488   6.227   6.428  15.498  0.1928  0.2652  0.1544
11358TIP3    H155489   6.270   6.514  15.499  0.0269  0.3468  0.8201
11358TIP3    H255490   6.265   6.381  15.573  0.5044 -0.3584 -0.3845
11359TIP3   OH255491   5.637   1.239  12.107 -0.6426  0.3773 -1.1757
11359TIP3    H155492   5.614   1.244  12.014  2.3410 -0.4842 -2.0667
11359TIP3    H255493   5.602   1.154  12.136 -0.0174 -0.1919 -2.0396
11360TIP3   OH255494   3.018   1.559   5.073  0.2845 -0.1319  0.0871
11360TIP3    H155495   3.004   1.479   5.022 -0.9238  0.2979 -0.2944
11360TIP3    H255496   3.010   1.532   5.164  0.7049 -0.5848 -0.0040
11361TIP3   OH255497   4.817   3.510   1.241  0.2281 -0.0961 -0.5081
11361TIP3    H155498   4.820   3.455   1.319 -1.2576 -1.2222 -1.2055
11361TIP3    H255499   4.905   3.547   1.234  1.0972 -1.8944  0.3495
11362TIP3   OH255500   6.243   2.220  11.907 -0.3399 -0.6298  0.1520
11362TIP3    H155501   6.159   2.257  11.935 -1.0383 -0.4095 -1.9879
11362TIP3    H255502   6.222   2.130  11.882  0.3036 -0.9226  0.6658
11363TIP3   OH255503   4.096   5.920  12.935  0.0747 -0.4926 -0.0416
11363TIP3    H155504   4.104   5.917  12.840 -0.0469 -0.1314 -0.0662
11363TIP3    H255505   4.163   5.982  12.963  0.3404 -0.8560  0.1405
11364TIP3   OH255506   6.564   1.317  15.827 -0.5579  0.0756 -0.4969
11364TIP3    H155507   6.533   1.395  15.780 -1.0486 -0.1284 -0.5254
11364TIP3    H255508   6.647   1.343  15.867 -0.4214  0.4300 -1.0033
11365TIP3   OH255509   0.418   5.996  12.576  0.0839 -0.3841 -0.2864
11365TIP3    H155510   0.346   5.947  12.616  0.2685 -0.3798  0.0545
11365TIP3    H255511   0.422   6.077  12.626 -0.3477  0.0742 -0.9754
11366TIP3   OH255512   4.078   5.001  17.130  0.3653 -0.7064  0.2318
11366TIP3    H155513   4.151   5.058  17.105 -0.2470  0.4475  1.0310
11366TIP3    H255514   4.074   5.007  17.225 -1.8791  0.6451  0.0958
11367TIP3   OH255515   3.128   0.880   0.422  0.4516  0.9249 -0.7710
11367TIP3    H155516   3.215   0.840   0.415 -0.4474 -1.2636 -0.1902
11367TIP3    H255517   3.133   0.956   0.364  3.0094  1.3879 -0.0847
11368TIP3   OH255518   1.905   6.631   5.828  0.9640 -0.8458  0.1120
11368TIP3    H155519   1.966   6.583   5.772  2.6351 -0.3308  1.4157
11368TIP3    H255520   1.947   6.632   5.914  0.3031  1.6696  0.4842
11369TIP3   OH255521   5.808   3.106   2.824 -0.1631 -0.1569  0.3587
11369TIP3    H155522   5.723   3.127   2.785 -0.7795 -1.0375  1.1931
11369TIP3    H255523   5.838   3.029   2.776  0.5912  0.6486 -0.5145
11370TIP3   OH255524   2.705   3.035   1.880 -0.4757 -0.0439  0.4233
11370TIP3    H155525   2.701   3.036   1.785  1.1611 -0.8696  0.3142
11370TIP3    H255526   2.697   2.943   1.904 -0.7595  0.1441  1.0831
11371TIP3   OH255527   6.629   0.768  14.428 -0.6134 -0.0473 -0.0530
11371TIP3    H155528   6.555   0.719  14.464 -0.9803  0.9950  0.6334
11371TIP3    H255529   6.660   0.822  14.500 -0.2862  0.8209 -0.8251
11372TIP3   OH255530   1.461   3.380  12.700 -0.1075  0.7394 -0.4687
11372TIP3    H155531   1.459   3.287  12.679 -0.7740  0.7931 -0.6499
11372TIP3    H255532   1.545   3.392  12.746 -0.2995 -0.0668  0.1203
11373TIP3   OH255533   6.496   1.694   5.443 -0.3568 -0.1184 -0.6521
11373TIP3    H155534   6.504   1.778   5.488  2.1472 -1.2404  1.2084
11373TIP3    H255535   6.463   1.717   5.356 -0.9470  2.6309  0.2065
11374TIP3   OH255536   0.415   0.702   2.132 -0.1430 -0.1060  0.3524
11374TIP3    H155537   0.337   0.724   2.182  0.0675 -0.0172  0.6481
11374TIP3    H255538   0.382   0.662   2.052 -0.4925  0.0238  0.4294
11375TIP3   OH255539   4.065   1.519   5.821  0.2019 -0.2157 -0.5215
11375TIP3    H155540   4.067   1.578   5.746 -1.7904 -2.0138 -2.1145
11375TIP3    H255541   4.051   1.577   5.896 -2.5177  1.3817 -2.0756
11376TIP3   OH255542   3.284   4.154   1.446  0.1425 -0.3285  0.0099
11376TIP3    H155543   3.282   4.144   1.351  2.1836  0.3134 -0.1441
11376TIP3    H255544   3.328   4.076   1.478 -2.2289 -1.4931  0.6664
11377TIP3   OH255545   5.353   4.739   1.250 -0.0297  0.1507 -0.3395
11377TIP3    H155546   5.269   4.735   1.204 -0.2644  2.9674 -0.3307
11377TIP3    H255547   5.339   4.686   1.329 -0.6543 -2.1347 -1.9042
11378TIP3   OH255548   3.162   6.756  17.233 -0.4565 -0.4179  0.1317
11378TIP3    H155549   3.080   6.805  17.230 -0.2473 -0.1023 -1.4691
11378TIP3    H255550   3.146   6.685  17.295 -1.2373  0.8285  1.4175
11379TIP3   OH255551   0.475   3.763  10.976 -0.4926  0.7894  0.6389
11379TIP3    H155552   0.527   3.843  10.961  0.3054  0.1744  0.0152
11379TIP3    H255553   0.532   3.709  11.032  1.1352 -1.3429 -2.7743
11380TIP3   OH255554   4.951   3.690   4.463 -0.2987 -0.2611  0.1866
11380TIP3    H155555   4.971   3.772   4.509  0.7449  0.0185 -0.7101
11380TIP3    H255556   5.013   3.689   4.390 -1.7335 -0.8141 -1.0602
11381TIP3   OH255557   0.849   3.224   4.165  0.4133 -0.6618  0.2959
11381TIP3    H155558   0.879   3.246   4.254  1.6582 -0.0295 -0.2568
11381TIP3    H255559   0.851   3.128   4.163  0.7927 -0.6732  0.8268
11382TIP3   OH255560   5.932   4.164   4.077 -0.8304  0.0307 -0.6354
11382TIP3    H155561   5.967   4.201   3.995 -2.1070  1.1748 -0.6934
11382TIP3    H255562   6.007   4.119   4.116  0.5398  1.8133 -1.0853
11383TIP3   OH255563   3.058   0.183   4.205 -0.0417  0.1243 -0.4732
11383TIP3    H155564   3.124   0.232   4.254 -1.2050  1.7858 -0.4782
11383TIP3    H255565   3.057   0.224   4.119 -0.9778  0.0458 -0.5091
11384TIP3   OH255566   5.108   4.233  12.518 -0.9521 -0.1531  0.1792
11384TIP3    H155567   5.099   4.186  12.601 -0.3567 -1.7557 -0.6294
11384TIP3    H255568   5.030   4.287  12.512 -1.6010 -0.9503  1.2154
11385TIP3   OH255569   2.757   5.114   1.700  0.9163 -0.0708  0.0402
11385TIP3    H155570   2.758   5.209   1.705  0.7757 -0.0751  0.1366
11385TIP3    H255571   2.788   5.095   1.611  0.7588  0.0693 -0.0449
11386TIP3   OH255572   3.082   6.332   5.798 -0.1493 -0.6064  0.5821
11386TIP3    H155573   3.088   6.247   5.754  0.1700 -1.1187  1.5866
11386TIP3    H255574   3.042   6.312   5.883 -0.7212  0.3560  0.5531
11387TIP3   OH255575   1.737   1.185  13.699 -0.1505  1.0181 -0.1593
11387TIP3    H155576   1.648   1.173  13.731 -0.2443  0.1380 -0.7160
11387TIP3    H255577   1.792   1.142  13.765 -0.2974 -0.2251 -0.8203
11388TIP3   OH255578   5.343   1.451  13.534  0.3210 -0.6831 -0.5102
11388TIP3    H155579   5.337   1.363  13.497  0.0289 -0.6488 -0.5507
11388TIP3    H255580   5.253   1.485  13.530  0.4617 -0.3161 -0.6620
11389TIP3   OH255581   4.925   5.653  13.485 -0.2497  0.2325  0.7363
11389TIP3    H155582   4.928   5.683  13.576 -0.9928  0.3242  0.7323
11389TIP3    H255583   4.850   5.698  13.447 -0.9553 -1.0747  0.5327
11390TIP3   OH255584   4.114   4.392  14.331  0.4207  0.0925 -0.2589
11390TIP3    H155585   4.201   4.432  14.343  1.2920 -1.8073  0.1443
11390TIP3    H255586   4.060   4.431  14.400  0.8006  1.6172 -0.7711
11391TIP3   OH255587   5.897   6.196  12.325  0.1200  0.1857  0.1631
11391TIP3    H155588   5.911   6.159  12.237  1.8357  1.1387 -0.0106
11391TIP3    H255589   5.805   6.222  12.325 -0.2905 -1.1384 -0.8349
11392TIP3   OH255590   3.524   6.682  13.665  0.0383  0.2335  0.3412
11392TIP3    H155591   3.464   6.688  13.591  1.0500  1.1382 -0.4363
11392TIP3    H255592   3.517   6.592  13.695 -0.7485 -0.0096 -0.5464
11393TIP3   OH255593   5.935   2.704   6.149 -0.0187  0.3365 -0.2655
11393TIP3    H155594   5.852   2.673   6.113 -0.0934  0.7015 -0.4127
11393TIP3    H255595   5.914   2.729   6.239  0.6203 -2.6086  0.8018
11394TIP3   OH255596   0.151   6.418  11.852  0.3547  0.0563 -0.3222
11394TIP3    H155597   0.121   6.458  11.934  1.9703 -0.0402  0.3686
11394TIP3    H255598   0.174   6.492  11.796  0.6547  0.1214 -0.1173
11395TIP3   OH255599   0.438   3.942   4.666 -0.2411  0.4275 -0.4859
11395TIP3    H155600   0.427   3.957   4.572  1.6565  1.3175 -0.6123
11395TIP3    H255601   0.532   3.929   4.678 -0.1388  2.3951  1.5409
11396TIP3   OH255602   1.092   6.221  13.325 -0.4461  0.1077 -0.1793
11396TIP3    H155603   1.050   6.305  13.339  2.9868  1.9445  0.0064
11396TIP3    H255604   1.068   6.198  13.235 -2.2198  0.7380  0.0918
11397TIP3   OH255605   2.797   4.532   1.873  0.5276  0.1539 -0.3451
11397TIP3    H155606   2.880   4.497   1.906  0.0568  1.4660  2.4462
11397TIP3    H255607   2.730   4.482   1.919 -0.2121  0.6323 -0.8938
11398TIP3   OH255608   3.474   6.247   2.006 -0.3680  0.4545 -0.0274
11398TIP3    H155609   3.567   6.270   2.016 -0.4339  0.5909  0.2858
11398TIP3    H255610   3.439   6.313   1.946 -0.2968  0.4875 -0.0330
11399TIP3   OH255611   6.070   3.755  12.189 -0.6727 -0.3942 -0.1576
11399TIP3    H155612   6.152   3.738  12.142  1.1881  1.7932  2.0512
11399TIP3    H255613   6.051   3.673  12.235  1.3075 -0.3942  0.7266
11400TIP3   OH255614   4.297   6.746  13.979  0.4715 -0.3680 -0.4746
11400TIP3    H155615   4.371   6.686  13.982  1.0785  0.4212  0.8817
11400TIP3    H255616   4.333   6.831  14.002 -0.8311  0.0620  0.0782
11401TIP3   OH255617   0.915   2.097  11.912 -0.0452  0.0632 -0.2481
11401TIP3    H155618   0.856   2.131  11.845  1.9691  1.1970 -1.5246
11401TIP3    H255619   1.002   2.101  11.873  0.8602 -2.3599  1.2376
11402TIP3   OH255620   5.146   1.105  12.562 -0.3148 -0.1233  0.2230
11402TIP3    H155621   5.149   1.182  12.619 -0.0961  1.1319 -1.4239
11402TIP3    H255622   5.156   1.140  12.474  1.5309 -2.1863 -0.4780
11403TIP3   OH255623   0.898   6.443  15.583 -0.0768  0.0102 -0.1838
11403TIP3    H155624   0.914   6.369  15.524  2.4108  0.0746  0.2910
11403TIP3    H255625   0.948   6.515  15.543  2.4316 -0.1661  2.3254
11404TIP3   OH255626   1.794   0.827   1.144  0.0913 -0.0058 -0.2726
11404TIP3    H155627   1.883   0.849   1.116  1.1357 -1.8698  1.2957
11404TIP3    H255628   1.806   0.753   1.203 -2.3536  0.8827  1.4721
11405TIP3   OH255629   5.311   4.228  15.530  1.2586  0.2148  0.9552
11405TIP3    H155630   5.369   4.155  15.550  2.7932  1.1672  0.1644
11405TIP3    H255631   5.364   4.288  15.477 -0.4971  1.0517  0.0389
11406TIP3   OH255632   3.418   0.719   0.398 -0.3361  0.1628  0.0468
11406TIP3    H155633   3.476   0.707   0.474 -0.4053  1.3068  0.2953
11406TIP3    H255634   3.477   0.721   0.323 -0.3352 -1.9552 -0.0820
11407TIP3   OH255635   5.958   0.769  14.156 -0.2708 -0.5038 -0.1954
11407TIP3    H155636   5.922   0.814  14.080  0.6846 -1.2541 -1.1358
11407TIP3    H255637   5.952   0.676  14.133  0.6544 -0.7068  0.3381
11408TIP3   OH255638   5.297   5.713  15.557  0.3272  0.1882 -0.1905
11408TIP3    H155639   5.384   5.692  15.522 -0.9991 -0.4557 -3.3725
11408TIP3    H255640   5.293   5.665  15.640  2.3441 -1.1981 -0.8048
11409TIP3   OH255641   4.630   0.869   1.237  0.0193  0.0409 -0.0852
11409TIP3    H155642   4.554   0.873   1.295 -0.4440  2.3587 -0.7439
11409TIP3    H255643   4.603   0.810   1.166 -0.1311 -1.2521  1.0058
11410TIP3   OH255644   0.667   1.449   4.462 -0.2371 -0.0178  0.1972
11410TIP3    H155645   0.595   1.452   4.525 -0.5126 -0.5756 -0.0875
11410TIP3    H255646   0.746   1.459   4.516 -0.5213  0.7920  0.4923
11411TIP3   OH255647   5.716   2.765   2.337  0.0237 -0.0391  0.1454
11411TIP3    H155648   5.629   2.795   2.313 -0.1049 -1.0148 -0.6826
11411TIP3    H255649   5.776   2.816   2.283  0.0483  1.3012  1.3872
11412TIP3   OH255650   0.387   4.461   6.455 -0.3793 -0.0570 -0.0404
11412TIP3    H155651   0.413   4.539   6.504 -2.5361 -0.3610  1.7293
11412TIP3    H255652   0.307   4.430   6.498 -1.9064 -0.9236 -3.1822
11413TIP3   OH255653   4.600   3.965   2.530  0.3256  0.4171  0.1349
11413TIP3    H155654   4.523   4.021   2.535 -0.1601 -0.0529 -1.5327
11413TIP3    H255655   4.583   3.907   2.456  2.3196  0.3652 -0.3271
11414TIP3   OH255656   5.081   5.429   0.256 -0.0640 -0.3286 -0.2049
11414TIP3    H155657   5.003   5.483   0.267 -0.0706 -0.5375  0.9128
11414TIP3    H255658   5.148   5.472   0.310  0.4890 -0.3674 -0.8436
11415TIP3   OH255659   1.639   4.260  16.303 -0.3616  0.2095 -0.0365
11415TIP3    H155660   1.729   4.229  16.287 -0.1411  1.1760 -0.7442
11415TIP3    H255661   1.596   4.253  16.218 -1.3296 -1.3580  0.5515
11416TIP3   OH255662   4.946   3.566   1.889 -0.4008 -0.2304  0.1076
11416TIP3    H155663   4.913   3.488   1.933  0.5307 -2.1773 -2.4196
11416TIP3    H255664   4.874   3.593   1.832  0.0225 -0.5424 -0.5813
11417TIP3   OH255665   1.451   3.505  13.904 -0.6051 -0.3814  0.2068
11417TIP3    H155666   1.411   3.561  13.838  0.5705  1.6178  1.0869
11417TIP3    H255667   1.412   3.419  13.890 -0.1012 -0.1532 -3.3227
11418TIP3   OH255668   0.092   2.164  12.202  0.2305 -0.8087 -0.1384
11418TIP3    H155669   0.061   2.241  12.250  1.4660 -0.0676 -0.4880
11418TIP3    H255670   0.058   2.090  12.252 -0.2304 -0.0413  0.7217
11419TIP3   OH255671   1.959   3.723  16.651 -0.6238 -0.0789 -0.4228
11419TIP3    H155672   1.921   3.806  16.623 -1.1009 -0.2692 -0.3548
11419TIP3    H255673   2.045   3.746  16.685 -1.5126  0.7137  1.4910
11420TIP3   OH255674   4.994   6.129  15.259  0.5860  0.0449 -0.2888
11420TIP3    H155675   5.049   6.070  15.208  0.7457  0.6907 -0.8757
11420TIP3    H255676   4.922   6.074  15.290 -0.5291 -0.0187 -2.7591
11421TIP3   OH255677   2.435   4.631  13.951  0.1974  0.2689 -0.3353
11421TIP3    H155678   2.525   4.606  13.970 -0.1396 -0.5744  0.1911
11421TIP3    H255679   2.442   4.693  13.878  1.1221 -0.5968 -0.9996
11422TIP3   OH255680   3.928   5.745  15.916  0.2813  0.2813  0.0349
11422TIP3    H155681   3.888   5.718  15.834 -0.4622 -0.0022  0.4822
11422TIP3    H255682   3.854   5.760  15.976  0.8523 -1.4270  1.2431
11423TIP3   OH255683   1.688   4.731   3.878  0.5336 -0.4692  0.2242
11423TIP3    H155684   1.754   4.765   3.818 -1.0327  0.0645 -1.3054
11423TIP3    H255685   1.681   4.638   3.856  1.9999 -0.9453  1.6378
11424TIP3   OH255686   3.094   5.874   3.165 -0.1822 -0.3561  0.4407
11424TIP3    H155687   3.080   5.960   3.126 -3.6499 -1.2903 -0.7236
11424TIP3    H255688   3.097   5.890   3.259 -0.1161  1.0799  0.2118
11425TIP3   OH255689   6.339   5.077   2.446 -0.7646  0.2635  0.0681
11425TIP3    H155690   6.389   5.043   2.372  0.8874  0.4495  1.0283
11425TIP3    H255691   6.360   5.171   2.448  0.4737  0.0025  1.6340
11426TIP3   OH255692   2.786   1.672   5.530 -0.2317  0.3632  0.2494
11426TIP3    H155693   2.746   1.638   5.610 -0.7116 -2.1973 -0.9819
11426TIP3    H255694   2.880   1.666   5.547 -0.3079 -1.1252  0.3155
11427TIP3   OH255695   0.467   4.598   5.047 -0.0650 -0.1389 -0.3363
11427TIP3    H155696   0.532   4.534   5.076 -0.4910 -0.1760  0.5538
11427TIP3    H255697   0.513   4.682   5.050  0.6638 -0.4360 -2.0263
11428TIP3   OH255698   0.236   0.671   4.382 -0.5112 -0.8682  0.1983
11428TIP3    H155699   0.257   0.622   4.303 -0.3078  0.4229 -0.5744
11428TIP3    H255700   0.170   0.617   4.427 -1.8541 -0.8753 -1.6637
11429TIP3   OH255701   4.870   1.273  13.951 -0.4459 -0.1075 -0.1065
11429TIP3    H155702   4.818   1.265  13.871 -1.0593  0.8900  0.1683
11429TIP3    H255703   4.810   1.248  14.021  0.3269 -1.7560  0.0022
11430TIP3   OH255704   5.242   6.534  14.588 -0.2902  0.1969  0.4563
11430TIP3    H155705   5.148   6.519  14.577  0.1187 -2.5271  0.0003
11430TIP3    H255706   5.250   6.581  14.672 -2.0096  0.2021  0.6406
11431TIP3   OH255707   2.462   0.536   1.568  0.3747 -0.2472  0.5224
11431TIP3    H155708   2.521   0.612   1.570 -1.7670  1.5245  2.7747
11431TIP3    H255709   2.388   0.565   1.513 -0.3072 -0.8213  1.1242
11432TIP3   OH255710   6.586   2.007  17.317 -0.0306  0.1886 -0.0786
11432TIP3    H155711   6.574   2.065  17.392  0.8611  0.1365  0.1107
11432TIP3    H255712   6.540   1.926  17.341  0.6894 -0.0211  0.6375
11433TIP3   OH255713   0.761   4.063  16.307  0.5354 -0.1923  0.7162
11433TIP3    H155714   0.808   4.005  16.247  2.1640 -1.2053  2.8009
11433TIP3    H255715   0.808   4.146  16.302  1.2706 -0.5595  1.2158
11434TIP3   OH255716   1.449   6.517   3.306 -0.1517  0.0597  0.2820
11434TIP3    H155717   1.529   6.570   3.307 -1.4078  2.0905  1.5613
11434TIP3    H255718   1.406   6.541   3.225 -0.2092  0.1926  0.3510
11435TIP3   OH255719   2.732   5.876  15.974  0.4361 -0.0973  0.1656
11435TIP3    H155720   2.728   5.781  15.976  1.0186 -0.2319 -1.9735
11435TIP3    H255721   2.650   5.903  15.930  1.0900  0.2211 -0.9122
11436TIP3   OH255722   3.196   2.016  15.266 -0.5599  0.0542  0.1595
11436TIP3    H155723   3.273   1.965  15.240 -1.1466 -1.1558  0.7245
11436TIP3    H255724   3.135   1.951  15.300 -1.8325  0.9998 -0.2493
11437TIP3   OH255725   2.476   4.290  12.042 -0.2338  0.2961  0.3940
11437TIP3    H155726   2.446   4.212  12.088 -0.3167  0.5453  0.7692
11437TIP3    H255727   2.405   4.312  11.982  0.8287 -1.4050 -1.6163
11438TIP3   OH255728   2.726   6.631  17.305  0.4531 -0.6513  0.1017
11438TIP3    H155729   2.659   6.647  17.239 -1.1664  0.5677  1.9071
11438TIP3    H255730   2.715   6.540  17.330  0.2944 -0.7958 -0.4904
11439TIP3   OH255731   3.412   5.880  14.505 -0.0364  0.2695 -0.3961
11439TIP3    H155732   3.471   5.886  14.430  1.2046  1.0502  0.5937
11439TIP3    H255733   3.432   5.796  14.546 -0.6408 -0.1106 -0.8799
11440TIP3   OH255734   0.886   6.121  15.090  0.5310  0.0941  0.3858
11440TIP3    H155735   0.819   6.150  15.152 -0.1974  0.3606 -0.4914
11440TIP3    H255736   0.967   6.118  15.141 -0.0399  0.3255  1.3326
11441TIP3   OH255737   4.861   6.641  14.447  0.0930 -0.3352  0.0671
11441TIP3    H155738   4.867   6.710  14.381 -1.9701  1.1616  1.3010
11441TIP3    H255739   4.776   6.656  14.488 -0.3472 -3.5520  0.5357
11442TIP3   OH255740   2.591   4.056   3.980  0.3419  0.1697 -0.4508
11442TIP3    H155741   2.512   4.004   3.960 -0.4186  0.5240  1.3930
11442TIP3    H255742   2.662   4.007   3.939 -0.8290 -0.0782 -2.3242
11443TIP3   OH255743   0.269   3.420  11.456  0.6224  0.0670  0.1066
11443TIP3    H155744   0.301   3.360  11.524  1.3611  0.5112  0.1607
11443TIP3    H255745   0.174   3.425  11.472  0.9098  0.9840  1.7939
11444TIP3   OH255746   2.361   4.889   3.409 -0.1372 -0.3953  0.4262
11444TIP3    H155747   2.351   4.981   3.384  0.9265 -0.3529  0.1041
11444TIP3    H255748   2.450   4.867   3.383  0.0043 -1.1990  1.5436
11445TIP3   OH255749   0.292   3.044   5.043 -0.1944 -0.2624 -0.0869
11445TIP3    H155750   0.360   3.104   5.072  1.6647 -2.1817 -0.2090
11445TIP3    H255751   0.222   3.055   5.108  0.1452  1.8292 -0.0069
11446TIP3   OH255752   3.132   5.424  14.728 -0.3239 -0.4401  0.5061
11446TIP3    H155753   3.146   5.507  14.683  0.1937 -1.0178 -0.4448
11446TIP3    H255754   3.218   5.402  14.765 -0.6291 -0.2112  1.3860
11447TIP3   OH255755   0.889   2.221   6.591 -0.2269 -0.7384  0.6875
11447TIP3    H155756   0.918   2.186   6.507 -1.5037 -1.0819  0.3739
11447TIP3    H255757   0.809   2.268   6.571 -0.2290 -0.3249  1.6286
11448TIP3   OH255758   1.511   2.818  14.868 -0.2858  0.2160 -0.4406
11448TIP3    H155759   1.496   2.800  14.775 -1.1596 -0.9670 -0.1056
11448TIP3    H255760   1.492   2.735  14.911 -0.5006  0.9153  0.8570
11449TIP3   OH255761   6.635   0.586  13.468 -0.3271 -0.4149  0.1286
11449TIP3    H155762   6.584   0.634  13.402 -0.5155 -0.7780  0.0100
11449TIP3    H255763   6.672   0.512  13.421 -1.9123 -1.6825  0.7985
11450TIP3   OH255764   3.107   3.136   4.276 -0.3223 -0.9974  0.2713
11450TIP3    H155765   3.104   3.079   4.353 -2.9125  0.4736  1.3665
11450TIP3    H255766   3.100   3.224   4.311  0.2043 -0.1661 -1.5957
11451TIP3   OH255767   0.064   2.093  15.038 -0.0713 -0.3886  0.8536
11451TIP3    H155768   0.089   2.114  14.948 -0.0843  1.2148  1.2024
11451TIP3    H255769   0.146   2.070  15.081  0.1964  0.5993  0.8819
11452TIP3   OH255770   2.591   6.661   3.375 -0.0861  0.0267 -0.0898
11452TIP3    H155771   2.534   6.730   3.409 -1.1820 -0.1234 -1.5334
11452TIP3    H255772   2.547   6.631   3.295  1.0210 -1.4709 -0.1698
11453TIP3   OH255773   2.450   2.813  13.464  0.2386 -0.2968  0.5163
11453TIP3    H155774   2.417   2.881  13.406 -0.4001 -0.3177  0.8510
11453TIP3    H255775   2.405   2.734  13.437  2.0591 -0.9275 -0.8472
11454TIP3   OH255776   1.299   0.328   1.691 -0.2289  0.0066 -0.5116
11454TIP3    H155777   1.225   0.349   1.749 -0.4740 -0.1714 -0.7543
11454TIP3    H255778   1.341   0.252   1.732  0.0124  0.3035 -0.2041
11455TIP3   OH255779   5.721   0.866  11.034  0.5782  0.0014  0.3331
11455TIP3    H155780   5.689   0.956  11.039 -1.8061 -0.8143  1.6112
11455TIP3    H255781   5.786   0.867  10.964  0.1240  2.5517 -0.1486
11456TIP3   OH255782   0.542   4.636   2.616  0.3051  0.1082  0.2503
11456TIP3    H155783   0.548   4.568   2.550  1.7007 -0.4361  0.9227
11456TIP3    H255784   0.516   4.591   2.696 -0.5318  0.6409  0.3000
11457TIP3   OH255785   2.100   2.943  13.155 -0.0692 -0.0760  0.2882
11457TIP3    H155786   2.022   2.957  13.208 -1.4270 -1.4563 -1.2362
11457TIP3    H255787   2.087   2.998  13.078  1.3762  1.0946  0.8247
11458TIP3   OH255788   6.561   0.961  16.093 -0.1473 -1.0322 -0.5627
11458TIP3    H155789   6.579   0.887  16.150  0.0443 -0.2970  0.3590
11458TIP3    H255790   6.643   1.011  16.092 -0.0139 -1.2337 -1.8153
11459TIP3   OH255791   3.540   5.414  12.697  0.7330 -1.0287 -0.3446
11459TIP3    H155792   3.564   5.351  12.629 -2.7689 -0.8899 -1.9195
11459TIP3    H255793   3.490   5.481  12.651 -1.8351 -0.9329  2.3340
11460TIP3   OH255794   5.002   5.877   3.649 -0.0243  0.0119  0.0317
11460TIP3    H155795   5.028   5.969   3.644 -0.4432  0.0784 -1.4105
11460TIP3    H255796   5.022   5.851   3.739 -0.8013  1.7715  0.7586
11461TIP3   OH255797   0.964   4.303  15.503  0.4573  0.4687  0.3530
11461TIP3    H155798   0.966   4.240  15.575 -2.2835  1.1428  1.1332
11461TIP3    H255799   0.900   4.268  15.442  1.5449  0.7471 -1.0125
11462TIP3   OH255800   4.868   0.079  17.203  0.2513 -0.5289 -0.2158
11462TIP3    H155801   4.810   0.015  17.245  0.5196 -0.1915  0.6872
11462TIP3    H255802   4.897   0.035  17.123 -0.5475 -1.0480 -0.2391
11463TIP3   OH255803   4.841   0.732  11.822  0.1203 -0.1182 -0.0420
11463TIP3    H155804   4.869   0.812  11.866 -0.7321  0.0032  0.2848
11463TIP3    H255805   4.747   0.726  11.840  0.2050 -1.2745  0.0808
11464TIP3   OH255806   6.564   3.828   4.511 -0.0898 -0.4380  0.3743
11464TIP3    H155807   6.554   3.736   4.489  0.5819 -0.0349 -1.9451
11464TIP3    H255808   6.659   3.842   4.514 -0.1147  0.5844 -1.5986
11465TIP3   OH255809   3.607   0.751  13.904 -0.0400  0.1641 -0.1016
11465TIP3    H155810   3.674   0.742  13.836  0.8595  2.4974  0.3836
11465TIP3    H255811   3.593   0.662  13.936  0.5349 -0.7907 -2.3490
11466TIP3   OH255812   3.551   0.235   1.138  0.1809  0.2606  0.1464
11466TIP3    H155813   3.613   0.245   1.210 -0.2859  1.2024  0.4299
11466TIP3    H255814   3.602   0.256   1.060 -0.0614  2.2122  0.4829
11467TIP3   OH255815   3.026   1.261  17.349 -0.3849 -0.8882 -0.0363
11467TIP3    H155816   2.930   1.266  17.345 -0.4415 -0.8433  1.1229
11467TIP3    H255817   3.046   1.170  17.326 -0.6166 -0.6331 -1.3502
11468TIP3   OH255818   5.593   4.243  14.544  0.2696  0.4654  0.0295
11468TIP3    H155819   5.650   4.303  14.592  0.6609 -0.5974  0.9212
11468TIP3    H255820   5.631   4.156  14.558  0.2636  0.0760 -2.0118
11469TIP3   OH255821   4.099   6.412  15.440 -0.8940 -0.5472  0.0037
11469TIP3    H155822   4.118   6.452  15.355 -1.4120  0.4517  0.3420
11469TIP3    H255823   4.175   6.356  15.457  0.5092  1.2651  0.0883
11470TIP3   OH255824   5.673   3.135  17.260  0.2067 -0.4960 -0.3748
11470TIP3    H155825   5.669   3.162  17.168  2.2032 -0.7540 -0.5792
11470TIP3    H255826   5.663   3.040  17.257  2.9949 -0.8668 -0.6715
11471TIP3   OH255827   4.936   3.952  14.499 -0.0932  0.5864 -0.1722
11471TIP3    H155828   4.919   3.858  14.505  0.1792  0.6190  2.1291
11471TIP3    H255829   4.849   3.992  14.505 -0.1870  0.5068 -0.8949
11472TIP3   OH255830   3.472   1.908   2.032 -0.1024  0.0526 -0.0096
11472TIP3    H155831   3.547   1.893   2.089 -0.1965  4.5042  1.6800
11472TIP3    H255832   3.508   1.911   1.944  1.4509  0.4597  0.6116
11473TIP3   OH255833   4.254   5.619   4.289  0.4104 -0.2784  0.2580
11473TIP3    H155834   4.231   5.540   4.339  0.5697 -0.0990  0.6212
11473TIP3    H255835   4.224   5.601   4.200  2.7096 -1.7682 -0.2820
11474TIP3   OH255836   6.625   4.719   2.426 -0.3069  0.4880 -0.1793
11474TIP3    H155837   6.597   4.635   2.463 -1.4674 -0.0344 -2.1039
11474TIP3    H255838   6.715   4.704   2.398 -0.2735  0.1075  0.1312
11475TIP3   OH255839   5.664   3.976  14.630 -0.3857 -0.2578  0.4982
11475TIP3    H155840   5.705   3.891  14.646  2.4044  0.2725 -2.7547
11475TIP3    H255841   5.700   4.034  14.697  0.7366 -0.8032  0.3768
11476TIP3   OH255842   3.863   3.195   4.023  0.1806  0.4612  0.2252
11476TIP3    H155843   3.779   3.238   4.005 -0.3965 -0.7740 -0.1182
11476TIP3    H255844   3.928   3.265   4.014 -0.8523  1.5586  1.0349
11477TIP3   OH255845   2.609   3.520  11.376  0.0764  0.4069  0.2836
11477TIP3    H155846   2.568   3.444  11.418  0.9011  0.4699  1.2540
11477TIP3    H255847   2.547   3.548  11.309 -0.9581 -0.1602  0.9875
11478TIP3   OH255848   5.127   4.815  11.826  0.3965 -0.0897  0.7882
11478TIP3    H155849   5.111   4.843  11.916  0.0213  1.1205  0.3674
11478TIP3    H255850   5.195   4.748  11.834 -1.6967 -2.1720  2.2235
11479TIP3   OH255851   0.286   1.824   0.618 -0.0252  0.3787  0.2766
11479TIP3    H155852   0.289   1.920   0.617 -0.4889  0.3996  0.5249
11479TIP3    H255853   0.244   1.802   0.702 -0.2537 -0.0293  0.0596
11480TIP3   OH255854   6.548   1.388   0.340  0.1509  0.5667 -0.0709
11480TIP3    H155855   6.625   1.423   0.385 -0.2608  0.4816  0.7204
11480TIP3    H255856   6.506   1.332   0.405  1.6693 -2.8207 -1.7409
11481TIP3   OH255857   1.039   5.042   1.216  0.7575 -0.1528 -0.5014
11481TIP3    H155858   1.081   4.987   1.283 -0.6813  2.2408  2.6811
11481TIP3    H255859   0.949   5.054   1.248  0.0595  1.3645 -2.7853
11482TIP3   OH255860   2.645   4.177  17.253  0.1971  0.1572  0.4637
11482TIP3    H155861   2.713   4.159  17.189  0.1605  2.3819 -0.2918
11482TIP3    H255862   2.584   4.104  17.245  0.4232  0.1491 -1.7485
11483TIP3   OH255863   3.060   6.647   5.163  0.3558  0.7478  0.3181
11483TIP3    H155864   3.023   6.579   5.107  1.9211 -0.1712  0.3301
11483TIP3    H255865   3.059   6.726   5.110  1.2024  0.0355 -0.7969
11484TIP3   OH255866   4.716   0.833   4.861  0.1344 -0.1439 -0.1699
11484TIP3    H155867   4.719   0.841   4.956 -0.9577 -0.1342 -0.1195
11484TIP3    H255868   4.706   0.739   4.845  0.1785 -0.1326 -0.2646
11485TIP3   OH255869   5.499   2.484   5.867  0.2769  0.1044 -0.3014
11485TIP3    H155870   5.479   2.404   5.914  4.0180 -0.4245  0.7156
11485TIP3    H255871   5.528   2.455   5.780 -0.9991  0.6297 -0.9311
11486TIP3   OH255872   0.809   2.881   5.594 -0.2200  0.1960  0.6072
11486TIP3    H155873   0.719   2.907   5.612 -0.7897  0.0282 -1.7233
11486TIP3    H255874   0.861   2.931   5.658 -1.7414  2.4695  0.2000
11487TIP3   OH255875   6.702   2.813   2.543  0.0332  0.5647  0.4311
11487TIP3    H155876   6.666   2.729   2.571 -3.2601  1.4218 -0.7293
11487TIP3    H255877   6.780   2.791   2.492 -1.6319 -1.9797 -1.2377
11488TIP3   OH255878   2.881   5.107   0.348 -0.0654 -0.5000 -0.0685
11488TIP3    H155879   2.847   5.055   0.420 -1.5419  0.8302  0.2386
11488TIP3    H255880   2.853   5.059   0.269 -0.7911 -0.5601  0.2164
11489TIP3   OH255881   5.086   6.420   5.178 -0.2078 -0.0977 -0.0479
11489TIP3    H155882   5.080   6.462   5.093 -2.9303  1.2433  0.6768
11489TIP3    H255883   5.074   6.327   5.160  2.3021 -0.2615 -1.3293
11490TIP3   OH255884   6.146   1.320   2.404  0.2999  0.3456 -0.4167
11490TIP3    H155885   6.113   1.351   2.489  1.5325  1.0436 -0.1650
11490TIP3    H255886   6.171   1.400   2.357  2.0750 -0.1347 -0.3742
11491TIP3   OH255887   5.098   0.876   1.624 -0.3024 -0.1204  0.7054
11491TIP3    H155888   5.038   0.939   1.664 -0.4831  1.7011 -2.1785
11491TIP3    H255889   5.044   0.831   1.559  1.3699  1.8276 -2.2415
11492TIP3   OH255890   3.790   4.568  16.194 -0.1794  0.0164  0.4857
11492TIP3    H155891   3.879   4.600  16.181  0.5023 -1.7345  0.6480
11492TIP3    H255892   3.770   4.588  16.285  0.2961 -0.1521  0.6290
11493TIP3   OH255893   1.652   3.963  15.601  0.6116  0.2664 -0.2432
11493TIP3    H155894   1.680   3.913  15.524  1.1103 -0.3289  0.3061
11493TIP3    H255895   1.602   4.036  15.566 -0.9565 -1.1200 -1.0464
11494TIP3   OH255896   1.496   6.015  16.797  0.5339  0.9266 -0.8043
11494TIP3    H155897   1.545   5.956  16.855  0.2168  0.1772 -1.2852
11494TIP3    H255898   1.492   5.969  16.713 -2.1108  0.3610 -0.4452
11495TIP3   OH255899   3.298   6.197  15.739 -0.2846 -0.0333 -0.0738
11495TIP3    H155900   3.271   6.243  15.660  0.6134  1.7295  0.5963
11495TIP3    H255901   3.393   6.213  15.745 -0.4553  0.5164  1.7328
11496TIP3   OH255902   5.476   6.357  16.116 -0.2166 -0.6911  0.2842
11496TIP3    H155903   5.429   6.397  16.189  0.7798  0.2596  0.4212
11496TIP3    H255904   5.431   6.274  16.101 -0.6177 -0.7599  1.7782
11497TIP3   OH255905   0.889   3.467   5.423  0.0447  0.6771  0.4548
11497TIP3    H155906   0.928   3.396   5.372 -0.5214 -0.4788  1.5747
11497TIP3    H255907   0.894   3.436   5.513 -2.3397  1.0147  0.7448
11498TIP3   OH255908   3.605   6.143  15.461 -0.0788 -0.1975 -0.0566
11498TIP3    H155909   3.604   6.211  15.529 -1.3712 -0.8066  0.5610
11498TIP3    H255910   3.621   6.062  15.509 -0.1404 -0.5313 -0.5970
11499TIP3   OH255911   1.689   0.510  13.479  0.0729 -0.2209 -0.0478
11499TIP3    H155912   1.713   0.456  13.404 -1.0743 -1.0063  0.1265
11499TIP3    H255913   1.672   0.448  13.550 -0.9277  0.3604  0.2498
11500TIP3   OH255914   5.727   5.486  16.724  0.0503 -0.3526  0.0971
11500TIP3    H155915   5.701   5.394  16.717 -1.6796  0.1154 -0.1737
11500TIP3    H255916   5.722   5.520  16.634  1.9016 -0.2618 -0.0132
11501TIP3   OH255917   0.468   2.338  13.486  0.5121  0.5988 -0.0485
11501TIP3    H155918   0.560   2.365  13.482  0.2451  1.7346  0.9269
11501TIP3    H255919   0.469   2.251  13.525  1.2538  0.0008 -1.3297
11502TIP3   OH255920   3.113   0.773  11.673 -0.3228  0.1741 -0.6249
11502TIP3    H155921   3.206   0.776  11.648 -0.1419  0.9625  0.1327
11502TIP3    H255922   3.110   0.812  11.760 -1.3435 -0.0690 -0.5410
11503TIP3   OH255923   5.545   3.877  12.849  0.6374 -0.7650 -0.2086
11503TIP3    H155924   5.614   3.834  12.799  1.3422 -0.8020  0.7563
11503TIP3    H255925   5.583   3.959  12.878 -0.8137  0.7323 -2.2998
11504TIP3   OH255926   1.761   3.845  13.873 -0.1159  0.1133 -0.3682
11504TIP3    H155927   1.669   3.864  13.893  0.2758  1.1830  0.5681
11504TIP3    H255928   1.794   3.804  13.953 -0.1954 -1.9255 -1.3296
11505TIP3   OH255929   1.612   4.196  13.271 -0.3856  0.7353 -1.1726
11505TIP3    H155930   1.708   4.201  13.274 -0.3075 -0.4756 -1.1397
11505TIP3    H255931   1.588   4.149  13.351 -1.0384  1.2477 -1.0549
11506TIP3   OH255932   1.429   3.822  16.856  0.8768  0.1362  0.3972
11506TIP3    H155933   1.451   3.813  16.948 -0.1478  0.9306  0.7347
11506TIP3    H255934   1.373   3.900  16.851 -2.0252 -1.8311 -0.3446
11507TIP3   OH255935   6.499   6.247   3.913 -0.0624 -0.2821 -0.1135
11507TIP3    H155936   6.581   6.196   3.914  0.4655  0.4993 -1.7196
11507TIP3    H255937   6.524   6.333   3.946 -0.5175 -0.3946  0.5554
11508TIP3   OH255938   4.277   4.538   3.883  0.4530  0.1400  0.2404
11508TIP3    H155939   4.355   4.505   3.837  0.9338  1.7141 -0.1372
11508TIP3    H255940   4.311   4.602   3.946 -0.5081  0.7243  0.1925
11509TIP3   OH255941   6.231   5.822  11.410 -0.0872  0.2394  0.4643
11509TIP3    H155942   6.208   5.854  11.497 -2.2131  0.7857 -0.2381
11509TIP3    H255943   6.170   5.750  11.394  0.6074 -0.1833 -0.3927
11510TIP3   OH255944   3.294   2.988  16.039  0.3721 -0.0216  0.7519
11510TIP3    H155945   3.291   3.083  16.028 -2.7277 -0.1932 -1.2436
11510TIP3    H255946   3.365   2.959  15.982  0.4115  1.0120  0.2598
11511TIP3   OH255947   2.306   1.328  12.966  0.4581 -0.2380  0.2956
11511TIP3    H155948   2.229   1.338  12.910 -0.2979 -0.1320  1.3144
11511TIP3    H255949   2.331   1.418  12.987  1.3285 -0.2484 -0.6199
11512TIP3   OH255950   1.665   0.061   5.783  0.9470  0.3068 -0.9369
11512TIP3    H155951   1.587   0.010   5.759  0.5677  1.0919 -1.4058
11512TIP3    H255952   1.731  -0.005   5.805  0.6536 -0.4156 -2.1373
11513TIP3   OH255953   3.116   5.648   6.160 -0.2935  1.0662 -0.3503
11513TIP3    H155954   3.125   5.556   6.182  0.9487  1.0867 -0.6733
11513TIP3    H255955   3.037   5.677   6.206 -0.4878 -0.0617  0.0476
11514TIP3   OH255956   3.848   5.103  11.946 -0.4117  0.5549 -0.1193
11514TIP3    H155957   3.940   5.079  11.936 -0.1630  0.8748  1.2206
11514TIP3    H255958   3.801   5.021  11.929  0.2725 -0.2264  1.4902
11515TIP3   OH255959   6.189   2.945   5.753  0.9332 -0.8264  0.9746
11515TIP3    H155960   6.232   2.935   5.838 -1.6092  1.4871  2.7080
11515TIP3    H255961   6.096   2.948   5.774  0.2462  0.2727 -1.8403
11516TIP3   OH255962   5.445   1.469  12.585  0.5802 -0.2299 -0.0146
11516TIP3    H155963   5.366   1.439  12.630  1.1178 -0.7910  0.5625
11516TIP3    H255964   5.440   1.430  12.498 -1.1863  1.9969 -1.0180
11517TIP3   OH255965   2.510   4.636  16.225  0.7732  0.1584  0.1779
11517TIP3    H155966   2.459   4.586  16.162  0.6079  0.3827  0.1324
11517TIP3    H255967   2.601   4.612  16.207  0.7629  0.5505 -0.4440
11518TIP3   OH255968   0.673   5.877  15.127 -0.2793 -0.2161  0.4126
11518TIP3    H155969   0.669   5.905  15.035  0.8662 -0.5520  0.2382
11518TIP3    H255970   0.655   5.956  15.177  1.9725  0.6938 -0.0863
11519TIP3   OH255971   0.963   5.646  14.889 -0.1414  0.2999  0.0883
11519TIP3    H155972   0.913   5.574  14.928 -0.2209  0.8270  0.9999
11519TIP3    H255973   1.041   5.605  14.853 -0.1065 -0.2298  0.7450
11520TIP3   OH255974   6.576   5.336   3.783  0.0687  0.5147 -0.1605
11520TIP3    H155975   6.550   5.370   3.869 -0.4651 -2.1143  0.8100
11520TIP3    H255976   6.632   5.261   3.803 -0.4570 -0.4637 -2.1147
11521TIP3   OH255977   0.697   5.785  14.343  0.4468  0.6777  0.5033
11521TIP3    H155978   0.636   5.833  14.398  1.3250  1.8066  0.5521
11521TIP3    H255979   0.768   5.760  14.402  0.3299 -0.0958  0.3313
11522TIP3   OH255980   2.400   6.718  14.082  0.5181 -0.2547  0.8607
11522TIP3    H155981   2.402   6.623  14.074 -1.9735 -0.3357  0.5060
11522TIP3    H255982   2.367   6.734  14.170  0.0009  0.2722  0.5716
11523TIP3   OH255983   4.464   4.908  14.981 -0.3875 -0.1270  0.0495
11523TIP3    H155984   4.530   4.938  14.919 -1.0603 -1.2763 -1.2745
11523TIP3    H255985   4.424   4.989  15.013  0.1309  0.5056 -0.8413
11524TIP3   OH255986   5.103   3.611  11.722 -0.2253  0.2885  1.2115
11524TIP3    H155987   5.096   3.544  11.790  2.2040 -1.8841 -0.4546
11524TIP3    H255988   5.176   3.666  11.750 -1.2570  1.3549  1.8504
11525TIP3   OH255989   2.845   4.900  13.196  0.2491  0.4923  0.7796
11525TIP3    H155990   2.831   4.806  13.179  1.7530 -0.1900  2.9099
11525TIP3    H255991   2.871   4.904  13.288  1.9470  2.8353  0.2785
11526TIP3   OH255992   3.500   5.115  16.390 -0.0973  0.0003  0.1794
11526TIP3    H155993   3.535   5.158  16.468 -0.1305 -1.7526  1.2128
11526TIP3    H255994   3.410   5.092  16.414  0.1415 -1.2358 -0.0691
11527TIP3   OH255995   3.125   0.140   3.092 -0.6003  0.2093 -0.4536
11527TIP3    H155996   3.072   0.220   3.088 -0.3297  0.3954 -0.3455
11527TIP3    H255997   3.169   0.144   3.177 -1.4550 -0.6182  0.0556
11528TIP3   OH255998   0.958   5.410   4.928 -0.4491 -0.0151 -0.2160
11528TIP3    H155999   1.028   5.376   4.872  0.3548 -1.6301  1.6777
11528TIP3    H256000   0.940   5.497   4.892  1.5696 -0.0885 -1.5971
11529TIP3   OH256001   4.407   4.077   4.483  0.2488  0.0167 -0.1542
11529TIP3    H156002   4.396   4.169   4.504  0.2589 -0.2364  1.0392
11529TIP3    H256003   4.475   4.046   4.542 -2.6303 -1.7148  2.5608
11530TIP3   OH256004   0.939   5.836   4.098 -0.1636 -0.1015  0.6060
11530TIP3    H156005   0.888   5.758   4.121 -0.5604  0.4786  1.7760
11530TIP3    H256006   1.030   5.811   4.113 -0.3752  0.0683  2.3007
11531TIP3   OH256007   3.139   4.367  13.457  0.2588  0.4847 -0.3240
11531TIP3    H156008   3.138   4.451  13.410 -0.2394 -0.0639 -1.3269
11531TIP3    H256009   3.199   4.313  13.406  0.2402  0.0876  0.0736
11532TIP3   OH256010   5.661   1.767  11.913  0.3851  0.1816 -0.2329
11532TIP3    H156011   5.613   1.849  11.911  0.2611  0.0956 -1.4475
11532TIP3    H256012   5.739   1.786  11.966  0.2774  1.0263 -0.3641
11533TIP3   OH256013   4.180   0.704   1.278 -0.0261  0.3561 -0.5994
11533TIP3    H156014   4.174   0.739   1.189 -1.6082 -0.1956 -0.7468
11533TIP3    H256015   4.126   0.763   1.330 -1.2407 -0.7720 -0.5181
11534TIP3   OH256016   0.291   6.473   5.552 -0.1048  0.0472  0.4327
11534TIP3    H156017   0.286   6.388   5.596  0.5337  0.5001  1.4232
11534TIP3    H256018   0.303   6.451   5.459  0.2503 -0.9480  0.6952
11535TIP3   OH256019   2.333   5.155  17.136  0.4199  0.4552  0.9024
11535TIP3    H156020   2.272   5.171  17.064 -0.4730  0.3765  1.6244
11535TIP3    H256021   2.358   5.243  17.165  0.3307  0.4917  0.8702
11536TIP3   OH256022   1.668   1.442   0.014 -0.0345 -0.0001  0.3365
11536TIP3    H156023   1.732   1.399   0.070 -0.7573 -1.5432  0.0299
11536TIP3    H256024   1.720   1.494  -0.047  1.0116 -1.9778 -0.5405
11537TIP3   OH256025   5.824   2.376  15.546  0.3232 -0.1054 -0.3461
11537TIP3    H156026   5.825   2.453  15.604 -0.7571 -0.1901 -0.1931
11537TIP3    H256027   5.747   2.326  15.573 -0.5728  0.1464 -2.2243
11538TIP3   OH256028   2.206   6.160  16.367  0.1469  0.5346 -0.3280
11538TIP3    H156029   2.154   6.097  16.416  2.4306 -1.3227 -0.1554
11538TIP3    H256030   2.178   6.149  16.276  0.9744 -1.2898 -0.4056
11539TIP3   OH256031   6.169   3.528  13.918  0.6657 -0.2423  0.2308
11539TIP3    H156032   6.209   3.470  13.853  0.9345  1.5935 -1.3225
11539TIP3    H256033   6.242   3.578  13.953  0.0873  1.6395 -1.0872
11540TIP3   OH256034   0.140   1.116  12.450  0.1105  0.3273 -0.0307
11540TIP3    H156035   0.199   1.152  12.383 -0.1546 -0.3799 -0.6559
11540TIP3    H256036   0.153   1.173  12.526  0.4153  1.1543 -0.6790
11541TIP3   OH256037   4.096   2.395  14.936  0.1046 -0.8541  0.0664
11541TIP3    H156038   4.028   2.434  14.991  1.1026 -0.0527  0.7545
11541TIP3    H256039   4.050   2.370  14.856 -0.8883  0.2690  0.2609
11542TIP3   OH256040   0.172   1.800   3.312  0.0214 -0.6421 -0.6688
11542TIP3    H156041   0.082   1.772   3.330  0.2762 -2.2530 -1.6704
11542TIP3    H256042   0.211   1.816   3.398 -1.2485  0.2039 -0.2311
11543TIP3   OH256043   6.279   2.262   4.929 -0.9574  0.1212 -0.2685
11543TIP3    H156044   6.185   2.257   4.946 -0.7135  1.4342  1.9853
11543TIP3    H256045   6.320   2.249   5.015  0.7920  1.8514 -0.7423
11544TIP3   OH256046   5.346   3.199   3.044  0.0777 -0.2407 -0.4017
11544TIP3    H156047   5.362   3.293   3.034 -2.2204  0.4526  1.3648
11544TIP3    H256048   5.401   3.174   3.118  0.4575 -0.2169 -0.6747
11545TIP3   OH256049   1.802   4.109  17.146 -0.0361 -0.7142 -0.1728
11545TIP3    H156050   1.827   4.156  17.067  2.8718 -2.4130 -0.4177
11545TIP3    H256051   1.864   4.036  17.151 -3.2503 -3.6184  1.0101
11546TIP3   OH256052   2.983   3.380  13.010  0.4615  0.3064 -0.7587
11546TIP3    H156053   3.005   3.377  13.103 -1.7227 -1.9647 -0.1947
11546TIP3    H256054   3.019   3.299  12.975 -0.3355  0.2552 -1.4669
11547TIP3   OH256055   5.471   2.452  16.255  0.3166  0.0916 -0.0545
11547TIP3    H156056   5.440   2.489  16.172  0.7337  0.2543 -0.1437
11547TIP3    H256057   5.566   2.444  16.242  0.5294  1.0794  0.7870
11548TIP3   OH256058   0.087   2.102   2.756 -0.1284 -0.0036 -0.7665
11548TIP3    H156059   0.129   2.022   2.728  0.0895  0.4092 -1.6413
11548TIP3    H256060   0.158   2.165   2.766 -0.3861  0.3182 -0.9239
11549TIP3   OH256061   1.271   4.236  10.603  0.2482  0.1563  0.7110
11549TIP3    H156062   1.241   4.175  10.536  1.3282  0.8317 -0.4286
11549TIP3    H256063   1.203   4.232  10.671  0.1628 -2.0898  0.5754
11550TIP3   OH256064   2.311   0.730   1.415  0.0697 -0.2763 -0.6746
11550TIP3    H156065   2.347   0.818   1.424 -1.6640  0.5002 -0.8559
11550TIP3    H256066   2.313   0.714   1.320 -1.4009  0.4033 -0.8470
11551TIP3   OH256067   0.848   0.809   5.600 -0.2579 -0.3408  0.7279
11551TIP3    H156068   0.906   0.856   5.661 -0.6054  1.1482 -0.0339
11551TIP3    H256069   0.760   0.841   5.620 -0.4594 -0.3724 -0.0449
11552TIP3   OH256070   5.879   3.614  11.394 -0.2218  0.2586 -0.3933
11552TIP3    H156071   5.871   3.590  11.302  1.6136 -0.5727 -0.3789
11552TIP3    H256072   5.841   3.702  11.399 -1.5726 -0.2191 -1.6587
11553TIP3   OH256073   3.205   2.273  15.673 -0.3313 -1.1152 -0.3702
11553TIP3    H156074   3.135   2.244  15.732 -0.5521 -0.9925 -0.5744
11553TIP3    H256075   3.215   2.366  15.691  2.5841 -1.7647  2.6718
11554TIP3   OH256076   2.433   0.797   3.965 -0.0771  0.5502  0.1266
11554TIP3    H156077   2.347   0.764   3.990  0.3788 -1.5996 -0.8989
11554TIP3    H256078   2.420   0.834   3.878  0.4579 -2.3481 -1.3243
11555TIP3   OH256079   1.304   4.172  16.628  0.4655 -0.3684 -0.0598
11555TIP3    H156080   1.275   4.249  16.677 -1.5379  0.2775 -2.0872
11555TIP3    H256081   1.247   4.101  16.657  1.0762 -0.6481  0.4713
11556TIP3   OH256082   2.960   6.685  12.757 -0.2679  0.2498 -0.2154
11556TIP3    H156083   2.930   6.605  12.713  2.1014 -1.5536  1.2139
11556TIP3    H256084   2.901   6.694  12.832 -1.1398  0.4385 -0.8966
11557TIP3   OH256085   2.026   3.692   5.289 -0.5707  0.0785  0.5757
11557TIP3    H156086   2.097   3.742   5.330 -0.9496  0.6061  0.5913
11557TIP3    H256087   2.069   3.646   5.216 -0.4479  1.4326 -0.2511
11558TIP3   OH256088   1.155   5.015  13.463 -0.6979 -0.6148 -1.4099
11558TIP3    H156089   1.119   4.929  13.485 -2.3048  0.1387 -0.9401
11558TIP3    H256090   1.184   5.007  13.372 -0.6103 -1.7077 -1.3002
11559TIP3   OH256091   6.606   1.028  13.535 -0.6731 -0.1497 -0.0213
11559TIP3    H156092   6.626   1.031  13.441  1.0138 -0.9165  0.2803
11559TIP3    H256093   6.584   1.119  13.557  1.3355  0.5717 -0.6945
11560TIP3   OH256094   4.906   3.107  15.957 -0.7909 -0.7383  0.2729
11560TIP3    H156095   4.822   3.112  16.003 -0.7511 -0.5792  0.3280
11560TIP3    H256096   4.882   3.101  15.864 -0.8734 -1.2283  0.3214
11561TIP3   OH256097   0.109   3.853   2.892 -0.4977 -0.1433 -0.5267
11561TIP3    H156098   0.064   3.931   2.924 -0.2953  0.6720 -2.1140
11561TIP3    H256099   0.154   3.818   2.969  0.0093  1.7323  0.0769
11562TIP3   OH256100   4.363   5.523   3.156  0.8197  0.2926  0.3938
11562TIP3    H156101   4.360   5.596   3.095 -2.2315 -0.0133  0.0322
11562TIP3    H256102   4.330   5.448   3.107 -1.1900 -0.0853  2.1637
11563TIP3   OH256103   3.873   4.263  12.873 -0.8241 -0.4349 -0.0212
11563TIP3    H156104   3.953   4.279  12.824 -1.3753  0.1468 -0.7501
11563TIP3    H256105   3.897   4.197  12.938  0.2891 -0.1276 -0.1087
11564TIP3   OH256106   2.839   0.221  15.728 -0.2659  0.2483 -1.2252
11564TIP3    H156107   2.888   0.208  15.810 -0.4925  1.0143 -0.9570
11564TIP3    H256108   2.752   0.246  15.757 -0.8627 -1.1856 -1.6974
11565TIP3   OH256109   0.852   1.658   5.136  0.1095 -0.0968 -0.4846
11565TIP3    H156110   0.851   1.753   5.133 -0.3674  0.0809  2.3437
11565TIP3    H256111   0.917   1.632   5.071 -0.0245  2.1088 -1.5861
11566TIP3   OH256112   2.602   5.948   5.491  0.0558  0.4215 -0.1307
11566TIP3    H156113   2.643   5.883   5.548 -0.7193 -0.2034 -0.2696
11566TIP3    H256114   2.665   6.020   5.488  0.3003  0.2921  1.1789
11567TIP3   OH256115   2.427   4.356   1.052 -0.0631  0.3983  0.4107
11567TIP3    H156116   2.368   4.421   1.092 -2.7610 -0.4739 -1.7899
11567TIP3    H256117   2.403   4.356   0.960  2.4889 -1.1055 -0.3468
11568TIP3   OH256118   1.329   1.601   3.131 -0.1493 -0.3124 -0.4802
11568TIP3    H156119   1.273   1.553   3.192 -1.2049  0.4958 -0.7840
11568TIP3    H256120   1.363   1.674   3.183 -1.5311  0.7273 -0.9701
11569TIP3   OH256121   4.705   3.355   6.402 -0.7174  0.3100 -0.3119
11569TIP3    H156122   4.641   3.316   6.461 -2.2665  1.9021 -0.8370
11569TIP3    H256123   4.654   3.419   6.351  1.2915  1.6242 -0.7690
11570TIP3   OH256124   3.500   3.832   3.226 -0.0311  0.0274  0.1176
11570TIP3    H156125   3.548   3.875   3.297 -1.3870  0.4639  0.7899
11570TIP3    H256126   3.409   3.835   3.253 -0.5792  0.1750 -1.6422
11571TIP3   OH256127   4.170   0.083  15.204 -0.1708  0.1767 -0.4536
11571TIP3    H156128   4.178   0.001  15.252 -2.3508 -0.4459 -1.0178
11571TIP3    H256129   4.257   0.099  15.169  0.5493 -1.3530  0.5272
11572TIP3   OH256130   0.038   3.690  13.240  0.0182  0.7433 -0.5010
11572TIP3    H156131   0.128   3.720  13.228 -0.0663  0.7722 -1.0929
11572TIP3    H256132   0.047   3.598  13.264  0.1989  0.6465 -0.9188
11573TIP3   OH256133   5.123   2.292  12.698 -0.4315 -0.5415 -0.3228
11573TIP3    H156134   5.173   2.350  12.641 -0.2647  1.2350  1.5421
11573TIP3    H256135   5.185   2.266  12.766 -1.5458  0.3591  1.0906
11574TIP3   OH256136   4.140   3.913  16.695 -0.6139  0.2420 -0.7056
11574TIP3    H156137   4.185   3.976  16.638  2.9757  2.2903  3.7531
11574TIP3    H256138   4.184   3.830  16.678  2.1360  1.3274  0.5472
11575TIP3   OH256139   5.383   3.009  15.877  0.0543 -0.2009  0.1390
11575TIP3    H156140   5.383   3.031  15.971  1.5917  2.6202 -0.4051
11575TIP3    H256141   5.467   2.967  15.862  0.5322  0.8469 -0.2218
11576TIP3   OH256142   4.059   0.418  11.132 -0.3430  0.0319  0.3049
11576TIP3    H156143   4.009   0.484  11.084 -1.2590 -1.6907 -1.2686
11576TIP3    H256144   3.993   0.355  11.162  0.4482  0.0490  2.2116
11577TIP3   OH256145   6.046   1.897   3.562  0.4742 -0.2863  0.7781
11577TIP3    H156146   6.128   1.860   3.530  0.5722 -0.0032  0.7009
11577TIP3    H256147   6.055   1.991   3.548  1.2499  0.0935  3.2114
11578TIP3   OH256148   5.537   3.874   2.972  0.3634  0.0767  0.1678
11578TIP3    H156149   5.555   3.801   2.912 -0.5741 -0.0308  0.0068
11578TIP3    H256150   5.471   3.927   2.927  0.5877  0.6918  0.5541
11579TIP3   OH256151   3.430   3.663  13.794 -0.3012 -0.0962 -0.0546
11579TIP3    H156152   3.499   3.699  13.739 -1.3540  0.2724 -1.1747
11579TIP3    H256153   3.413   3.576  13.758 -0.1112 -0.3755  0.5147
11580TIP3   OH256154   4.772   5.460  10.591 -0.4958  0.2275 -0.1931
11580TIP3    H156155   4.809   5.508  10.516  0.6806 -0.6372 -0.1746
11580TIP3    H256156   4.719   5.391  10.551  1.1732 -1.0564 -0.2848
11581TIP3   OH256157   3.161   5.176   4.511 -0.8320  0.2803  0.6047
11581TIP3    H156158   3.127   5.226   4.585  0.7053  1.4754  0.5593
11581TIP3    H256159   3.151   5.234   4.436 -1.0479 -0.3651  0.1180
11582TIP3   OH256160   6.677   1.063   1.952  0.1078  0.4201  0.1802
11582TIP3    H156161   6.630   1.110   2.021 -0.0959  0.2518  0.1581
11582TIP3    H256162   6.715   0.988   1.996 -0.9020 -0.2673 -0.0813
11583TIP3   OH256163   1.530   2.718   4.670  0.0166 -0.2186  0.1056
11583TIP3    H156164   1.531   2.642   4.612 -1.1745 -0.7932  0.7957
11583TIP3    H256165   1.441   2.719   4.707  0.1741  1.1991  0.5162
11584TIP3   OH256166   4.969   5.018   3.705 -0.7552  0.5503 -0.3304
11584TIP3    H156167   4.998   5.106   3.681 -0.8909  0.5935 -0.3358
11584TIP3    H256168   5.013   5.001   3.789  1.1761 -0.3211 -1.4521
11585TIP3   OH256169   2.538   5.993   4.465 -0.1601  0.1219  0.3089
11585TIP3    H156170   2.620   5.994   4.415 -0.6006 -2.3403 -0.5818
11585TIP3    H256171   2.470   6.008   4.399 -0.5162  1.5010  0.9474
11586TIP3   OH256172   1.495   4.842   4.487 -0.0728  0.6627  0.0388
11586TIP3    H156173   1.499   4.749   4.465 -4.6679 -0.0039  1.0119
11586TIP3    H256174   1.432   4.847   4.558  0.5811  4.5265  0.5597
11587TIP3   OH256175   1.820   5.628  17.291 -0.4795  0.0925 -0.0782
11587TIP3    H156176   1.732   5.633  17.328 -1.5215  0.0933 -2.4156
11587TIP3    H256177   1.808   5.593  17.203  2.0654 -1.6149  0.1432
11588TIP3   OH256178   0.323   5.926   5.664 -0.0237 -0.1090  0.0567
11588TIP3    H156179   0.240   5.888   5.634 -0.7787 -0.0784  1.9424
11588TIP3    H256180   0.323   5.910   5.759  1.7535  0.6216  0.2059
11589TIP3   OH256181   6.413   5.567  13.984 -0.2253 -0.0064 -0.1323
11589TIP3    H156182   6.434   5.559  14.077  0.3709 -0.8803 -0.3333
11589TIP3    H256183   6.324   5.603  13.982 -0.2485 -0.0017  0.7706
11590TIP3   OH256184   0.845   4.832  14.961 -0.0349 -0.2690  0.3985
11590TIP3    H156185   0.852   4.767  14.891 -0.9617 -0.5080  0.5182
11590TIP3    H256186   0.770   4.885  14.937 -0.7707 -0.7564  1.5247
11591TIP3   OH256187   0.957   6.060  15.460  0.1185  0.8082 -0.2236
11591TIP3    H156188   1.024   5.995  15.441 -0.5642  0.6295 -2.1840
11591TIP3    H256189   0.904   6.020  15.530 -0.9925 -1.3260 -2.1516
11592TIP3   OH256190   2.752   3.288   2.018 -0.2893 -0.2735 -0.6923
11592TIP3    H156191   2.811   3.271   2.091 -1.2254 -0.9247 -0.0779
11592TIP3    H256192   2.736   3.202   1.980  0.5668  0.1074 -1.9840
11593TIP3   OH256193   3.111   3.477   1.852 -0.6334  1.1325 -0.0244
11593TIP3    H156194   3.157   3.505   1.931 -1.1520  1.4088  0.1857
11593TIP3    H256195   3.084   3.387   1.872 -0.3149  1.0186 -0.0943
11594TIP3   OH256196   4.560   1.734  12.525 -0.4986 -0.2953 -0.0137
11594TIP3    H156197   4.494   1.792  12.486 -1.0371 -0.3983  0.7113
11594TIP3    H256198   4.624   1.721  12.456 -0.0880  1.5661 -0.0408
11595TIP3   OH256199   0.226   3.671  16.527 -0.0134  0.1530  1.0277
11595TIP3    H156200   0.208   3.677  16.434 -2.8991  3.1344  1.5915
11595TIP3    H256201   0.286   3.743  16.546  1.0086 -0.7781  1.4196
11596TIP3   OH256202   3.091   3.936   6.122  0.2222  0.7393 -0.0683
11596TIP3    H156203   3.099   3.873   6.050 -2.2271  0.5373 -0.2382
11596TIP3    H256204   3.048   3.888   6.192  0.7019  1.5110  0.7796
11597TIP3   OH256205   2.291   3.395  16.255 -0.3789 -0.3216  0.8004
11597TIP3    H156206   2.356   3.371  16.189 -0.3823 -0.2392  0.7667
11597TIP3    H256207   2.207   3.372  16.216 -0.3149 -1.3084  1.2248
11598TIP3   OH256208   5.193   6.664   3.644 -0.3739 -0.1492 -0.1817
11598TIP3    H156209   5.118   6.721   3.664  0.7186  1.9604 -1.6501
11598TIP3    H256210   5.157   6.597   3.586 -1.1954  0.6473 -0.6230
11599TIP3   OH256211   0.957   3.777   4.356 -0.3651  0.1439  0.2519
11599TIP3    H156212   1.017   3.702   4.360 -2.1268 -1.5841 -2.3928
11599TIP3    H256213   0.889   3.757   4.420 -0.0125  0.3273  0.6931
11600TIP3   OH256214   4.403   4.302   0.133 -0.0266 -0.0987 -0.0507
11600TIP3    H156215   4.477   4.345   0.090 -0.6719  0.5415 -0.5410
11600TIP3    H256216   4.326   4.341   0.093 -0.6439 -1.6756 -0.4960
11601TIP3   OH256217   3.377   1.284  14.770  0.8232  0.2486  0.1807
11601TIP3    H156218   3.361   1.203  14.818  0.2896  0.3868  0.2460
11601TIP3    H256219   3.293   1.303  14.727  1.0464  0.5794 -0.1146
11602TIP3   OH256220   5.210   5.042   1.160  0.1461  0.2592  0.2643
11602TIP3    H156221   5.214   5.118   1.103 -0.0506  0.3852  0.4169
11602TIP3    H256222   5.127   5.051   1.207 -0.4443 -0.6381 -0.5520
11603TIP3   OH256223   4.283   2.038  13.000 -0.3806 -0.2424  0.2802
11603TIP3    H156224   4.266   1.944  13.009 -1.4477 -0.0208  0.5920
11603TIP3    H256225   4.204   2.073  12.959  0.8763  0.1789 -1.9631
11604TIP3   OH256226   2.585   0.548  14.670  0.1080  0.1040 -0.3906
11604TIP3    H156227   2.630   0.624  14.707  1.5976 -0.9316 -0.0168
11604TIP3    H256228   2.653   0.499  14.625 -0.7602 -1.2352 -0.2854
11605TIP3   OH256229   4.181   0.777   0.207  0.5930  0.1467  0.2250
11605TIP3    H156230   4.109   0.836   0.185  0.9168  1.0964  1.5699
11605TIP3    H256231   4.241   0.832   0.258  1.1218 -1.2402  1.1289
11606TIP3   OH256232   6.704   2.467  14.886  0.1955 -0.4149 -0.0251
11606TIP3    H156233   6.664   2.397  14.834 -0.1387 -0.5797  0.4460
11606TIP3    H256234   6.799   2.453  14.876  0.1399 -0.1553 -0.9711
11607TIP3   OH256235   3.914   0.691   2.712  0.2538  0.0948  0.4740
11607TIP3    H156236   3.995   0.739   2.694  0.8823 -0.6610  1.1475
11607TIP3    H256237   3.903   0.634   2.636  2.0387 -1.9521  1.5900
11608TIP3   OH256238   6.628   6.390  15.647 -0.9138  0.1235  0.0406
11608TIP3    H156239   6.603   6.441  15.570 -1.0297 -0.0817 -0.0560
11608TIP3    H256240   6.662   6.308  15.613  0.0741  0.4702  0.1615
11609TIP3   OH256241   3.470   5.099  13.844 -0.2119  0.0365  0.3330
11609TIP3    H156242   3.414   5.111  13.768 -0.3786  0.4748  0.5193
11609TIP3    H256243   3.412   5.065  13.912  0.0384 -0.8295  0.1264
11610TIP3   OH256244   2.996   6.019   2.052 -0.1622 -0.0631  0.4378
11610TIP3    H156245   3.084   5.988   2.073  0.8086  1.3775 -1.2274
11610TIP3    H256246   3.010   6.103   2.007 -2.3661  0.0293 -0.1918
11611TIP3   OH256247   6.725   0.809  15.789  0.1829  0.1833  0.1834
11611TIP3    H156248   6.682   0.741  15.842  0.5321 -1.0700 -1.0827
11611TIP3    H256249   6.713   0.890  15.839  2.6559 -1.2645  3.4596
11612TIP3   OH256250   0.356   4.213  16.863 -0.9775 -0.2455  0.1916
11612TIP3    H156251   0.401   4.215  16.778  1.0171 -0.2645  1.1935
11612TIP3    H256252   0.331   4.122  16.875 -0.9841 -0.2998 -0.2269
11613TIP3   OH256253   4.385   5.896   2.663 -0.2754 -0.0686  0.1213
11613TIP3    H156254   4.355   5.971   2.611 -1.7879  2.0577  3.7013
11613TIP3    H256255   4.448   5.933   2.724  0.9091 -2.2849  0.3246
11614TIP3   OH256256   5.358   1.290   3.310 -0.0864  0.2796  0.0271
11614TIP3    H156257   5.387   1.320   3.396  0.6837  0.3001 -0.2402
11614TIP3    H256258   5.438   1.273   3.261 -0.5136  0.4538 -0.7573
11615TIP3   OH256259   5.165   2.567  13.643  0.0643  0.2577  0.2384
11615TIP3    H156260   5.231   2.630  13.612 -0.3198  1.5492  1.9064
11615TIP3    H256261   5.100   2.564  13.573  1.6481 -0.7861 -1.3017
11616TIP3   OH256262   0.176   1.641  14.477 -0.3317  0.0570 -0.0216
11616TIP3    H156263   0.181   1.709  14.544 -0.1189  1.2163 -1.1745
11616TIP3    H256264   0.217   1.564  14.516  0.0143  0.7876  1.0667
11617TIP3   OH256265   1.947   5.589  13.497 -0.0323 -0.8984 -0.4214
11617TIP3    H156266   1.934   5.500  13.529  0.5389 -1.3947 -1.5054
11617TIP3    H256267   1.868   5.608  13.447 -0.2411 -0.7153 -0.0263
11618TIP3   OH256268   1.238   1.573   1.935  0.3922 -0.1609  0.5371
11618TIP3    H156269   1.278   1.529   1.860 -0.1956  1.2017 -0.6423
11618TIP3    H256270   1.238   1.508   2.004  0.2833 -1.7461 -0.8779
11619TIP3   OH256271   5.427   3.970   6.008  0.2444 -0.5522 -0.5678
11619TIP3    H156272   5.356   3.986   6.070  0.8120  0.5072 -0.1721
11619TIP3    H256273   5.399   3.893   5.959 -1.1234 -0.2302 -0.3332
11620TIP3   OH256274   4.790   5.078  14.714  0.3835 -0.0300 -0.6011
11620TIP3    H156275   4.866   5.133  14.735  1.1963  0.1263 -3.4858
11620TIP3    H256276   4.729   5.137  14.670 -0.5426 -0.6037 -0.1086
11621TIP3   OH256277   3.914   4.550  12.931  0.4428 -0.0745 -0.0213
11621TIP3    H156278   3.951   4.592  12.854  1.1339  1.8491  1.2860
11621TIP3    H256279   3.912   4.457  12.909 -1.3332  0.5475 -3.1342
11622TIP3   OH256280   3.144   3.077  16.574  0.5249 -0.2015  0.0643
11622TIP3    H156281   3.167   3.039  16.489 -0.7825  1.2170 -0.9901
11622TIP3    H256282   3.213   3.141  16.591  0.3567  0.1005 -0.3568
11623TIP3   OH256283   0.077   1.994  14.374  0.2748 -0.1175  0.4052
11623TIP3    H156284   0.114   2.065  14.322 -0.5433  1.6895  2.1899
11623TIP3    H256285   0.114   1.915  14.335  1.9108  1.3016 -1.1048
11624TIP3   OH256286   5.450   4.782   4.277  0.2469 -0.0710  0.2602
11624TIP3    H156287   5.431   4.718   4.210  1.4743  0.2762 -0.4459
11624TIP3    H256288   5.379   4.772   4.341 -0.1668 -1.3537 -0.3783
11625TIP3   OH256289   0.834   2.803   3.457 -0.3832  0.4673  0.0349
11625TIP3    H156290   0.779   2.833   3.529 -1.0751  1.5985 -0.9198
11625TIP3    H256291   0.779   2.743   3.407  0.7231 -1.8768  1.4602
11626TIP3   OH256292   4.306   5.534   5.084  0.1790 -0.1840 -0.0287
11626TIP3    H156293   4.252   5.516   5.161  1.2194  0.8202  0.9809
11626TIP3    H256294   4.304   5.630   5.076 -0.8598 -0.3277 -1.9877
11627TIP3   OH256295   0.689   1.581  14.821 -0.2545 -0.0615 -0.1897
11627TIP3    H156296   0.604   1.592  14.863 -0.6058  0.1928 -0.9548
11627TIP3    H256297   0.734   1.665  14.835  0.3368 -0.5710  1.1982
11628TIP3   OH256298   6.376   0.611  16.627 -0.7524 -0.2170 -0.1054
11628TIP3    H156299   6.447   0.638  16.685 -0.0365 -2.0337 -0.0735
11628TIP3    H256300   6.361   0.687  16.571  0.9370  0.3676  0.1612
11629TIP3   OH256301   2.779   1.114  16.303 -0.2708  0.2144  0.0796
11629TIP3    H156302   2.830   1.185  16.342  2.3515  0.0378 -2.5946
11629TIP3    H256303   2.808   1.035  16.349 -0.1290  0.4140  0.3364
11630TIP3   OH256304   1.334   2.699  14.063 -0.0885  0.1745 -0.3253
11630TIP3    H156305   1.302   2.786  14.085  1.7131  0.9809 -0.7295
11630TIP3    H256306   1.284   2.673  13.986 -2.3315 -0.2157  1.1599
11631TIP3   OH256307   0.976   2.199  16.953  0.1958  0.2691  0.1139
11631TIP3    H156308   1.053   2.255  16.943  1.3529 -0.5415  3.2123
11631TIP3    H256309   1.011   2.118  16.991 -2.1668 -0.0436  1.8785
11632TIP3   OH256310   0.983   1.715  10.873  0.2558 -0.2346  0.0817
11632TIP3    H156311   0.939   1.754  10.948 -0.1974 -0.0979 -0.2542
11632TIP3    H256312   1.034   1.786  10.835  0.9627 -0.4505  0.6096
11633TIP3   OH256313   1.597   5.881  15.212  0.0326 -0.1329 -0.5323
11633TIP3    H156314   1.580   5.789  15.192  0.4359 -0.4791  0.6255
11633TIP3    H256315   1.564   5.892  15.301  2.4056  0.1386  0.3765
11634TIP3   OH256316   5.116   4.656  15.790 -0.0656  0.4649  0.8163
11634TIP3    H156317   5.035   4.613  15.816 -0.4509  0.2146 -0.7000
11634TIP3    H256318   5.121   4.643  15.696  0.3026  2.9304  0.4340
11635TIP3   OH256319   1.330   6.716   1.850  0.0590  0.1269  0.0777
11635TIP3    H156320   1.388   6.791   1.835 -0.5101  0.4206 -0.7037
11635TIP3    H256321   1.247   6.755   1.878  0.2580 -0.2974  1.3149
11636TIP3   OH256322   2.009   6.185   2.364  0.0561 -0.1471 -0.0345
11636TIP3    H156323   2.091   6.144   2.336  0.1148 -1.5831  2.0326
11636TIP3    H256324   1.942   6.119   2.346 -0.7614  1.1160 -1.9637
11637TIP3   OH256325   3.671   4.303  14.437  0.0127 -0.5497 -0.1755
11637TIP3    H156326   3.714   4.217  14.444  0.1460 -0.5846 -1.3372
11637TIP3    H256327   3.585   4.284  14.398  0.3589 -0.0754 -1.2020
11638TIP3   OH256328   6.578   5.036  15.476  0.9277  0.3069  0.0289
11638TIP3    H156329   6.591   5.019  15.382  1.1053  0.5073  0.0178
11638TIP3    H256330   6.654   4.996  15.518  1.1463  0.7241  0.0365
11639TIP3   OH256331   1.193   1.093   3.783  0.0174  0.4004  0.1903
11639TIP3    H156332   1.248   1.015   3.773  1.4858  1.4450 -0.3807
11639TIP3    H256333   1.104   1.060   3.795 -0.0661 -1.3792 -3.7695
11640TIP3   OH256334   0.213   3.036  16.175  0.6259  0.4482  0.7490
11640TIP3    H156335   0.280   3.078  16.120 -0.3570  1.3914  0.2394
11640TIP3    H256336   0.206   2.947  16.140  0.4255  0.8643 -0.3005
11641TIP3   OH256337   1.364   3.980  13.669 -0.3263 -0.0190  0.3661
11641TIP3    H156338   1.282   3.998  13.715 -0.2655 -1.9146  1.3158
11641TIP3    H256339   1.338   3.925  13.594  0.1031 -1.3340  1.1357
11642TIP3   OH256340   1.304   5.694   3.091 -0.3472  0.3449  0.3308
11642TIP3    H156341   1.395   5.664   3.095  0.1702  1.9456  1.5530
11642TIP3    H256342   1.302   5.757   3.019 -0.3740  0.6113  0.5605
11643TIP3   OH256343   4.860   4.815   5.821 -0.2856 -0.2152 -0.2366
11643TIP3    H156344   4.916   4.760   5.877  0.4763 -0.2842 -1.0347
11643TIP3    H256345   4.917   4.887   5.793 -1.1525  0.7679  0.4563
11644TIP3   OH256346   6.553   6.582  15.447 -0.4201  0.0182  0.3095
11644TIP3    H156347   6.517   6.608  15.362 -1.2048 -0.7866  0.3842
11644TIP3    H256348   6.581   6.665  15.487  0.7116  0.3258 -1.0470
11645TIP3   OH256349   1.637   4.704  16.607  0.0603 -0.1625 -0.5009
11645TIP3    H156350   1.698   4.634  16.583 -1.1082 -0.7948 -1.8442
11645TIP3    H256351   1.689   4.784  16.604  1.1113 -0.8147 -0.3013
11646TIP3   OH256352   6.075   6.526  17.121 -0.3274 -0.0789  0.4374
11646TIP3    H156353   6.163   6.560  17.108  0.2520 -1.5806  0.3741
11646TIP3    H256354   6.087   6.437  17.153 -1.8213 -0.4143  0.1343
11647TIP3   OH256355   3.674   5.650   3.890  0.3831  0.5337  0.1399
11647TIP3    H156356   3.649   5.621   3.802 -0.3253 -0.2409  0.5791
11647TIP3    H256357   3.633   5.586   3.949  0.8141  1.0619  1.0363
11648TIP3   OH256358   1.633   3.306   3.805 -0.0786 -0.3513 -0.6272
11648TIP3    H156359   1.548   3.341   3.779  0.1689  2.0931  1.3527
11648TIP3    H256360   1.666   3.371   3.868  2.7785 -1.7629 -0.5358
11649TIP3   OH256361   3.002   6.107   3.883 -0.0676 -0.0640  0.3509
11649TIP3    H156362   2.935   6.039   3.879  1.1963 -1.3313 -0.3814
11649TIP3    H256363   2.979   6.167   3.812 -0.5505 -0.3652  0.2431
11650TIP3   OH256364   3.271   1.491  11.908 -0.6805  0.3729  0.2643
11650TIP3    H156365   3.270   1.400  11.878  2.2737  0.0388  0.8086
11650TIP3    H256366   3.332   1.491  11.982 -1.0583  2.6944  0.6410
11651TIP3   OH256367   1.940   3.407  14.658 -0.2953 -0.3689 -0.2500
11651TIP3    H156368   1.861   3.376  14.614  0.1716 -0.0399 -1.3532
11651TIP3    H256369   2.011   3.356  14.618 -0.1001 -2.2378  2.2117
11652TIP3   OH256370   2.225   6.229   1.048  0.1445  0.1511 -0.5257
11652TIP3    H156371   2.163   6.243   0.976 -0.7183  0.1030  0.1897
11652TIP3    H256372   2.225   6.135   1.062  1.1219  0.0386 -1.1403
11653TIP3   OH256373   5.685   5.487  12.700  0.4672  0.1162 -0.1372
11653TIP3    H156374   5.724   5.431  12.632  1.6751 -0.0750  0.6922
11653TIP3    H256375   5.725   5.573  12.686  0.4039  0.1827  0.0935
11654TIP3   OH256376   2.742   4.696  15.682  0.1070 -0.1523  0.2167
11654TIP3    H156377   2.806   4.766  15.666  0.3887 -0.3609  0.4080
11654TIP3    H256378   2.706   4.676  15.596  1.1558 -0.8295 -0.0977
11655TIP3   OH256379   6.239   3.483  16.279  0.0613  0.0640  1.0612
11655TIP3    H156380   6.327   3.456  16.253  0.3263  1.7126  0.1247
11655TIP3    H256381   6.181   3.420  16.236  0.7565 -0.6730  1.1877
11656TIP3   OH256382   4.681   5.604  13.035 -0.4337  0.2661  0.0737
11656TIP3    H156383   4.681   5.698  13.052 -1.2061  0.3201 -0.1792
11656TIP3    H256384   4.600   5.588  12.988  0.2173 -0.3583 -0.8698
11657TIP3   OH256385   4.024   5.863   0.316 -0.4321  0.6474  0.1487
11657TIP3    H156386   3.945   5.912   0.340 -1.2939 -0.5805 -0.0977
11657TIP3    H256387   4.082   5.873   0.391 -1.0539  1.0823  0.5823
11658TIP3   OH256388   2.856   4.858  17.314  0.5893 -0.0906 -0.3081
11658TIP3    H156389   2.770   4.834  17.279  0.4767 -0.7162  0.3641
11658TIP3    H256390   2.885   4.930  17.258  0.0234 -0.4597 -1.1083
11659TIP3   OH256391   6.035   1.304   6.188 -0.0696 -0.3047 -0.5454
11659TIP3    H156392   6.043   1.246   6.113 -0.3146  0.4337 -1.1482
11659TIP3    H256393   6.108   1.279   6.245  0.7916 -0.1343 -1.5356
11660TIP3   OH256394   0.433   5.534   2.645  0.3465  0.0990  0.4123
11660TIP3    H156395   0.497   5.570   2.707  0.8369 -0.5929  0.3128
11660TIP3    H256396   0.350   5.535   2.693  0.4575  0.8145  0.6111
11661TIP3   OH256397   6.150   0.577  15.571 -0.5430 -0.1602  0.0096
11661TIP3    H156398   6.155   0.521  15.648  0.4847  1.0672  0.8874
11661TIP3    H256399   6.241   0.600  15.551 -0.7954 -0.3071 -1.4830
11662TIP3   OH256400   0.729   3.042  15.371 -0.1461  0.3313  0.3729
11662TIP3    H156401   0.704   2.950  15.366  0.3200  0.2176  0.0889
11662TIP3    H256402   0.805   3.043  15.429  1.1765  0.2470 -1.2844
11663TIP3   OH256403   0.790   5.438  14.152 -0.4123 -0.1643 -0.9447
11663TIP3    H156404   0.739   5.512  14.120 -0.8961 -0.7351 -1.5218
11663TIP3    H256405   0.873   5.476  14.181 -1.3062  0.8268  0.3910
11664TIP3   OH256406   6.351   1.183  17.226  0.4926  0.1733 -0.5295
11664TIP3    H156407   6.347   1.276  17.203  0.3504  0.0152 -1.1642
11664TIP3    H256408   6.344   1.137  17.142  0.2489 -0.4160 -0.1920
11665TIP3   OH256409   4.920   0.393   5.363  0.2017  0.4028 -0.3689
11665TIP3    H156410   4.832   0.357   5.353  0.8937 -1.2259 -0.9422
11665TIP3    H256411   4.911   0.486   5.339 -1.2005  0.0922 -1.1566
11666TIP3   OH256412   5.158   5.853   3.052 -0.1293 -0.1796  0.1338
11666TIP3    H156413   5.071   5.891   3.039  0.0262 -0.1383 -0.8262
11666TIP3    H256414   5.206   5.874   2.972  0.9119  0.1854  0.8336
11667TIP3   OH256415   2.995   3.509  12.771 -0.0736  0.0374 -0.2124
11667TIP3    H156416   3.088   3.489  12.767 -0.2443 -1.1644  0.8413
11667TIP3    H256417   2.967   3.475  12.857 -0.9495  2.7703  0.7083
11668TIP3   OH256418   1.214   0.536   3.294  0.1037 -0.0385 -0.3127
11668TIP3    H156419   1.286   0.547   3.231 -0.0440  0.9981 -0.3218
11668TIP3    H256420   1.164   0.462   3.261 -0.6924  1.2410 -2.1578
11669TIP3   OH256421   3.901   2.826   0.846 -0.3873  0.5967 -0.7465
11669TIP3    H156422   3.852   2.823   0.928 -0.0210 -0.2197 -0.5470
11669TIP3    H256423   3.980   2.874   0.867 -1.0967  1.9571 -1.0799
11670TIP3   OH256424   0.026   1.012   1.681  0.6675 -0.1036  0.3873
11670TIP3    H156425  -0.012   1.024   1.768 -0.2852 -1.6708  0.2193
11670TIP3    H256426  -0.049   1.008   1.623  1.1899 -1.1093 -0.2382
11671TIP3   OH256427   5.564   5.327  11.500  0.1018  0.4163  0.0410
11671TIP3    H156428   5.620   5.251  11.487 -0.1277  0.1978  0.3245
11671TIP3    H256429   5.505   5.303  11.572 -0.4004  0.6193 -0.2908
11672TIP3   OH256430   2.896   6.342   3.250 -0.0782  0.3907  0.3509
11672TIP3    H156431   2.986   6.375   3.239 -0.9025  2.6606 -0.2138
11672TIP3    H256432   2.850   6.373   3.172 -1.2900 -1.0764  0.4346
11673TIP3   OH256433   0.900   6.181  17.211  0.0891 -0.5569  0.0366
11673TIP3    H156434   0.967   6.144  17.268 -1.0656 -0.5778  1.4694
11673TIP3    H256435   0.907   6.276  17.224 -0.3242 -0.5729  0.4216
11674TIP3   OH256436   5.866   6.720  11.556  0.3744  0.4258 -0.3004
11674TIP3    H156437   5.811   6.782  11.509 -0.6234 -0.2690 -0.0651
11674TIP3    H256438   5.806   6.673  11.614  1.2681 -0.1022  0.2215
11675TIP3   OH256439   3.811   1.007   2.179 -0.6198 -0.4762  0.4100
11675TIP3    H156440   3.734   1.019   2.124 -0.5314  0.1869  0.4192
11675TIP3    H256441   3.793   1.059   2.257  0.0905  0.2157  0.1366
11676TIP3   OH256442   3.820   4.872   3.586 -0.1600 -0.4508  0.3599
11676TIP3    H156443   3.772   4.925   3.523  0.0129  0.8900  1.2919
11676TIP3    H256444   3.885   4.932   3.623 -0.8581 -0.9023  2.4593
11677TIP3   OH256445   6.226   1.233  14.291  0.2908 -0.0392 -0.0819
11677TIP3    H156446   6.316   1.243  14.261 -0.1757  2.8715 -0.8794
11677TIP3    H256447   6.173   1.237  14.212 -0.6250  0.9287  0.5445
11678TIP3   OH256448   1.537   0.026   0.848  0.0501 -0.3168 -0.1427
11678TIP3    H156449   1.566  -0.058   0.885  0.2494 -0.8467 -1.4340
11678TIP3    H256450   1.469   0.002   0.785 -0.0874  0.5248 -0.3261
11679TIP3   OH256451   5.185   6.481   4.226 -0.3631  0.1492  0.0501
11679TIP3    H156452   5.097   6.449   4.245 -0.8585  0.9896 -0.7384
11679TIP3    H256453   5.240   6.442   4.295 -1.3418 -0.3625  0.5699
11680TIP3   OH256454   4.237   4.861  13.630  0.0540  0.4644  0.0808
11680TIP3    H156455   4.277   4.775  13.642  0.6122  0.7448  0.2869
11680TIP3    H256456   4.291   4.903  13.562  0.5562  1.1094  0.8541
11681TIP3   OH256457   3.465   2.703   5.731  0.1072  0.4224 -0.1997
11681TIP3    H156458   3.509   2.789   5.729  0.1598  0.4929  2.0518
11681TIP3    H256459   3.388   2.715   5.676 -0.0557  2.0228  0.3145
11682TIP3   OH256460   1.723   6.515   5.300 -0.6195  0.0959 -0.4031
11682TIP3    H156461   1.719   6.490   5.392  0.4419 -2.0641 -0.8763
11682TIP3    H256462   1.680   6.601   5.296 -0.7237  0.2183  2.0657
11683TIP3   OH256463   5.359   0.597   0.523 -0.1027 -0.2386  0.2342
11683TIP3    H156464   5.309   0.677   0.505  1.8018  1.1298  0.7830
11683TIP3    H256465   5.371   0.556   0.438  0.7978  1.2444 -0.3713
11684TIP3   OH256466   0.859   3.640   4.767  0.5724  0.1308 -0.2065
11684TIP3    H156467   0.903   3.711   4.814 -1.0115  0.5417  0.7212
11684TIP3    H256468   0.839   3.576   4.836 -0.6624  0.1669 -0.5145
11685TIP3   OH256469   4.711   6.254  12.596 -0.8603 -0.6648  0.1981
11685TIP3    H156470   4.711   6.161  12.573 -0.7225 -0.8339  0.8593
11685TIP3    H256471   4.791   6.288  12.557 -1.0063 -0.7809 -0.2065
11686TIP3   OH256472   5.310   4.569  12.517  0.5071  0.1326 -0.7837
11686TIP3    H156473   5.323   4.474  12.519 -1.9327 -0.2970 -1.4041
11686TIP3    H256474   5.290   4.591  12.608  0.6406 -0.0302 -0.7135
11687TIP3   OH256475   0.465   5.376   5.614 -0.1717  0.4949 -0.4854
11687TIP3    H156476   0.419   5.413   5.689 -0.1875 -0.3268 -0.0746
11687TIP3    H256477   0.511   5.450   5.575  0.8308  0.7261  1.0530
11688TIP3   OH256478   5.418   2.880   4.847  0.3910 -0.6455 -0.1026
11688TIP3    H156479   5.482   2.933   4.895  0.3321  0.8411 -1.5481
11688TIP3    H256480   5.379   2.823   4.914  0.3203  1.2858  1.6332
11689TIP3   OH256481   2.621   4.807   5.171  0.3704 -0.2217  0.0184
11689TIP3    H156482   2.677   4.797   5.094 -0.5748 -1.4198 -0.5418
11689TIP3    H256483   2.672   4.772   5.243 -0.5056 -3.7725 -0.8887
11690TIP3   OH256484   5.176   2.117   5.478 -0.5631  0.2099 -0.2845
11690TIP3    H156485   5.181   2.057   5.403  0.6925 -0.9905  0.7263
11690TIP3    H256486   5.092   2.162   5.466 -0.5972 -0.2463 -2.1774
11691TIP3   OH256487   4.477   5.101   3.185 -0.1587 -0.5984  0.1580
11691TIP3    H156488   4.398   5.056   3.153 -0.4164  0.0877 -0.1904
11691TIP3    H256489   4.518   5.136   3.106  1.1051 -1.8905  0.2076
11692TIP3   OH256490   6.699   3.874  17.094  0.7915 -0.0783  0.3788
11692TIP3    H156491   6.668   3.817  17.024  0.3346  0.2199  0.3322
11692TIP3    H256492   6.790   3.848  17.107  0.9251 -0.0576 -0.4148
11693TIP3   OH256493   2.204   0.535   5.908  0.2999 -0.2884  0.0805
11693TIP3    H156494   2.268   0.582   5.960  0.2680  1.3074 -1.2605
11693TIP3    H256495   2.173   0.465   5.966  1.5888  0.2863  1.5250
11694TIP3   OH256496   1.786   6.230   5.328 -0.2969  0.2277  0.7905
11694TIP3    H156497   1.718   6.171   5.295  0.3097  0.8062 -1.7041
11694TIP3    H256498   1.774   6.311   5.279  0.9827  1.0078  1.7068
11695TIP3   OH256499   5.671   0.323   4.289 -0.1123 -0.0942  0.4809
11695TIP3    H156500   5.696   0.415   4.300  0.5984 -0.2178 -0.0156
11695TIP3    H256501   5.693   0.282   4.372 -0.4440  0.1895  0.7095
11696TIP3   OH256502   1.555   1.109   0.339  0.5233  0.0328 -0.2306
11696TIP3    H156503   1.512   1.033   0.299 -0.8167 -0.5165  2.0489
11696TIP3    H256504   1.648   1.092   0.327  0.2841 -2.2007  0.4958
11697TIP3   OH256505   4.347   1.944  14.902 -0.1145  0.0653  0.3386
11697TIP3    H156506   4.399   2.004  14.848 -1.8307  1.4397  0.0788
11697TIP3    H256507   4.281   2.001  14.941 -1.8276 -1.6693  0.0998
11698TIP3   OH256508   6.269   1.484  16.318  0.2692  0.7044 -0.0206
11698TIP3    H156509   6.179   1.509  16.339  0.9093  2.0497  1.2950
11698TIP3    H256510   6.272   1.389  16.332 -1.3037  0.3590 -1.6097
11699TIP3   OH256511   6.144   0.264  14.234  0.0287 -0.2200 -0.0096
11699TIP3    H156512   6.086   0.309  14.296  0.4212 -0.7703  0.7882
11699TIP3    H256513   6.175   0.333  14.175 -1.2851  0.1085 -0.3399
11700TIP3   OH256514   3.498   5.798  11.325  0.5268  0.1856  0.0361
11700TIP3    H156515   3.410   5.812  11.291  0.1565  0.2569  0.9912
11700TIP3    H256516   3.555   5.810  11.250 -0.3460 -0.8305 -0.8234
11701TIP3   OH256517   1.609   0.274   4.314  0.6774 -0.3554 -0.0549
11701TIP3    H156518   1.634   0.186   4.344 -0.4220 -0.3856  0.8209
11701TIP3    H256519   1.660   0.287   4.234  1.3334 -1.5367  0.1473
11702TIP3   OH256520   0.522   0.163  14.959  0.3408 -0.1448  0.0161
11702TIP3    H156521   0.611   0.175  14.993  0.3299  0.8967 -0.3066
11702TIP3    H256522   0.476   0.244  14.981 -0.7082 -0.8950  0.6838
11703TIP3   OH256523   2.694   5.012   5.943 -1.1176  0.4374  0.1295
11703TIP3    H156524   2.685   4.956   6.020 -1.2303  0.4132  0.0986
11703TIP3    H256525   2.672   4.955   5.869  1.4086 -0.2652 -0.1708
11704TIP3   OH256526   3.190   0.404   0.555  0.4627 -0.1846 -0.3049
11704TIP3    H156527   3.281   0.424   0.577  0.2958  0.7575 -0.4322
11704TIP3    H256528   3.155   0.364   0.635  0.9214 -0.3486 -0.1779
11705TIP3   OH256529   4.915   4.709  11.567  0.3781  0.0636  0.5441
11705TIP3    H156530   4.927   4.618  11.540  1.5684  1.1872 -3.2938
11705TIP3    H256531   5.004   4.741  11.581  0.1476  1.2198 -0.4886
11706TIP3   OH256532   4.452   3.919  11.388  0.4007  0.3848 -0.0700
11706TIP3    H156533   4.445   3.948  11.297 -0.8103  0.3543 -0.0156
11706TIP3    H256534   4.545   3.905  11.403  0.7149  1.3871 -0.9883
11707TIP3   OH256535   1.279   6.362   6.050 -0.3906 -0.5130  0.2961
11707TIP3    H156536   1.343   6.295   6.025  0.7543 -0.6852  3.2903
11707TIP3    H256537   1.332   6.437   6.076 -1.5559  0.3331  0.3047
11708TIP3   OH256538   1.948   6.565  10.653  0.2851  0.3797 -0.1198
11708TIP3    H156539   1.973   6.655  10.636  0.0470  0.3560 -0.6456
11708TIP3    H256540   1.859   6.571  10.688  0.2427  0.3518 -0.2194
11709TIP3   OH256541   0.389   0.445  15.483 -0.0348  0.0026  0.0383
11709TIP3    H156542   0.418   0.443  15.574 -1.5915 -0.9989  0.5460
11709TIP3    H256543   0.459   0.399  15.435  0.0071 -0.9798  0.9937
11710TIP3   OH256544   4.802   1.623  15.782 -0.7965  0.6068 -0.3201
11710TIP3    H156545   4.780   1.672  15.862 -0.3338  1.5856 -0.7733
11710TIP3    H256546   4.719   1.614  15.735 -1.3877 -1.3671  0.9782
11711TIP3   OH256547   5.379   4.337  16.989  0.4662 -0.4490  0.3296
11711TIP3    H156548   5.387   4.304  17.079  0.0612  0.5775  0.7674
11711TIP3    H256549   5.450   4.401  16.981 -0.1960  0.2992  0.3164
11712TIP3   OH256550   3.194   2.309  10.786  0.1882 -0.3546 -0.5061
11712TIP3    H156551   3.271   2.332  10.839 -0.3164  0.2076 -0.0063
11712TIP3    H256552   3.151   2.240  10.836  0.7462 -1.1723 -1.1376
11713TIP3   OH256553   4.409   3.056   5.359  0.0085 -0.3262 -0.6282
11713TIP3    H156554   4.384   3.058   5.266  0.6268 -1.9215 -0.8507
11713TIP3    H256555   4.426   3.148   5.381  0.4533  0.0133 -2.2604
11714TIP3   OH256556   3.244   3.462  13.801  0.3074  0.4894  0.0849
11714TIP3    H156557   3.183   3.531  13.772 -0.2040  0.3762  0.8606
11714TIP3    H256558   3.211   3.435  13.886 -0.1857 -1.5288 -0.6822
11715TIP3   OH256559   1.248   2.903   3.937 -0.1267  0.3824  0.7851
11715TIP3    H156560   1.242   2.808   3.920  0.2666  0.0386  2.4251
11715TIP3    H256561   1.322   2.932   3.884  1.8764 -0.8856  2.7354
11716TIP3   OH256562   2.040   2.228   5.390 -0.1695 -0.0061 -0.1499
11716TIP3    H156563   2.075   2.317   5.397 -0.6820  0.1059  1.5583
11716TIP3    H256564   1.968   2.226   5.453 -0.4902 -1.4910 -0.5235
11717TIP3   OH256565   3.476   5.965   4.874 -0.4021 -0.3457 -0.3745
11717TIP3    H156566   3.536   6.004   4.938 -2.6268  0.0446  1.5836
11717TIP3    H256567   3.456   6.036   4.814 -0.9967  0.3058  0.5708
11718TIP3   OH256568   1.974   2.821   4.292 -0.1405  0.2808  0.1718
11718TIP3    H156569   1.953   2.886   4.359  0.2293  1.5262 -0.8780
11718TIP3    H256570   2.057   2.784   4.319 -1.0595 -0.8725  1.5689
11719TIP3   OH256571   6.622   0.458   0.567  0.0371 -0.5242  0.0376
11719TIP3    H156572   6.613   0.517   0.492  0.6662 -1.5260 -0.8499
11719TIP3    H256573   6.665   0.380   0.531  0.0668 -1.1460  1.3804
11720TIP3   OH256574   4.467   2.891  15.218  0.1310 -0.2453  0.3254
11720TIP3    H156575   4.523   2.966  15.201 -0.4490 -0.0710 -0.9133
11720TIP3    H256576   4.466   2.842  15.136 -2.7253  0.5708 -0.2563
11721TIP3   OH256577   1.678   5.430  12.370 -0.6008  0.0696  0.1166
11721TIP3    H156578   1.621   5.397  12.300 -1.2629  1.1314  0.1427
11721TIP3    H256579   1.762   5.444  12.328 -0.7817 -0.0352 -0.2830
11722TIP3   OH256580   4.418   5.216   1.170 -0.0621  0.2757  0.1880
11722TIP3    H156581   4.359   5.261   1.109 -0.4096  0.3594  0.5844
11722TIP3    H256582   4.477   5.166   1.113 -0.6969 -0.0353 -0.2068
11723TIP3   OH256583   6.088   5.177  14.607 -0.4166 -0.3146  0.2667
11723TIP3    H156584   6.000   5.173  14.570 -0.6679 -0.2980  0.8451
11723TIP3    H256585   6.074   5.209  14.697  0.3113  1.0860 -0.0891
11724TIP3   OH256586   3.708   0.930   1.488 -0.1062 -0.5052  0.3173
11724TIP3    H156587   3.663   0.864   1.435 -0.0789 -0.9434  0.8248
11724TIP3    H256588   3.642   0.960   1.551 -0.6132  1.1766 -0.9552
11725TIP3   OH256589   3.024   0.135   5.683 -0.0016  0.1324  0.3284
11725TIP3    H156590   2.932   0.163   5.693 -0.0110 -0.4324  1.9306
11725TIP3    H256591   3.022   0.077   5.607 -1.3152 -1.2433  1.3486
11726TIP3   OH256592   1.534   2.950   1.184 -0.4893 -0.5300  0.2491
11726TIP3    H156593   1.499   2.898   1.255  1.4436 -1.8732  0.3062
11726TIP3    H256594   1.553   2.887   1.114 -0.1463  0.4171 -0.5478
11727TIP3   OH256595   3.025   6.563  13.865 -0.3296  0.3422  0.3020
11727TIP3    H156596   3.009   6.643  13.913  1.1809  0.8354  0.0499
11727TIP3    H256597   2.998   6.582  13.775  0.8436  0.9092  0.0437
11728TIP3   OH256598   4.241   6.438   6.337  0.3376 -0.0512 -0.0582
11728TIP3    H156599   4.228   6.438   6.242 -1.8328  0.8582  0.1829
11728TIP3    H256600   4.307   6.505   6.352 -0.1346  0.6083 -0.8406
11729TIP3   OH256601   6.485   2.668  13.219 -0.0735 -0.2667  0.5220
11729TIP3    H156602   6.440   2.587  13.195 -0.2990 -0.0553  0.2271
11729TIP3    H256603   6.578   2.643  13.224 -0.2450 -0.7630  1.4060
11730TIP3   OH256604   5.432   3.868  16.862 -0.4776  0.3170 -0.4089
11730TIP3    H156605   5.397   3.843  16.947 -1.5766 -0.7102 -1.1140
11730TIP3    H256606   5.518   3.905  16.881 -1.5046  1.9660  1.3038
11731TIP3   OH256607   4.690   5.526   4.699  0.5694  0.0262 -0.3969
11731TIP3    H156608   4.674   5.464   4.770 -1.1135  0.6887 -0.1424
11731TIP3    H256609   4.630   5.498   4.629  0.9516  0.4108 -0.8807
11732TIP3   OH256610   1.571   5.692  12.995  0.6095 -0.0959  0.0774
11732TIP3    H156611   1.547   5.631  13.065 -0.0676  0.2880  0.1893
11732TIP3    H256612   1.651   5.655  12.958 -0.5005 -1.8137 -0.7602
11733TIP3   OH256613   5.139   3.001   3.203 -0.2533 -0.0458 -0.4689
11733TIP3    H156614   5.210   3.038   3.151 -1.2596 -0.3261 -2.1260
11733TIP3    H256615   5.059   3.036   3.163 -1.0817  0.5581  1.5600
11734TIP3   OH256616   4.932   4.449  10.788  0.4707  0.2136  0.1161
11734TIP3    H156617   5.004   4.400  10.829  0.6505  0.8918  0.6209
11734TIP3    H256618   4.918   4.404  10.704 -0.5091 -1.7614  1.2565
11735TIP3   OH256619   4.644   0.126  16.483  0.0383 -0.3890 -0.2902
11735TIP3    H156620   4.656   0.040  16.441  0.3352  0.0325 -1.0787
11735TIP3    H256621   4.722   0.175  16.459  0.0447 -0.0133  0.4727
11736TIP3   OH256622   3.776   6.557   0.325 -0.2800 -0.3539 -0.3367
11736TIP3    H156623   3.862   6.565   0.284 -0.3894 -0.0084 -0.5054
11736TIP3    H256624   3.720   6.617   0.276 -0.2057  0.7358  0.8682
11737TIP3   OH256625   0.757   3.262   4.416 -0.1274 -0.3927 -0.1510
11737TIP3    H156626   0.732   3.327   4.482 -0.4827 -0.7276  0.0483
11737TIP3    H256627   0.736   3.178   4.457 -1.0249 -0.5797 -0.9612
11738TIP3   OH256628   1.599   6.723  15.096  0.1170 -0.0023 -0.4549
11738TIP3    H156629   1.565   6.702  15.183  0.0082  0.1886 -0.4510
11738TIP3    H256630   1.548   6.800  15.068  2.3513  2.0096  0.6678
11739TIP3   OH256631   6.313   3.540   4.765 -0.7421  0.2550 -0.0630
11739TIP3    H156632   6.233   3.592   4.776  0.3463  1.5306  2.6958
11739TIP3    H256633   6.381   3.604   4.744 -0.1444 -0.6258 -0.8854
11740TIP3   OH256634   6.049   0.369  12.599 -0.6913  0.1865  0.5886
11740TIP3    H156635   6.071   0.410  12.683  0.2727 -2.6327  1.8319
11740TIP3    H256636   5.957   0.344  12.609 -0.3410 -0.9025  1.1677
11741TIP3   OH256637   3.590   6.483  11.840 -0.3951  0.4677 -0.0936
11741TIP3    H156638   3.525   6.420  11.873 -1.7191  0.3371 -2.7254
11741TIP3    H256639   3.565   6.566  11.880 -0.0084 -0.1858  1.6276
11742TIP3   OH256640   0.553   3.927  16.909  0.0170  0.2383  0.0957
11742TIP3    H156641   0.581   3.857  16.969  0.3749  2.0997  2.2467
11742TIP3    H256642   0.635   3.961  16.872 -0.0296  0.4837  0.2151
11743TIP3   OH256643   2.046   2.268   3.756 -0.1541 -0.0152 -0.0613
11743TIP3    H156644   2.015   2.352   3.722  0.6097  0.6545  0.8249
11743TIP3    H256645   2.119   2.244   3.699  0.1498  0.3422  0.1719
11744TIP3   OH256646   0.874   3.607   1.457  0.4205 -0.5908  0.1134
11744TIP3    H156647   0.781   3.628   1.445  0.2400 -0.0427  2.1222
11744TIP3    H256648   0.876   3.553   1.536  1.9146  0.3274  0.7415
11745TIP3   OH256649   2.773   6.256  11.463  0.6521 -0.1384 -0.1837
11745TIP3    H156650   2.801   6.196  11.532 -2.9854 -2.1633 -0.2355
11745TIP3    H256651   2.743   6.334  11.510  2.9944  0.6932  0.0552
11746TIP3   OH256652   1.528   2.809   6.486  0.1343  0.0220 -0.0710
11746TIP3    H156653   1.589   2.784   6.556 -0.6498 -1.0411  0.2697
11746TIP3    H256654   1.510   2.902   6.502  2.2837  0.6003 -0.6921
11747TIP3   OH256655   3.058   6.187   4.682  0.6012 -0.3438  0.2528
11747TIP3    H156656   3.022   6.123   4.622  2.6409 -2.0395  0.7220
11747TIP3    H256657   3.079   6.138   4.761  0.1417  1.3681  1.5135
11748TIP3   OH256658   6.636   5.424  11.195  0.3089 -0.4308 -0.6656
11748TIP3    H156659   6.612   5.433  11.287 -1.4196 -0.8599 -1.0398
11748TIP3    H256660   6.599   5.340  11.169 -0.0404  0.1073 -1.9798
11749TIP3   OH256661   0.604   5.151  15.725 -0.4148  0.3311  0.0106
11749TIP3    H156662   0.694   5.170  15.702 -0.9252 -0.0993 -2.6550
11749TIP3    H256663   0.577   5.083  15.663 -2.3598 -0.0719  1.2003
11750TIP3   OH256664   5.034   2.115  13.088  0.2028 -1.1000  0.1747
11750TIP3    H156665   4.946   2.104  13.125  1.2398  0.5059  3.4939
11750TIP3    H256666   5.081   2.037  13.116  0.2211 -1.2634 -0.3145
11751TIP3   OH256667   5.685   2.958  13.393  0.1195  0.2228  0.3618
11751TIP3    H156668   5.682   2.862  13.399 -0.2188  0.1481 -0.7410
11751TIP3    H256669   5.604   2.986  13.436 -2.0625 -0.2598 -3.1136
11752TIP3   OH256670   4.997   2.695   3.067 -0.1925 -0.0078  0.4013
11752TIP3    H156671   5.087   2.697   3.035  0.0732  1.9494  1.1452
11752TIP3    H256672   5.002   2.726   3.157 -1.7557  1.6882 -0.0209
11753TIP3   OH256673   6.382   2.896   3.673  0.1431 -0.0683 -0.1971
11753TIP3    H156674   6.382   2.887   3.578  1.6675  0.8289 -0.3175
11753TIP3    H256675   6.400   2.989   3.688 -3.4246  0.6210  0.9809
11754TIP3   OH256676   4.248   0.523   2.646  0.2920 -0.5147 -0.1653
11754TIP3    H156677   4.159   0.546   2.619 -0.8589 -1.6839  2.2468
11754TIP3    H256678   4.297   0.518   2.565 -1.6986  0.6822 -1.5562
11755TIP3   OH256679   2.859   6.337   3.802  0.1323 -0.3035  0.5436
11755TIP3    H156680   2.865   6.381   3.886  0.9641  0.5106  0.0749
11755TIP3    H256681   2.774   6.365   3.766  0.0500 -0.1757  0.8407
11756TIP3   OH256682   1.790   3.316  17.197 -0.4260 -0.4774 -0.3484
11756TIP3    H156683   1.823   3.286  17.112  0.3029  1.3415 -0.7556
11756TIP3    H256684   1.861   3.369  17.233 -0.9026 -0.8404  1.2154
11757TIP3   OH256685   6.444   5.947  16.994 -0.3677  0.0415 -0.2900
11757TIP3    H156686   6.378   5.911  17.052  1.1026 -2.8235 -0.2323
11757TIP3    H256687   6.474   6.026  17.039 -0.6378 -1.0302  1.9007
11758TIP3   OH256688   5.488   0.980  14.361 -0.6345 -0.4674 -0.0604
11758TIP3    H156689   5.506   1.012  14.272  0.7142  0.8147  0.6401
11758TIP3    H256690   5.520   1.050  14.418 -0.2841 -1.8389  1.4752
11759TIP3   OH256691   0.559   5.123   0.739  0.3541 -0.2780 -0.0785
11759TIP3    H156692   0.572   5.042   0.690  0.1239 -0.7028  0.5490
11759TIP3    H256693   0.630   5.123   0.804  0.6408  0.2635 -0.3900
11760TIP3   OH256694   4.774   0.525  12.599 -0.3441 -0.2087 -0.1766
11760TIP3    H156695   4.724   0.515  12.680  0.5427  0.6721  0.5028
11760TIP3    H256696   4.730   0.468  12.536 -0.1472 -2.1069  1.3292
11761TIP3   OH256697   6.617   1.012  17.234  0.3624 -0.3786  0.0890
11761TIP3    H156698   6.535   1.054  17.260  0.3569  0.6745 -1.4633
11761TIP3    H256699   6.678   1.084  17.220  0.5493 -0.8662 -2.0163
11762TIP3   OH256700   4.497   0.622   4.241 -0.1602  0.7100 -0.2928
11762TIP3    H156701   4.552   0.552   4.205 -0.9469  0.3705 -0.8790
11762TIP3    H256702   4.482   0.681   4.167  0.6020  1.5772  0.2320
11763TIP3   OH256703   4.276   6.308   5.141  0.0959  0.5546 -0.5024
11763TIP3    H156704   4.238   6.231   5.098 -1.0629 -0.6733  2.4600
11763TIP3    H256705   4.226   6.382   5.106 -0.5294 -0.2996 -1.4864
11764TIP3   OH256706   3.868   3.644   0.242  0.4138 -0.3329 -0.0386
11764TIP3    H156707   3.887   3.677   0.154 -0.0315  0.3278  0.1139
11764TIP3    H256708   3.830   3.558   0.227 -1.4517  0.5521 -0.5975
11765TIP3   OH256709   5.015   0.233   2.045  0.7092 -0.4729  0.1054
11765TIP3    H156710   4.947   0.268   1.988  0.4586  0.5331  0.9991
11765TIP3    H256711   5.015   0.139   2.027 -0.1889 -0.3365 -0.6686
11766TIP3   OH256712   6.166   6.237   1.784  0.2968  0.0486 -0.4615
11766TIP3    H156713   6.209   6.222   1.700 -0.3952 -0.2352 -0.7653
11766TIP3    H256714   6.074   6.247   1.763  0.1576  0.2660  0.2355
11767TIP3   OH256715   3.582   4.468  14.945 -0.1628 -0.1066  0.2754
11767TIP3    H156716   3.648   4.400  14.931  0.1168  0.1590  0.2887
11767TIP3    H256717   3.525   4.463  14.868  0.1010 -0.0821  0.0768
11768TIP3   OH256718   0.087   1.467  17.058  0.0257 -0.6718 -0.3873
11768TIP3    H156719   0.137   1.493  17.135 -0.6756  1.4587 -0.5598
11768TIP3    H256720   0.143   1.489  16.984 -0.1286 -0.7037 -0.5151
11769TIP3   OH256721   5.637   0.965  12.687 -0.6857  0.8022 -0.6297
11769TIP3    H156722   5.691   1.041  12.667  0.2483  0.4418  0.4193
11769TIP3    H256723   5.637   0.960  12.783 -0.4099 -0.7290 -0.6884
11770TIP3   OH256724   6.038   0.496  11.529  0.0249  0.6321  0.2913
11770TIP3    H156725   5.951   0.513  11.494  0.3510 -1.3224 -1.6819
11770TIP3    H256726   6.094   0.561  11.488 -0.0042 -0.1437 -1.0322
11771TIP3   OH256727   0.853   2.712   4.658  0.0221 -0.2606  0.0605
11771TIP3    H156728   0.770   2.694   4.615  0.1133  0.9110 -0.6566
11771TIP3    H256729   0.919   2.674   4.600 -0.0373 -2.7937  1.5079
11772TIP3   OH256730   3.803   5.420  12.607  0.3496 -0.1818  0.9651
11772TIP3    H156731   3.799   5.484  12.535 -1.6523 -0.2636  0.9448
11772TIP3    H256732   3.812   5.336  12.563 -1.2709 -0.2706  0.7378
11773TIP3   OH256733   3.114   3.914   2.465  0.4320 -0.4974 -0.0639
11773TIP3    H156734   3.193   3.945   2.509 -1.1109  2.3994  0.9276
11773TIP3    H256735   3.117   3.956   2.379  0.4468 -1.1901 -0.4041
11774TIP3   OH256736   6.072   6.292  10.634 -0.0734 -0.0657  0.1417
11774TIP3    H156737   6.120   6.360  10.681 -0.7493  0.0149  0.7362
11774TIP3    H256738   6.128   6.269  10.560  0.8079  0.1322  0.7348
11775TIP3   OH256739   5.405   4.061  12.223 -0.0128 -0.2587 -0.6339
11775TIP3    H156740   5.329   4.019  12.263 -0.1002 -0.7903 -1.3391
11775TIP3    H256741   5.480   4.009  12.253 -0.0843 -0.6950 -1.1955
11776TIP3   OH256742   5.122   3.830   0.131  0.6777 -0.1238 -0.0658
11776TIP3    H156743   5.111   3.735   0.132  0.1325 -0.0554  0.3659
11776TIP3    H256744   5.216   3.843   0.147  0.7889 -0.5885 -0.3158
11777TIP3   OH256745   6.497   1.442   3.872 -0.2781 -0.1110  0.2200
11777TIP3    H156746   6.506   1.518   3.929 -0.4832  0.0573  0.0299
11777TIP3    H256747   6.460   1.374   3.929  1.6708 -0.6680  0.8811
11778TIP3   OH256748   1.545   4.911  11.447 -0.3335  0.2460 -0.2148
11778TIP3    H156749   1.475   4.862  11.405  1.2439 -1.7766 -0.6662
11778TIP3    H256750   1.570   4.859  11.523  2.1923 -0.4141 -1.3623
11779TIP3   OH256751   2.549   5.839  10.677  0.6273  0.2953 -0.6812
11779TIP3    H156752   2.481   5.898  10.646 -0.7858  0.2283  1.9852
11779TIP3    H256753   2.593   5.887  10.747 -0.8474 -1.7951  1.8721
11780TIP3   OH256754   6.648   6.473   0.783 -0.5992 -0.0699  0.1056
11780TIP3    H156755   6.692   6.423   0.714  1.0035  0.5478  0.6277
11780TIP3    H256756   6.576   6.518   0.739 -0.2589 -0.5322 -0.9407
11781TIP3   OH256757   4.421   0.364   1.702  0.3546 -0.2148  0.4044
11781TIP3    H156758   4.367   0.297   1.744  0.1201  0.5991  1.4362
11781TIP3    H256759   4.411   0.347   1.608 -3.2193  1.0123  0.3989
11782TIP3   OH256760   3.918   5.548  14.218  0.3098 -0.0773 -0.2558
11782TIP3    H156761   3.989   5.484  14.217  0.8175  0.4269 -3.0194
11782TIP3    H256762   3.877   5.536  14.304  0.3225 -4.1670 -0.6104
11783TIP3   OH256763   6.076   4.830  12.335  0.3685 -0.7312 -0.1697
11783TIP3    H156764   6.013   4.897  12.310  1.5862  0.2597 -0.7241
11783TIP3    H256765   6.029   4.774  12.396 -0.1178  1.8812  2.0618
11784TIP3   OH256766   1.373   3.201  11.745  0.3975 -0.2901  0.0630
11784TIP3    H156767   1.417   3.208  11.660  0.3326 -0.3211  0.0276
11784TIP3    H256768   1.282   3.224  11.727  0.3597 -0.4083  0.1029
11785TIP3   OH256769   1.574   3.927   0.458  0.5019  0.0285 -0.0705
11785TIP3    H156770   1.668   3.930   0.442  1.0655 -1.6618  2.2876
11785TIP3    H256771   1.547   3.840   0.429 -0.6670  0.9582 -1.9509
11786TIP3   OH256772   0.186   1.954  12.757  0.0983  0.4197  0.0144
11786TIP3    H156773   0.200   1.869  12.800 -0.5605  0.7618  0.9219
11786TIP3    H256774   0.096   1.950  12.724  0.5359  0.2307 -1.2072
11787TIP3   OH256775   4.205   1.233  14.775 -0.2388  0.3909 -0.2461
11787TIP3    H156776   4.290   1.277  14.773 -0.1820  0.3074  0.1418
11787TIP3    H256777   4.155   1.281  14.842 -0.1775 -0.1241  0.1754
11788TIP3   OH256778   6.408   6.113   1.005  0.2887 -0.3087  0.3211
11788TIP3    H156779   6.424   6.031   1.052  0.7751 -1.2148 -1.3578
11788TIP3    H256780   6.477   6.117   0.939  1.3039  2.3235  1.4063
11789TIP3   OH256781   0.255   6.104  17.374  0.4779  0.1605 -0.0764
11789TIP3    H156782   0.277   6.054  17.295  1.8286  0.5109  0.0423
11789TIP3    H256783   0.241   6.037  17.441  0.1889 -0.1120 -0.4034
11790TIP3   OH256784   1.112   5.811  11.874 -0.3662  0.4125 -0.0087
11790TIP3    H156785   1.070   5.746  11.818 -1.0265  1.9179 -1.3143
11790TIP3    H256786   1.058   5.812  11.954 -0.9799  0.1281 -0.4160
11791TIP3   OH256787   6.619   4.061  11.154  0.2321 -0.0744  0.3099
11791TIP3    H156788   6.637   4.051  11.060 -0.9846  0.1928  0.0337
11791TIP3    H256789   6.593   4.152  11.164 -1.3599 -0.5300  0.5914
11792TIP3   OH256790   6.678   1.723   1.427  0.0521  0.0824  0.0240
11792TIP3    H156791   6.741   1.787   1.462  0.1480  0.3572 -0.6429
11792TIP3    H256792   6.599   1.737   1.480 -0.2362  1.4036 -0.7067
11793TIP3   OH256793   6.011   0.997  11.870 -0.2108  0.2208  0.1590
11793TIP3    H156794   5.992   1.072  11.926 -1.5628 -0.2588  0.3812
11793TIP3    H256795   5.939   0.996  11.806 -0.6756 -1.3121  0.6417
11794TIP3   OH256796   0.038   6.274  16.424  0.0345 -0.0237 -0.1849
11794TIP3    H156797  -0.046   6.257  16.381  0.6391 -0.2265 -1.3268
11794TIP3    H256798   0.086   6.329  16.362  1.7855 -2.1088 -0.8030
11795TIP3   OH256799   3.030   5.192   3.458  0.3522 -0.2558 -0.0195
11795TIP3    H156800   3.120   5.220   3.471  0.1796  0.2685  0.0979
11795TIP3    H256801   3.027   5.162   3.367  0.7744 -0.7997  0.1489
11796TIP3   OH256802   2.600   0.763  12.575 -0.4690  0.0950  0.0288
11796TIP3    H156803   2.519   0.810  12.590  0.5732  1.7394  0.8133
11796TIP3    H256804   2.625   0.785  12.486 -0.2748  0.5753  0.2008
11797TIP3   OH256805   0.036   0.966   3.337 -0.5890 -0.1289  0.2523
11797TIP3    H156806   0.034   0.927   3.249  0.1511 -0.8443  0.5343
11797TIP3    H256807   0.086   1.047   3.327  1.3849 -1.2538  0.3658
11798TIP3   OH256808   2.539   3.062   2.140 -1.2684  0.0436 -0.2792
11798TIP3    H156809   2.466   3.008   2.169  0.6613 -2.0439  1.0007
11798TIP3    H256810   2.553   3.037   2.049 -0.7770 -1.2429  0.1280
11799TIP3   OH256811   3.686   5.240   5.692 -0.1890  0.0546 -0.5953
11799TIP3    H156812   3.704   5.314   5.750  1.9316 -0.0616 -1.0164
11799TIP3    H256813   3.681   5.278   5.604  0.0004 -0.1773 -0.7087
11800TIP3   OH256814   1.291   6.601  12.215  0.2894  0.0001 -0.6488
11800TIP3    H156815   1.311   6.622  12.124  1.7634 -0.6021 -0.4950
11800TIP3    H256816   1.217   6.541  12.211  0.5256 -0.2410 -1.4700
11801TIP3   OH256817   4.969   1.058   0.802  0.0662 -0.5434  0.0501
11801TIP3    H156818   4.941   1.086   0.715 -2.9229 -1.5675  0.5902
11801TIP3    H256819   4.889   1.031   0.846  1.7320 -2.0166  2.4260
11802TIP3   OH256820   5.405   1.913  10.813 -0.1422  0.5261  0.5418
11802TIP3    H156821   5.501   1.908  10.815 -0.1471  0.7511  1.3721
11802TIP3    H256822   5.380   1.852  10.743  0.5613 -0.1948  0.8992
11803TIP3   OH256823   5.638   3.216  12.276 -0.4146 -0.1036 -0.6193
11803TIP3    H156824   5.684   3.135  12.297 -0.3215  0.6349  2.4424
11803TIP3    H256825   5.688   3.285  12.319 -2.1841  1.2109 -0.5265
11804TIP3   OH256826   5.268   3.622   0.384 -0.2674 -0.0785  0.3753
11804TIP3    H156827   5.239   3.531   0.392  0.2558 -0.1892  1.2114
11804TIP3    H256828   5.230   3.666   0.461 -0.2393  0.3311  0.1597
11805TIP3   OH256829   2.944   0.165  16.399  0.3238 -0.0263 -0.0066
11805TIP3    H156830   2.918   0.079  16.367 -1.6187  0.5381 -0.0693
11805TIP3    H256831   2.933   0.160  16.494  0.9456 -0.0691  0.0675
11806TIP3   OH256832   6.543   1.733  16.291  0.4053  0.2335  0.1245
11806TIP3    H156833   6.549   1.815  16.340 -1.8102  1.9316 -2.1906
11806TIP3    H256834   6.460   1.694  16.320 -0.1764  0.5090 -1.1057
11807TIP3   OH256835   5.760   6.539   0.345  0.1965 -0.5897  0.0679
11807TIP3    H156836   5.852   6.552   0.366  0.6596 -1.9776 -0.9200
11807TIP3    H256837   5.715   6.537   0.429  0.8585  1.3438  0.5104
11808TIP3   OH256838   4.696   3.724  15.727 -0.1512  0.1301  0.4547
11808TIP3    H156839   4.625   3.661  15.715  0.4798 -0.5385  0.1400
11808TIP3    H256840   4.656   3.797  15.774 -1.1582 -0.0257 -0.1340
11809TIP3   OH256841   0.444   0.343  11.803  0.0171 -0.4610 -0.3520
11809TIP3    H156842   0.414   0.276  11.864  0.3312 -0.3066 -0.0261
11809TIP3    H256843   0.427   0.426  11.848 -2.3469 -0.1819 -1.5945
11810TIP3   OH256844   6.557   6.138   6.937 -0.1691  0.4060 -0.2604
11810TIP3    H156845   6.511   6.072   6.885  0.1070  0.4583 -0.5782
11810TIP3    H256846   6.633   6.161   6.884  0.4830 -0.0282  0.4871
11811TIP3   OH256847   1.269   3.627  16.729  0.1789  0.0027  0.1514
11811TIP3    H156848   1.178   3.620  16.758 -0.2836 -0.2348 -1.3032
11811TIP3    H256849   1.307   3.692  16.789 -1.2934  1.0989 -0.0200
11812TIP3   OH256850   1.131   2.275  15.491  0.0968  0.6370 -0.4328
11812TIP3    H156851   1.137   2.223  15.410  0.7702 -2.2419  1.2920
11812TIP3    H256852   1.037   2.290  15.502 -0.0805  0.2734 -1.2976
11813TIP3   OH256853   1.878   5.678  13.123  0.1972 -0.0042 -0.4942
11813TIP3    H156854   1.944   5.633  13.174  0.0239 -0.5871 -0.7750
11813TIP3    H256855   1.855   5.755  13.175  1.4422  0.4822 -0.6193
11814TIP3   OH256856   3.813   6.057  10.543 -0.4189  0.9070 -0.3254
11814TIP3    H156857   3.769   6.125  10.594  0.0660  0.7748  0.2638
11814TIP3    H256858   3.831   5.987  10.605  0.6384  0.9603 -0.5484
11815TIP3   OH256859   6.372   0.302   0.594 -0.3125 -0.0948 -0.2069
11815TIP3    H156860   6.346   0.377   0.540 -0.7857 -1.6493 -2.3062
11815TIP3    H256861   6.461   0.322   0.622 -0.4248  1.2436 -0.7316
11816TIP3   OH256862   4.961   5.761  14.476  0.7118 -0.5410 -0.2411
11816TIP3    H156863   4.922   5.678  14.504 -0.9109 -0.0522 -0.9124
11816TIP3    H256864   4.983   5.806  14.558 -0.0437 -0.9023  0.1752
11817TIP3   OH256865   3.122   2.533  15.399  0.4150  0.0485 -0.8581
11817TIP3    H156866   3.073   2.549  15.479  2.9275  0.5067  0.6975
11817TIP3    H256867   3.103   2.442  15.377 -1.7286  0.4452 -0.8277
11818TIP3   OH256868   1.235   1.305   6.178 -0.1971 -0.0083 -0.5004
11818TIP3    H156869   1.278   1.378   6.224  0.7019  0.0395 -1.3899
11818TIP3    H256870   1.184   1.347   6.109 -0.4363 -0.1619 -0.4161
11819TIP3   OH256871   3.513   6.647   3.811 -0.2075  0.0279 -0.2507
11819TIP3    H156872   3.464   6.571   3.781 -2.0053  0.8054  0.5447
11819TIP3    H256873   3.470   6.673   3.893  0.4971  1.7309 -0.3672
11820TIP3   OH256874   1.617   4.216  15.276  0.1634 -0.3964 -0.0807
11820TIP3    H156875   1.701   4.182  15.305 -0.2204 -0.9100  0.4693
11820TIP3    H256876   1.625   4.224  15.181  0.6003 -1.1203 -0.1138
11821TIP3   OH256877   0.604   5.771  14.884  0.3333  0.5588 -0.4174
11821TIP3    H156878   0.521   5.814  14.905 -0.8449  0.3260 -3.9837
11821TIP3    H256879   0.578   5.690  14.840  2.4064  0.9078 -2.4175
11822TIP3   OH256880   2.505   2.863   2.504 -0.3411 -0.0658  0.8307
11822TIP3    H156881   2.562   2.788   2.524  1.8220  1.2925  0.1014
11822TIP3    H256882   2.556   2.916   2.443 -2.8766  0.7248 -0.7148
11823TIP3   OH256883   4.598   4.051  15.183  0.4742 -0.1312  0.7916
11823TIP3    H156884   4.522   4.103  15.209 -0.0192 -0.5017  0.1257
11823TIP3    H256885   4.657   4.113  15.140  0.0297 -0.0580  0.2828
11824TIP3   OH256886   2.149   6.176   3.475 -0.5568  0.2493 -0.5870
11824TIP3    H156887   2.077   6.217   3.427  0.2956  1.9069 -0.5458
11824TIP3    H256888   2.120   6.087   3.490 -1.3811 -0.0117 -3.1158
11825TIP3   OH256889   4.854   6.715  15.235  0.3768  0.6037  0.4804
11825TIP3    H156890   4.885   6.670  15.313 -1.3467 -2.2919 -0.3646
11825TIP3    H256891   4.902   6.673  15.163 -1.6069 -0.2925 -0.3773
11826TIP3   OH256892   4.860   0.326  17.359 -0.6316  0.1411 -0.2962
11826TIP3    H156893   4.877   0.250  17.303  3.5627  0.3107  0.4029
11826TIP3    H256894   4.815   0.290  17.435  0.9996 -1.6869 -0.1103
11827TIP3   OH256895   5.760   4.095  12.780 -0.5771  0.2237 -0.4764
11827TIP3    H156896   5.705   4.172  12.763 -0.8148  0.0460 -0.5194
11827TIP3    H256897   5.801   4.114  12.864 -0.1372  0.6797 -0.7927
11828TIP3   OH256898   1.777   6.415   4.670  0.0045  0.2043  0.6293
11828TIP3    H156899   1.837   6.464   4.726  0.4103 -0.8923  1.1763
11828TIP3    H256900   1.801   6.441   4.581 -1.3391  2.7825  0.9171
11829TIP3   OH256901   0.863   3.712  11.329 -0.0809 -0.1712 -0.1266
11829TIP3    H156902   0.814   3.702  11.247 -2.4557  0.7768  1.0658
11829TIP3    H256903   0.811   3.774  11.381  2.5362  1.0437  1.2361
11830TIP3   OH256904   0.433   4.132   1.266 -0.1168  0.0122  0.4897
11830TIP3    H156905   0.454   4.196   1.334 -2.0445 -0.6623  1.8128
11830TIP3    H256906   0.413   4.052   1.315 -2.8418 -0.1583 -0.7309
11831TIP3   OH256907   5.852   2.637   4.876  0.5618 -0.0613  0.0524
11831TIP3    H156908   5.850   2.700   4.948  0.6780 -0.2587  0.2324
11831TIP3    H256909   5.797   2.564   4.908  1.3464 -0.5481  0.3185
11832TIP3   OH256910   5.980   5.370  16.537 -0.0144  0.7520 -0.5053
11832TIP3    H156911   5.903   5.313  16.546 -0.1847  0.8446 -1.3154
11832TIP3    H256912   5.997   5.400  16.626 -0.5359  0.2339 -0.2165
11833TIP3   OH256913   3.543   2.206  11.546 -0.1177  0.1603  0.4103
11833TIP3    H156914   3.474   2.166  11.492 -1.4363  2.3521  0.3640
11833TIP3    H256915   3.503   2.285  11.581  2.9249  2.5716 -1.1483
11834TIP3   OH256916   2.318   1.605   0.940  0.3333 -0.1062  0.3276
11834TIP3    H156917   2.308   1.530   0.881  0.6244 -0.6327  0.9280
11834TIP3    H256918   2.330   1.680   0.883  0.1443 -0.5381 -0.2849
11835TIP3   OH256919   1.307   0.178  11.533 -0.2631 -0.2904 -0.1044
11835TIP3    H156920   1.252   0.236  11.587 -0.7018  0.6214 -1.4859
11835TIP3    H256921   1.274   0.189  11.444  2.8624  1.2436 -1.2430
11836TIP3   OH256922   1.325   5.595   5.856  0.0242  0.3887 -0.5202
11836TIP3    H156923   1.327   5.533   5.929  0.9191  1.1555  0.1396
11836TIP3    H256924   1.417   5.602   5.828  0.0911  2.0138 -0.0288
11837TIP3   OH256925   1.365   5.430   3.272  0.0974  0.0369 -0.4480
11837TIP3    H156926   1.371   5.336   3.252 -0.8729 -0.2249  0.4238
11837TIP3    H256927   1.308   5.466   3.204  1.0655  0.1566 -1.2252
11838TIP3   OH256928   0.967   3.225  13.765  0.2485  0.7903  0.1457
11838TIP3    H156929   0.894   3.255  13.712 -1.2010 -0.4288  1.3641
11838TIP3    H256930   1.018   3.169  13.707 -1.7137 -1.1137  0.1444
11839TIP3   OH256931   6.756   1.198   4.803 -0.4001  0.3889  0.3852
11839TIP3    H156932   6.771   1.132   4.870  0.8563  0.3920  0.1218
11839TIP3    H256933   6.668   1.231   4.822 -1.5276 -2.1105 -0.1560
11840TIP3   OH256934   1.509   5.320  12.170  0.4840 -0.1582 -0.3761
11840TIP3    H156935   1.424   5.345  12.209  1.3795  0.5572  1.2434
11840TIP3    H256936   1.506   5.225  12.164 -0.3720 -0.1520 -0.1772
11841TIP3   OH256937   1.720   3.712  14.350  0.1923  0.0197 -0.3080
11841TIP3    H156938   1.708   3.718  14.444  1.1741  0.1689 -0.1834
11841TIP3    H256939   1.637   3.744  14.313 -0.3303 -0.3651  0.4944
11842TIP3   OH256940   5.947   6.122  12.888 -0.3275  0.1379 -0.0955
11842TIP3    H156941   5.948   6.217  12.877  0.0161 -0.0204 -1.5640
11842TIP3    H256942   5.856   6.097  12.869 -0.7143  0.2724  1.4451
11843TIP3   OH256943   4.677   6.027  13.310 -0.7114  0.2909  0.0357
11843TIP3    H156944   4.614   6.096  13.289 -1.7490 -0.9047 -0.8928
11843TIP3    H256945   4.719   6.057  13.391 -2.8328  0.8949  0.9759
11844TIP3   OH256946   5.769   2.070   4.102  0.5395  0.2683 -0.0957
11844TIP3    H156947   5.742   1.999   4.043  1.1842  0.1353 -0.2410
11844TIP3    H256948   5.687   2.103   4.138  0.2515 -0.9823  0.4753
11845TIP3   OH256949   4.782   5.511  14.441 -0.4775 -0.1627 -0.3612
11845TIP3    H156950   4.690   5.508  14.469 -0.7471 -1.9987 -1.2364
11845TIP3    H256951   4.777   5.503  14.346  0.5339  2.2669 -0.6679
11846TIP3   OH256952   0.931   4.749  14.708 -0.1828 -0.7227  0.5801
11846TIP3    H156953   0.991   4.675  14.705 -0.1927 -0.7100 -1.4051
11846TIP3    H256954   0.962   4.808  14.640 -0.2825  1.0511  2.0093
11847TIP3   OH256955   5.382   6.083   5.759 -0.0704 -0.2445  0.6680
11847TIP3    H156956   5.434   6.072   5.680 -1.1570  1.8832 -0.4390
11847TIP3    H256957   5.428   6.033   5.826  2.2553 -0.0879 -0.7243
11848TIP3   OH256958   0.668   5.525   3.388 -0.1959  0.2905 -0.1324
11848TIP3    H156959   0.731   5.476   3.335  1.1282  1.0993  0.6377
11848TIP3    H256960   0.670   5.614   3.352 -3.6754 -0.4086 -2.4939
11849TIP3   OH256961   0.915   5.537  15.403 -0.4652  0.4778  0.0625
11849TIP3    H156962   0.969   5.553  15.325  0.0968  0.1347  0.3728
11849TIP3    H256963   0.841   5.485  15.370 -1.4749  2.2983 -0.6599
11850TIP3   OH256964   0.057   4.962  12.050  0.7214  0.6156 -0.3470
11850TIP3    H156965  -0.027   4.922  12.070  0.8066  0.1640 -0.8623
11850TIP3    H256966   0.080   5.012  12.128  0.8939 -0.8418  0.5565
11851TIP3   OH256967   4.747   2.888   2.552  0.6003 -0.4489 -0.1717
11851TIP3    H156968   4.661   2.851   2.538 -1.8143  4.1213  0.5597
11851TIP3    H256969   4.780   2.908   2.464 -1.1737  1.5890 -0.4633
11852TIP3   OH256970   4.631   4.241   0.776 -0.0562  0.1284  0.1144
11852TIP3    H156971   4.549   4.250   0.824  0.1815 -1.3382  0.8238
11852TIP3    H256972   4.620   4.162   0.723  0.9291 -0.1549  0.3098
11853TIP3   OH256973   3.163   2.641   4.036  1.1134  0.4910 -0.0957
11853TIP3    H156974   3.137   2.729   4.064 -0.3667 -0.0131  0.1937
11853TIP3    H256975   3.108   2.623   3.960  0.8154 -0.5117  0.3470
11854TIP3   OH256976   0.990   1.476   2.920  0.6687  0.2106 -0.0533
11854TIP3    H156977   0.915   1.522   2.883  1.2509  2.2679  1.1306
11854TIP3    H256978   1.067   1.521   2.883  1.2899 -0.7343  0.0555
11855TIP3   OH256979   6.419   5.949   4.863 -0.1330 -0.5405  0.4384
11855TIP3    H156980   6.478   5.913   4.930  0.2984 -2.6526 -0.9573
11855TIP3    H256981   6.477   5.997   4.804 -0.4255  0.7635  1.1652
11856TIP3   OH256982   1.551   6.287  16.856  0.0839 -0.5011 -0.0248
11856TIP3    H156983   1.617   6.274  16.925 -0.7407  0.6263  1.0240
11856TIP3    H256984   1.538   6.200  16.819  2.1664 -0.7534 -0.2946
11857TIP3   OH256985   2.123   4.193   1.247 -0.2384  0.6334 -0.3328
11857TIP3    H156986   2.208   4.216   1.285 -1.0243  0.9743  1.3052
11857TIP3    H256987   2.093   4.119   1.299  0.2117 -1.3099 -2.6409
11858TIP3   OH256988   1.880   4.201   3.146  0.0581  0.2277 -0.2128
11858TIP3    H156989   1.789   4.229   3.158  0.3382  1.3353 -0.5841
11858TIP3    H256990   1.930   4.282   3.139  1.1167 -0.3632  0.1731
11859TIP3   OH256991   4.236   1.213   5.125  0.6657  0.6074  0.3572
11859TIP3    H156992   4.280   1.288   5.085  0.2628  0.9657  0.5663
11859TIP3    H256993   4.306   1.151   5.144  0.9468  0.7314 -0.2500
11860TIP3   OH256994   1.710   2.856   4.188 -0.7118  0.2117 -0.2644
11860TIP3    H156995   1.800   2.851   4.220 -0.8708  0.4884  0.2396
11860TIP3    H256996   1.715   2.911   4.110 -0.6186  1.2704  0.4638
11861TIP3   OH256997   1.163   2.569  16.877 -0.4096  0.2092 -0.1685
11861TIP3    H156998   1.248   2.536  16.906 -0.4535  0.8486  0.7469
11861TIP3    H256999   1.173   2.665  16.879 -0.9282  0.2824 -0.7529
11862TIP3   OH257000   4.724   6.473   1.141  0.5353  0.3246 -0.2622
11862TIP3    H157001   4.739   6.472   1.047 -1.2859 -0.1067 -0.5998
11862TIP3    H257002   4.708   6.382   1.164  0.9185  0.4337  0.4582
11863TIP3   OH257003   2.217   3.339   4.253 -0.0203 -0.4211  0.1602
11863TIP3    H157004   2.288   3.289   4.214 -0.8174 -0.8988 -0.7364
11863TIP3    H257005   2.150   3.274   4.274 -0.8365  0.1838 -0.4787
11864TIP3   OH257006   6.278   6.507  16.794  0.4825  0.1540  0.7155
11864TIP3    H157007   6.259   6.586  16.845 -0.3203 -0.9748  2.2609
11864TIP3    H257008   6.333   6.454  16.851  1.8166 -0.0246 -0.6797
11865TIP3   OH257009   3.080   3.189   5.312 -0.7018 -0.3199  0.6932
11865TIP3    H157010   3.085   3.124   5.383 -1.0511 -0.5101  0.5469
11865TIP3    H257011   3.148   3.162   5.251 -1.0365 -0.7295  0.4898
11866TIP3   OH257012   0.850   4.755  12.109  0.0450  0.1759  0.1865
11866TIP3    H157013   0.784   4.737  12.177 -1.4552 -0.1247 -1.2864
11866TIP3    H257014   0.930   4.774  12.158 -0.0545 -3.3090  2.0724
11867TIP3   OH257015   2.169   2.893  14.880  0.1104 -0.1260  0.2568
11867TIP3    H157016   2.107   2.847  14.937  0.1871  0.4823  0.8513
11867TIP3    H257017   2.114   2.939  14.817 -0.0260 -0.0039  0.4617
11868TIP3   OH257018   1.268   4.871   2.084  0.0294  0.5500 -0.1462
11868TIP3    H157019   1.176   4.864   2.057 -0.6854  0.2460  2.1414
11868TIP3    H257020   1.292   4.961   2.065 -0.2953  0.2726 -2.0091
11869TIP3   OH257021   6.715   3.843   3.901 -0.0823  0.2991 -0.0837
11869TIP3    H157022   6.734   3.883   3.816 -0.4471  1.5871  0.4123
11869TIP3    H257023   6.689   3.753   3.880  0.8083  0.2837 -1.2420
11870TIP3   OH257024   0.205   0.646  13.297  0.0311 -0.2134  0.4461
11870TIP3    H157025   0.231   0.627  13.387 -0.7482  0.3339  0.8013
11870TIP3    H257026   0.121   0.601  13.287  0.8012 -1.4891 -0.4955
11871TIP3   OH257027   2.852   5.541  12.475 -0.1727  0.3553 -0.2544
11871TIP3    H157028   2.880   5.465  12.526  0.1145  1.6602  1.6137
11871TIP3    H257029   2.914   5.545  12.402  0.4295 -0.6210  0.1873
11872TIP3   OH257030   5.655   1.129   5.292 -0.2964 -0.1556  0.6412
11872TIP3    H157031   5.588   1.189   5.257 -0.1930  0.1740  0.9965
11872TIP3    H257032   5.626   1.111   5.381  0.2196  0.1958  0.8871
11873TIP3   OH257033   2.308   0.102   3.372  0.4350  0.0378  0.2606
11873TIP3    H157034   2.291   0.195   3.362 -0.1081 -0.1530 -0.6614
11873TIP3    H257035   2.226   0.059   3.345  1.3081 -0.7748 -1.2169
11874TIP3   OH257036   5.064   3.934  13.427  0.4304 -0.4667  0.2681
11874TIP3    H157037   5.111   3.861  13.386  0.7541 -0.1439  0.0597
11874TIP3    H257038   5.023   3.896  13.505  1.5567 -0.6224  0.8024
11875TIP3   OH257039   1.175   3.031   5.578 -0.1515  0.2771  0.5429
11875TIP3    H157040   1.097   3.086   5.576 -0.7543 -0.5610 -0.9192
11875TIP3    H257041   1.241   3.081   5.531 -0.9090 -0.4794 -1.4259
11876TIP3   OH257042   3.626   0.005   1.485  0.0135  0.1181  0.0135
11876TIP3    H157043   3.594  -0.085   1.474  1.0891 -0.0963 -1.7229
11876TIP3    H257044   3.571   0.041   1.554 -0.1832 -1.9985  1.0511
11877TIP3   OH257045   4.645   4.384   3.811 -0.5862  0.2368 -0.1459
11877TIP3    H157046   4.568   4.393   3.754 -1.6105  1.9045  1.3843
11877TIP3    H257047   4.609   4.358   3.896  0.9580 -2.7534 -0.2821
11878TIP3   OH257048   6.293   0.649  11.016  0.7842  0.3223 -0.0478
11878TIP3    H157049   6.271   0.620  10.927  0.5773 -0.8671  0.3663
11878TIP3    H257050   6.310   0.742  11.007 -1.1592  0.6539 -1.0062
11879TIP3   OH257051   5.746   3.754  12.691  0.0234 -0.0099 -0.0587
11879TIP3    H157052   5.761   3.787  12.602 -2.1635 -1.3898 -1.0225
11879TIP3    H257053   5.829   3.713  12.715  0.4184 -0.3449 -1.8070
11880TIP3   OH257054   3.163   0.474  11.598 -0.0017  0.2419  0.4180
11880TIP3    H157055   3.240   0.444  11.550  0.0401  0.4579  0.3530
11880TIP3    H257056   3.189   0.471  11.690  0.1887  0.6260  0.3753
11881TIP3   OH257057   2.723   0.308  13.202  0.3217 -0.3869  0.0985
11881TIP3    H157058   2.732   0.391  13.247 -0.7858  0.4797 -1.2019
11881TIP3    H257059   2.723   0.330  13.109  0.6559 -1.9090 -0.3021
11882TIP3   OH257060   4.967   6.549  15.413  0.3036 -0.0748 -0.0861
11882TIP3    H157061   5.032   6.479  15.417 -0.7879 -1.1795 -0.9770
11882TIP3    H257062   4.906   6.529  15.483  0.8423  0.9056  0.6847
11883TIP3   OH257063   4.420   5.120  12.571  0.4917 -0.3679  0.1938
11883TIP3    H157064   4.427   5.162  12.657 -2.7881  0.7123  0.0806
11883TIP3    H257065   4.479   5.170  12.515  0.3210  0.9925  1.1773
11884TIP3   OH257066   4.092   2.297  12.233 -0.2924  0.5552  0.3138
11884TIP3    H157067   3.999   2.273  12.224  0.1752 -0.7854 -2.0176
11884TIP3    H257068   4.103   2.371  12.174  0.2471  0.1682 -0.0872
11885TIP3   OH257069   0.403   4.539   1.348  0.0928 -0.2840  0.1207
11885TIP3    H157070   0.368   4.489   1.421 -0.6149  0.8079  0.5690
11885TIP3    H257071   0.411   4.628   1.382 -0.4310  0.2879 -1.1625
11886TIP3   OH257072   1.201   4.329   5.602  0.5569  0.0341  0.0963
11886TIP3    H157073   1.285   4.371   5.582 -0.2181  1.6953  0.1538
11886TIP3    H257074   1.224   4.252   5.653  2.1719 -0.6656 -1.5682
11887TIP3   OH257075   0.153   3.593  15.455  0.2164  0.3550 -0.3653
11887TIP3    H157076   0.218   3.526  15.476 -0.5848 -0.5051 -0.6043
11887TIP3    H257077   0.178   3.624  15.368  0.3423  0.0814 -0.4254
11888TIP3   OH257078   0.292   3.671   1.642  0.1744  0.0528 -0.0051
11888TIP3    H157079   0.207   3.656   1.600  0.4531  0.0622 -0.5885
11888TIP3    H257080   0.274   3.736   1.710  0.2440  2.4593 -2.1263
11889TIP3   OH257081   0.624   4.144   1.711 -0.1032  0.6479 -0.2589
11889TIP3    H157082   0.555   4.171   1.772 -0.0140  0.4640 -0.0757
11889TIP3    H257083   0.692   4.211   1.720 -0.0263  0.5419 -0.0477
11890TIP3   OH257084   0.066   0.544  13.685 -0.0161 -0.2133 -0.3775
11890TIP3    H157085   0.004   0.557  13.613  1.9477  1.1463 -1.9340
11890TIP3    H257086   0.033   0.601  13.755 -0.7341  0.1795 -1.0142
11891TIP3   OH257087   5.046   1.525   0.013 -0.2494 -0.3670 -0.7876
11891TIP3    H157088   5.008   1.447  -0.028 -0.9545  0.2672 -1.3671
11891TIP3    H257089   5.140   1.516  -0.004 -0.2523 -1.3494 -0.3782
11892TIP3   OH257090   0.803   0.848   0.382  0.2617  0.4695  0.0958
11892TIP3    H157091   0.770   0.759   0.394  2.7064 -0.3153  1.6565
11892TIP3    H257092   0.855   0.844   0.302 -0.2798  0.7545 -0.2844
11893TIP3   OH257093   1.910   0.326   3.437 -0.2565 -0.4753 -0.1390
11893TIP3    H157094   1.991   0.345   3.390 -0.3716 -0.5297 -0.3631
11893TIP3    H257095   1.912   0.384   3.513  0.0439 -0.5563 -0.0856
11894TIP3   OH257096   3.481   4.937  15.942 -0.8254  0.6765 -0.5826
11894TIP3    H157097   3.464   4.858  15.993  2.2551 -0.2884 -0.8504
11894TIP3    H257098   3.482   5.007  16.007 -1.8588  0.2716 -0.0919
11895TIP3   OH257099   2.972   0.480   2.070  0.0823 -0.1212 -0.0087
11895TIP3    H157100   2.915   0.425   2.124  1.2516 -1.2729  0.1263
11895TIP3    H257101   2.993   0.425   1.994  1.0942  0.2079  0.0138
11896TIP3   OH257102   4.846   2.354  12.611 -0.0931  0.0490 -0.1241
11896TIP3    H157103   4.911   2.310  12.666  0.7655  0.7085 -0.5809
11896TIP3    H257104   4.762   2.334  12.652  0.2422 -2.0116 -0.2958
11897TIP3   OH257105   1.423   3.296   2.517 -0.0630 -0.1910 -0.9271
11897TIP3    H157106   1.426   3.305   2.612 -0.0878 -0.5361 -0.8915
11897TIP3    H257107   1.400   3.383   2.485  0.6351  0.1065 -0.6532
11898TIP3   OH257108   3.564   4.430   0.183 -0.5829 -0.0361  0.5229
11898TIP3    H157109   3.590   4.472   0.265  1.4983 -0.1968  0.0051
11898TIP3    H257110   3.523   4.348   0.209 -1.5122  0.7044  1.4393
11899TIP3   OH257111   0.798   3.118   6.583 -0.4952  0.4774 -0.4754
11899TIP3    H157112   0.839   3.107   6.497  0.7565 -0.1134  0.1825
11899TIP3    H257113   0.769   3.030   6.607  3.2547 -0.3903  1.6763
11900TIP3   OH257114   4.727   1.820   5.926  0.0872 -0.2878  0.4460
11900TIP3    H157115   4.727   1.837   6.020 -1.0384  0.4710  0.3327
11900TIP3    H257116   4.816   1.791   5.906  1.2007  2.3016  1.2547
11901TIP3   OH257117   0.037   5.855   4.596  0.3717 -0.3010 -0.0604
11901TIP3    H157118   0.090   5.817   4.526  0.4082  1.6786 -1.1517
11901TIP3    H257119  -0.035   5.793   4.608  1.1893 -1.4199 -0.7771
11902TIP3   OH257120   6.670   3.398   4.841  0.5783 -0.6424 -0.3753
11902TIP3    H157121   6.609   3.457   4.886 -0.5734 -1.4653 -0.8096
11902TIP3    H257122   6.734   3.374   4.909 -0.9142 -1.5729  0.7788
11903TIP3   OH257123   4.375   4.487  12.112  0.2086  0.1060  0.1634
11903TIP3    H157124   4.400   4.564  12.061  1.4574 -0.4000 -0.0426
11903TIP3    H257125   4.360   4.419  12.046  0.2275 -0.1223  0.3922
11904TIP3   OH257126   3.819   1.836   0.673 -0.6777 -0.7451 -0.1689
11904TIP3    H157127   3.892   1.789   0.712  0.1918 -0.6928 -1.6532
11904TIP3    H257128   3.836   1.928   0.693  0.1996 -0.6384 -1.2845
11905TIP3   OH257129   0.833   2.316  15.383 -0.2974  0.3701  0.5843
11905TIP3    H157130   0.764   2.340  15.444 -0.5981  1.3513 -0.1247
11905TIP3    H257131   0.829   2.383  15.314  0.4069 -0.3854 -0.2122
11906TIP3   OH257132   2.003   1.683   0.186 -0.4086 -0.7759 -0.2420
11906TIP3    H157133   1.963   1.596   0.191 -2.5507  0.1339 -0.3302
11906TIP3    H257134   1.964   1.722   0.108  1.5223 -0.1580 -0.9609
11907TIP3   OH257135   2.391   5.611  13.748 -0.5525  0.7824 -0.0964
11907TIP3    H157136   2.336   5.594  13.672 -2.7158 -0.1279  1.5636
11907TIP3    H257137   2.370   5.701  13.774  0.7436  1.3654 -0.9439
11908TIP3   OH257138   3.307   5.501   1.576 -0.1813 -0.2161  0.2009
11908TIP3    H157139   3.373   5.558   1.617 -0.0791  0.6138 -1.0398
11908TIP3    H257140   3.228   5.556   1.571 -0.2190 -0.3301 -0.5928
11909TIP3   OH257141   5.344   0.057  11.417  0.1076 -0.1615  0.2887
11909TIP3    H157142   5.348   0.072  11.323 -2.0107  0.0804  0.1964
11909TIP3    H257143   5.260   0.014  11.431 -0.0357  0.6312  2.1662
11910TIP3   OH257144   5.565   1.497   2.523 -0.3290  0.0438 -0.0610
11910TIP3    H157145   5.549   1.457   2.609  1.3381 -0.8182 -0.1045
11910TIP3    H257146   5.506   1.572   2.520 -2.3093 -1.4002  0.7647
11911TIP3   OH257147   1.614   4.060   3.377  0.1695 -0.5768 -0.1840
11911TIP3    H157148   1.606   4.154   3.362  1.5762 -0.6827 -1.9550
11911TIP3    H257149   1.524   4.027   3.372 -0.3070  0.6344  0.1951
11912TIP3   OH257150   1.347   5.269   5.975  0.1499  0.5601 -0.3613
11912TIP3    H157151   1.306   5.286   6.059  1.6613 -1.0058  0.7413
11912TIP3    H257152   1.275   5.242   5.918 -0.9563  2.0774  0.2499
11913TIP3   OH257153   3.913   1.621  13.610 -0.2016  0.0236 -0.1242
11913TIP3    H157154   3.844   1.560  13.583 -0.9886  1.0039 -0.3623
11913TIP3    H257155   3.994   1.582  13.576 -1.1137  1.3712 -4.5094
11914TIP3   OH257156   1.277   1.721   4.758  0.0550 -0.1711  0.3882
11914TIP3    H157157   1.325   1.651   4.713  0.2756 -0.6109  1.2761
11914TIP3    H257158   1.339   1.755   4.823 -0.2959  0.3638  0.4513
11915TIP3   OH257159   5.224   4.072   0.749 -0.1631  0.4570 -0.0733
11915TIP3    H157160   5.230   4.148   0.691 -0.6878  1.1144  0.7073
11915TIP3    H257161   5.137   4.080   0.789 -0.1635 -0.4732  0.1241
11916TIP3   OH257162   2.246   4.102   5.313  0.5797 -0.2858 -0.2089
11916TIP3    H157163   2.254   4.039   5.385  1.6616 -0.2371 -0.2805
11916TIP3    H257164   2.163   4.079   5.271  0.5058 -1.0652  0.3369
11917TIP3   OH257165   5.612   0.610   2.900  0.0493 -0.0044 -0.1226
11917TIP3    H157166   5.616   0.579   2.991 -0.2957  0.0676 -0.0819
11917TIP3    H257167   5.643   0.536   2.848 -0.1183 -0.1811  0.0261
11918TIP3   OH257168   2.478   1.548  15.411 -0.1516 -0.0261 -0.0633
11918TIP3    H157169   2.382   1.550  15.403 -0.0481  2.0549 -1.5983
11918TIP3    H257170   2.505   1.480  15.349 -0.5926  0.1202 -0.4269
11919TIP3   OH257171   6.424   2.911   4.251  0.4777 -0.3913 -0.2108
11919TIP3    H157172   6.513   2.944   4.241 -0.0633  1.1018 -0.3510
11919TIP3    H257173   6.387   2.962   4.322  0.3535 -2.4429  1.3009
11920TIP3   OH257174   5.772   6.098  13.436  0.1137 -0.2131  0.0161
11920TIP3    H157175   5.828   6.166  13.475  0.1564 -1.5928  2.5716
11920TIP3    H257176   5.827   6.057  13.370  0.9463  0.6175  0.1639
11921TIP3   OH257177   1.667   6.324   3.491 -0.3916  0.0746  0.3327
11921TIP3    H157178   1.663   6.293   3.582 -0.3455 -0.5426  0.1302
11921TIP3    H257179   1.685   6.418   3.498 -1.6798  0.2959  0.9836
11922TIP3   OH257180   6.430   2.350   0.900  0.0077  0.0702  0.3563
11922TIP3    H157181   6.392   2.330   0.986  0.5814  0.1297  0.6320
11922TIP3    H257182   6.372   2.307   0.837 -0.7543  0.5269  0.7375
11923TIP3   OH257183   3.888   1.237  15.138 -0.0958  0.1692 -0.0298
11923TIP3    H157184   3.940   1.279  15.069  0.4599 -1.2852 -0.5163
11923TIP3    H257185   3.947   1.232  15.213  0.7415 -2.0374 -0.7685
11924TIP3   OH257186   2.935   4.500  15.764 -0.2066  0.2825 -0.5030
11924TIP3    H157187   2.882   4.578  15.751 -1.0922 -0.0434  0.9671
11924TIP3    H257188   2.946   4.493  15.858 -0.5553 -1.6215 -0.5588
11925TIP3   OH257189   0.948   4.134   6.782 -0.5044 -0.1473 -0.1398
11925TIP3    H157190   0.855   4.110   6.778 -0.2435 -1.2058 -0.0464
11925TIP3    H257191   0.995   4.050   6.785  0.3824  0.3625  1.2681
11926TIP3   OH257192   0.275   4.869   0.162 -0.2545  0.3143 -0.3703
11926TIP3    H157193   0.268   4.906   0.250 -1.0995 -0.2722 -0.1741
11926TIP3    H257194   0.341   4.923   0.119 -0.0689  0.8258  0.5108
11927TIP3   OH257195   5.654   5.387  14.520  0.6932  0.0872  0.2034
11927TIP3    H157196   5.590   5.458  14.521  1.5509  0.8617  0.5238
11927TIP3    H257197   5.739   5.430  14.518  1.2246 -0.9324 -0.0190
11928TIP3   OH257198   1.463   2.787   5.115 -0.0586 -0.2770 -0.3508
11928TIP3    H157199   1.474   2.874   5.077  0.3617  0.4427  1.2881
11928TIP3    H257200   1.548   2.769   5.157 -0.8909 -0.3752  1.4047
11929TIP3   OH257201   3.645   2.396   2.441 -0.0074 -0.2352 -0.5998
11929TIP3    H157202   3.684   2.483   2.430 -0.0552 -0.2844 -1.1573
11929TIP3    H257203   3.717   2.335   2.423 -0.8589 -0.3862 -4.1007
11930TIP3   OH257204   5.869   2.924  11.697  0.1802 -0.1981 -0.0745
11930TIP3    H157205   5.916   2.938  11.615 -2.0995 -0.5217 -1.5276
11930TIP3    H257206   5.800   2.991  11.697  0.4648  0.1570  1.8808
11931TIP3   OH257207   5.447   2.934   0.532  0.1005 -0.3371  0.0545
11931TIP3    H157208   5.509   2.999   0.498 -0.9085  0.6080 -0.0495
11931TIP3    H257209   5.492   2.895   0.607 -0.1391  2.2060  1.6550
11932TIP3   OH257210   0.341   0.577  13.900  0.0242  0.1887 -0.0730
11932TIP3    H157211   0.329   0.612  13.989  0.3871 -1.3098  0.5934
11932TIP3    H257212   0.375   0.652  13.850  1.5439  0.6184  1.4946
11933TIP3   OH257213   6.409   2.133  10.653  0.3094  0.2772 -0.5595
11933TIP3    H157214   6.481   2.115  10.714  2.5586 -0.6038 -3.2347
11933TIP3    H257215   6.422   2.224  10.626 -0.3986  0.5213 -0.1062
11934TIP3   OH257216   5.194   4.769  10.952 -0.6456 -0.1094  0.0160
11934TIP3    H157217   5.254   4.769  10.878  0.5096  0.6606  0.9052
11934TIP3    H257218   5.250   4.753  11.028 -1.7350 -0.4688  0.7714
11935TIP3   OH257219   0.783   0.245  15.049 -0.2131 -0.6315 -0.3167
11935TIP3    H157220   0.822   0.167  15.089 -0.9541 -2.6886 -3.2543
11935TIP3    H257221   0.822   0.249  14.962 -0.7064  1.9867 -0.4984
11936TIP3   OH257222   0.403   4.282   2.939 -0.0547  0.1328  0.2432
11936TIP3    H157223   0.487   4.276   2.986 -1.1293 -0.0025  2.2569
11936TIP3    H257224   0.394   4.376   2.920  0.4582  0.1751  0.1848
11937TIP3   OH257225   2.371   5.218  15.097 -0.5109  0.5865 -0.3957
11937TIP3    H157226   2.319   5.219  15.177 -1.3104  3.0151 -0.8521
11937TIP3    H257227   2.425   5.297  15.102  0.1690  0.2396 -1.7587
11938TIP3   OH257228   2.806   4.712   4.196  0.5497 -0.2203 -0.2833
11938TIP3    H157229   2.759   4.687   4.116 -3.2997  2.0333  1.0118
11938TIP3    H257230   2.820   4.806   4.186  0.5321 -0.0117  1.3888
11939TIP3   OH257231   1.617   5.243   6.087 -0.1285  0.6636 -0.4472
11939TIP3    H157232   1.631   5.217   5.996 -1.3681 -1.1876 -0.1608
11939TIP3    H257233   1.536   5.293   6.087  0.1733  1.1604 -0.4295
11940TIP3   OH257234   3.352   0.450   2.529  0.2529 -0.6823 -0.2083
11940TIP3    H157235   3.373   0.359   2.509  0.2198 -1.0445  1.2702
11940TIP3    H257236   3.319   0.448   2.619  1.3577  0.9450  0.2923
11941TIP3   OH257237   1.275   1.219   2.753 -0.6245  0.6405 -0.0989
11941TIP3    H157238   1.276   1.314   2.758 -0.4310  0.6380 -0.0758
11941TIP3    H257239   1.240   1.191   2.838  2.5652  0.6055  1.3534
11942TIP3   OH257240   1.063   2.892  15.700  0.6238  0.1331  0.2728
11942TIP3    H157241   1.098   2.822  15.755 -0.2017 -1.0326 -0.6405
11942TIP3    H257242   0.976   2.910  15.737  0.0434 -0.6936 -0.6582
11943TIP3   OH257243   5.488   1.469   0.202 -0.2367 -0.2006 -0.1713
11943TIP3    H157244   5.510   1.559   0.179 -2.9398  0.2030 -1.6042
11943TIP3    H257245   5.558   1.416   0.164  0.6971  1.1962 -0.4649
11944TIP3   OH257246   4.148   5.445   5.291  0.6661 -0.2532 -0.1847
11944TIP3    H157247   4.112   5.379   5.350  1.4695 -1.1682 -0.6890
11944TIP3    H257248   4.074   5.503   5.272  0.1244 -0.5742  0.8424
11945TIP3   OH257249   3.776   3.836   2.439  0.0929  0.1538 -0.3985
11945TIP3    H157250   3.806   3.905   2.379  0.3805  0.3247 -0.0586
11945TIP3    H257251   3.854   3.814   2.491  0.1725 -0.8596 -0.9164
11946TIP3   OH257252   4.925   4.084   5.301  0.6506 -0.2639  0.1157
11946TIP3    H157253   4.858   4.024   5.266 -0.9222  1.3856  0.1284
11946TIP3    H257254   4.957   4.041   5.380 -0.4764 -1.0800  0.1514
11947TIP3   OH257255   0.103   6.021   6.304  0.7605 -0.1901  0.4049
11947TIP3    H157256   0.048   6.096   6.278  1.3473  0.0881 -0.0759
11947TIP3    H257257   0.176   6.061   6.352  1.8374 -0.2752 -1.0780
11948TIP3   OH257258   2.481   1.896   4.339 -0.0072  0.6041  0.1405
11948TIP3    H157259   2.428   1.878   4.416 -1.7425 -1.5879 -1.4288
11948TIP3    H257260   2.426   1.952   4.285 -0.9532 -1.7390 -1.5298
11949TIP3   OH257261   4.658   1.836  14.770 -0.1894 -0.1155  0.3383
11949TIP3    H157262   4.652   1.746  14.803  0.2507  0.5020  2.2129
11949TIP3    H257263   4.574   1.850  14.725  0.5521 -2.1073 -1.8467
11950TIP3   OH257264   2.105   6.209  14.943 -0.2695 -0.2379 -0.2156
11950TIP3    H157265   2.108   6.218  14.848 -0.2918  1.8288 -0.0697
11950TIP3    H257266   2.096   6.299  14.975  0.6281 -0.8049  1.7763
11951TIP3   OH257267   3.275   2.827  14.762 -0.1106 -0.3450  0.7017
11951TIP3    H157268   3.352   2.871  14.724 -0.3633 -0.9519 -0.5362
11951TIP3    H257269   3.246   2.887  14.831  0.8535  0.3869  0.4998
11952TIP3   OH257270   3.818   0.030   0.679 -0.0629  0.3027 -0.1933
11952TIP3    H157271   3.765   0.020   0.600  0.1109  1.9409 -0.5507
11952TIP3    H257272   3.772  -0.021   0.745 -1.1407  0.2775 -0.9360
11953TIP3   OH257273   2.695   1.247  14.039  0.2633 -0.1653 -0.3083
11953TIP3    H157274   2.692   1.328  14.090  0.6373  0.6158 -1.4755
11953TIP3    H257275   2.611   1.243  13.994  0.1714 -0.5308 -0.1101
11954TIP3   OH257276   0.775   3.916  13.485  0.1668  0.1881  0.9248
11954TIP3    H157277   0.812   3.991  13.438  1.6380 -0.5918  0.7991
11954TIP3    H257278   0.790   3.842  13.427 -3.5204  0.0596 -0.1379
11955TIP3   OH257279   6.268   3.569   2.934 -0.3749  0.4245  0.2678
11955TIP3    H157280   6.260   3.631   3.007 -1.8862 -1.6048  1.9646
11955TIP3    H257281   6.282   3.624   2.857 -0.9398  2.8177  1.7600
11956TIP3   OH257282   5.951   3.561   1.407 -0.0555  0.5432 -0.4393
11956TIP3    H157283   5.918   3.495   1.346  1.1455  0.7568 -1.3495
11956TIP3    H257284   5.924   3.529   1.493 -0.4697 -0.5495 -0.9583
11957TIP3   OH257285   2.400   4.905   5.483  0.3755  0.1554 -0.4235
11957TIP3    H157286   2.345   4.969   5.439 -0.2354  0.8412  1.2683
11957TIP3    H257287   2.489   4.941   5.477 -0.1384  2.0196  1.8255
11958TIP3   OH257288   4.521   3.665  16.132 -0.2459 -0.0290 -0.0222
11958TIP3    H157289   4.461   3.619  16.074  0.8182  0.0676 -1.2331
11958TIP3    H257290   4.555   3.597  16.190 -0.3963 -0.3503 -0.3043
11959TIP3   OH257291   2.088   4.158   3.782  0.2764  0.1040 -0.0568
11959TIP3    H157292   2.048   4.177   3.867 -1.1121 -1.2150 -0.3830
11959TIP3    H257293   2.114   4.066   3.789  0.4385  0.0809 -0.9522
11960TIP3   OH257294   4.775   0.010  15.860  0.1628 -0.2545  0.0510
11960TIP3    H157295   4.739   0.094  15.889  2.9976  0.8706  0.7059
11960TIP3    H257296   4.836   0.033  15.790  0.9586 -1.7562  0.1954
11961TIP3   OH257297   1.742   3.393  16.296 -0.0266  0.2543  0.3982
11961TIP3    H157298   1.742   3.433  16.383  1.5194  3.9058 -1.0838
11961TIP3    H257299   1.688   3.450  16.243  0.0561 -1.1958 -1.3638
11962TIP3   OH257300   4.473   3.715  12.855 -0.2484  0.0016  1.3870
11962TIP3    H157301   4.411   3.722  12.783  1.7317  0.0241 -0.4197
11962TIP3    H257302   4.451   3.632  12.897  0.9903 -2.1522 -1.8080
11963TIP3   OH257303   0.688   2.650   3.287  0.2341  0.0329  0.1559
11963TIP3    H157304   0.635   2.647   3.366 -0.8202 -3.4631 -0.4991
11963TIP3    H257305   0.628   2.676   3.218  0.8130  1.6384  0.2119
11964TIP3   OH257306   6.734   4.109  11.920  0.0372 -0.3674  0.0826
11964TIP3    H157307   6.812   4.080  11.968  0.3706  0.0727 -0.1898
11964TIP3    H257308   6.705   4.187  11.966  1.3998  1.1184 -1.4339
11965TIP3   OH257309   0.869   6.641   3.252 -0.6251 -0.6870 -0.1011
11965TIP3    H157310   0.890   6.610   3.164  0.6586 -1.5226  0.4637
11965TIP3    H257311   0.943   6.697   3.276 -1.0027 -0.4019  0.4245
11966TIP3   OH257312   5.408   0.801   6.068 -0.8332 -0.0638 -0.1103
11966TIP3    H157313   5.499   0.784   6.042 -1.0283 -1.6504  0.1202
11966TIP3    H257314   5.391   0.736   6.136 -1.7917  0.9811  0.6882
11967TIP3   OH257315   1.393   1.856  15.033 -0.8818  0.0062 -0.0136
11967TIP3    H157316   1.478   1.825  15.000 -0.5663  1.3220 -0.5320
11967TIP3    H257317   1.410   1.947  15.058 -1.8284 -0.1293  1.1663
11968TIP3   OH257318   1.601   4.634   6.356 -0.0329  0.7304 -0.0897
11968TIP3    H157319   1.570   4.544   6.368  0.3545  0.6594  0.4068
11968TIP3    H257320   1.667   4.646   6.424 -0.5040  1.5945  0.2378
11969TIP3   OH257321   3.471   0.647  12.222  0.3085  0.3430 -0.1541
11969TIP3    H157322   3.477   0.652  12.127 -1.0292 -1.9497 -0.4347
11969TIP3    H257323   3.525   0.720  12.254  2.0197  0.2603 -2.6145
11970TIP3   OH257324   6.461   1.682  17.065 -0.1802 -0.1037 -0.4352
11970TIP3    H157325   6.495   1.643  16.985  1.6710 -0.0300  0.2759
11970TIP3    H257326   6.492   1.772  17.064 -1.0854  0.2278 -0.1499
11971TIP3   OH257327   2.084   5.048   6.043  0.4692 -0.3154  0.6268
11971TIP3    H157328   2.110   5.051   6.135  0.4227 -1.2790  0.6717
11971TIP3    H257329   1.990   5.062   6.045  0.4396 -0.5304  0.7366
11972TIP3   OH257330   6.225   4.256   6.187 -0.2071  0.1360 -0.0877
11972TIP3    H157331   6.272   4.193   6.241 -1.1428  1.1713  2.0458
11972TIP3    H257332   6.214   4.212   6.103  2.6033 -0.9692  0.0152
11973TIP3   OH257333   5.160   6.189   0.287  0.5987  0.4048 -0.3026
11973TIP3    H157334   5.196   6.265   0.242 -1.4882  1.1373 -0.8316
11973TIP3    H257335   5.163   6.119   0.223 -1.0020  1.0717 -1.1637
11974TIP3   OH257336   2.859   3.427   5.797 -0.2205 -0.0950  0.2383
11974TIP3    H157337   2.768   3.456   5.803  0.8854  4.3099 -0.7596
11974TIP3    H257338   2.884   3.411   5.888 -1.2749  1.3640  0.8270
11975TIP3   OH257339   5.768   4.938   2.092  0.5515 -0.2225 -0.5134
11975TIP3    H157340   5.852   4.916   2.132 -0.1675 -1.5417  0.3445
11975TIP3    H257341   5.704   4.888   2.141 -0.7983  0.9998 -0.9391
11976TIP3   OH257342   1.448   0.889   0.234  0.5867  0.3106  0.3040
11976TIP3    H157343   1.403   0.890   0.149 -0.3391  1.2497  0.7855
11976TIP3    H257344   1.469   0.796   0.248 -0.6338 -0.0813 -0.2380
11977TIP3   OH257345   6.280   4.072   5.208  0.3120  0.5048 -0.1080
11977TIP3    H157346   6.318   4.158   5.190 -0.5618  0.7990 -0.6250
11977TIP3    H257347   6.185   4.087   5.208  0.1649  0.0201  2.3168
11978TIP3   OH257348   1.228   6.200  13.637  0.4781  0.2951 -0.0277
11978TIP3    H157349   1.169   6.224  13.565 -0.0476 -0.2328  0.2175
11978TIP3    H257350   1.260   6.113  13.613 -1.2369 -0.7730  1.2923
11979TIP3   OH257351   1.166   3.134  13.086 -0.0975 -0.3792 -0.1966
11979TIP3    H157352   1.221   3.202  13.124 -0.3843 -0.5755  0.6025
11979TIP3    H257353   1.078   3.171  13.087 -0.2778 -0.8047  0.3799
11980TIP3   OH257354   0.186   0.773  16.817  0.1273  0.0234 -0.1099
11980TIP3    H157355   0.251   0.746  16.752  0.0411 -1.0149  0.2064
11980TIP3    H257356   0.126   0.829  16.769  0.6135  0.0614 -0.6883
11981TIP3   OH257357   0.010   0.288  12.554 -0.2568  0.1802  0.1128
11981TIP3    H157358   0.101   0.268  12.574 -0.4980 -0.4631  0.6045
11981TIP3    H257359   0.004   0.383  12.560  0.4918  0.2687 -0.4219
11982TIP3   OH257360   6.516   0.435   1.898  0.0923 -0.1183 -0.0129
11982TIP3    H157361   6.548   0.473   1.816  1.3459 -0.8517  0.1057
11982TIP3    H257362   6.469   0.357   1.871  2.4478 -1.6507  0.0294
11983TIP3   OH257363   0.902   5.520  15.689 -0.6003  0.1813 -0.6181
11983TIP3    H157364   0.861   5.601  15.718  0.8926  1.7376 -2.5123
11983TIP3    H257365   0.908   5.529  15.594  1.0112 -1.4647 -0.7398
11984TIP3   OH257366   5.982   1.734   2.428 -0.3858 -0.5835 -0.9805
11984TIP3    H157367   5.959   1.807   2.486  0.9038  0.3700 -1.6173
11984TIP3    H257368   5.951   1.656   2.474 -0.2734  0.2205  0.5210
11985TIP3   OH257369   4.130   6.519   3.320 -0.2353 -0.1465 -0.0301
11985TIP3    H157370   4.111   6.553   3.233 -0.6485 -1.7755 -0.6136
11985TIP3    H257371   4.047   6.527   3.368  0.1724  1.3909  0.4709
11986TIP3   OH257372   4.224   5.240  13.246 -0.1092  0.1420 -0.1763
11986TIP3    H157373   4.225   5.196  13.161  2.3530  0.1101 -0.2028
11986TIP3    H257374   4.263   5.326  13.229 -1.5743  0.9941  0.5639
11987TIP3   OH257375   5.515   4.567   5.903  0.3975 -0.1449 -0.5263
11987TIP3    H157376   5.543   4.476   5.913  2.0572  0.2771 -0.9908
11987TIP3    H257377   5.551   4.594   5.818  2.9745  1.9481  1.0701
11988TIP3   OH257378   0.004   2.885  17.091  0.0920 -0.3131 -0.0890
11988TIP3    H157379  -0.081   2.885  17.047  0.3264  4.6055 -1.1521
11988TIP3    H257380   0.061   2.935  17.032  3.5711 -2.6561  1.0113
11989TIP3   OH257381   3.878   4.204   6.461  0.2024  0.3631  0.1577
11989TIP3    H157382   3.793   4.247   6.452  0.3952  0.6392 -0.4830
11989TIP3    H257383   3.873   4.128   6.403  0.4364  0.4576  0.0098
11990TIP3   OH257384   3.646   1.890   6.215 -0.6787 -0.2842 -0.2984
11990TIP3    H157385   3.663   1.926   6.301 -2.0244  0.4520 -0.3029
11990TIP3    H257386   3.621   1.799   6.231 -1.1427 -0.0870  0.1290
11991TIP3   OH257387   6.609   4.591  11.459  0.0815  0.2208 -0.1643
11991TIP3    H157388   6.547   4.645  11.508 -0.9127  1.1911 -2.3690
11991TIP3    H257389   6.630   4.519  11.519 -0.5992  1.6323  1.8733
11992TIP3   OH257390   1.681   1.194   3.733  0.5508  0.2147 -0.1721
11992TIP3    H157391   1.721   1.212   3.818  0.1582  0.8765 -0.1208
11992TIP3    H257392   1.638   1.109   3.745  1.1036 -0.0418  0.0641
11993TIP3   OH257393   4.742   4.288   1.483 -0.4593 -0.1091  0.3035
11993TIP3    H157394   4.827   4.331   1.473 -0.3919 -0.6405 -1.9477
11993TIP3    H257395   4.739   4.262   1.575  1.1474  1.2729  0.7945
11994TIP3   OH257396   2.813   4.048  13.606 -0.1163 -0.1770  0.5212
11994TIP3    H157397   2.763   4.124  13.635 -1.0278 -0.6654  0.2619
11994TIP3    H257398   2.882   4.085  13.551 -1.6949  0.3719 -1.2076
11995TIP3   OH257399   3.138   6.735  14.421 -0.3009 -0.0490  0.3135
11995TIP3    H157400   3.132   6.714  14.514 -1.1570  1.3506  0.6125
11995TIP3    H257401   3.064   6.688  14.381 -1.3663  1.1760  0.7521
11996TIP3   OH257402   2.174   3.587   5.061 -0.5250  0.2272  0.0571
11996TIP3    H157403   2.213   3.501   5.043 -0.2185  0.1419  1.0649
11996TIP3    H257404   2.108   3.598   4.993  0.6492 -0.0173 -1.1718
11997TIP3   OH257405   5.639   4.741   1.263 -0.1872 -0.1662  0.1246
11997TIP3    H157406   5.683   4.697   1.335 -0.1178 -1.8264 -0.8972
11997TIP3    H257407   5.545   4.731   1.281 -0.1759 -1.1137 -0.3122
11998TIP3   OH257408   1.568   2.507   1.510 -0.3994  0.0125  0.1186
11998TIP3    H157409   1.652   2.462   1.523 -0.4150 -0.4431 -1.2258
11998TIP3    H257410   1.572   2.582   1.570  0.8794 -0.1124  0.2216
11999TIP3   OH257411   1.646   0.522   2.920 -0.0179 -0.1536 -0.0526
11999TIP3    H157412   1.739   0.536   2.939 -0.1784  1.6105 -0.3502
11999TIP3    H257413   1.631   0.573   2.840 -1.4345  0.3589  0.5128
12000TIP3   OH257414   4.935   0.398   0.271 -0.1361  0.1569 -0.5653
12000TIP3    H157415   4.944   0.477   0.324 -0.2294 -0.3736  0.2750
12000TIP3    H257416   4.921   0.429   0.182 -1.6467  1.1020 -0.0322
12001TIP3   OH257417   5.750   6.479  14.116 -0.1266 -0.6129  0.4218
12001TIP3    H157418   5.734   6.491  14.023 -0.0068  0.2073  0.5021
12001TIP3    H257419   5.686   6.536  14.159  2.2299  1.9791  0.7699
12002TIP3   OH257420   1.207   4.598  13.824 -0.2950 -0.1564 -0.0459
12002TIP3    H157421   1.230   4.513  13.787  0.1607 -0.2685  0.4741
12002TIP3    H257422   1.194   4.655  13.748 -0.3653 -0.6304 -0.3908
12003TIP3   OH257423   6.754   5.365   1.668  0.0460  0.5962  0.0972
12003TIP3    H157424   6.737   5.448   1.714  0.5075  0.4765  0.4895
12003TIP3    H257425   6.734   5.384   1.577 -1.5294  0.6562  0.4254
12004TIP3   OH257426   4.464   5.331   0.479 -0.4391  0.8764  0.4876
12004TIP3    H157427   4.501   5.396   0.420  0.3364 -1.4460 -1.7462
12004TIP3    H257428   4.524   5.329   0.554  0.9140  1.0250 -0.5580
12005TIP3   OH257429   5.077   1.327   5.416 -0.2810 -0.0423 -0.1600
12005TIP3    H157430   5.169   1.328   5.444 -0.8131  0.8512  1.6402
12005TIP3    H257431   5.047   1.417   5.428 -0.7760  0.2788 -3.0242
12006TIP3   OH257432   2.699   6.476  16.259  0.6008 -1.0098  0.0431
12006TIP3    H157433   2.622   6.462  16.314  1.1598  1.0233  1.4376
12006TIP3    H257434   2.710   6.393  16.212 -1.0787 -2.1345  1.4994
12007TIP3   OH257435   4.419   6.672  13.626 -0.2750 -0.3518  0.4573
12007TIP3    H157436   4.471   6.633  13.697  1.0760  0.3959 -0.0852
12007TIP3    H257437   4.351   6.722  13.672  1.3644  1.2022  1.3177
12008TIP3   OH257438   4.656   3.847  13.908  0.3544 -0.3090 -0.6415
12008TIP3    H157439   4.678   3.802  13.826 -0.5617  0.3140 -1.2489
12008TIP3    H257440   4.676   3.939  13.891 -1.4344  0.0926 -0.7805
12009TIP3   OH257441   4.522   4.408   5.359  0.0741 -0.0512  0.1632
12009TIP3    H157442   4.482   4.480   5.310  0.2842  0.7714  1.1602
12009TIP3    H257443   4.462   4.335   5.348 -1.9901  1.2410  1.9642
12010TIP3   OH257444   0.164   4.708   2.634  0.2587  0.2245  0.2428
12010TIP3    H157445   0.172   4.709   2.539 -0.1955  2.2539  0.1780
12010TIP3    H257446   0.108   4.633   2.653 -0.5596  0.4351 -1.1956
12011TIP3   OH257447   6.281   2.008  14.090 -0.9005 -0.1333 -0.0884
12011TIP3    H157448   6.220   2.053  14.148 -0.8436  0.7541 -0.6935
12011TIP3    H257449   6.292   1.921  14.129 -0.9406  0.4045  1.1638
12012TIP3   OH257450   3.670   6.456   5.054  0.0345  0.1295 -0.2922
12012TIP3    H157451   3.581   6.444   5.089 -0.3533 -0.2223 -1.3467
12012TIP3    H257452   3.713   6.372   5.067  0.8124  0.7850  1.7570
12013TIP3   OH257453   5.921   2.565   3.109 -0.3952 -0.1000  0.3037
12013TIP3    H157454   5.837   2.587   3.071 -0.5553 -0.9374  0.1587
12013TIP3    H257455   5.985   2.585   3.041 -0.4584  0.6649  0.4635
12014TIP3   OH257456   5.106   4.920  14.618 -0.1251 -0.6089 -0.0803
12014TIP3    H157457   5.200   4.915  14.631  0.4502  2.5643 -1.9124
12014TIP3    H257458   5.081   5.006  14.653 -2.1525 -0.9757 -0.4871
12015TIP3   OH257459   0.303   5.446  14.548 -0.0802 -0.3769  0.9330
12015TIP3    H157460   0.293   5.352  14.533 -1.0218 -0.1419  0.0221
12015TIP3    H257461   0.394   5.464  14.525  0.5092 -1.2744  2.3852
12016TIP3   OH257462   6.065   0.765   3.800 -0.1934 -0.9701  0.7121
12016TIP3    H157463   5.987   0.815   3.822  0.1504 -0.5550  1.0238
12016TIP3    H257464   6.099   0.734   3.884  0.5690 -0.2263  0.6950
12017TIP3   OH257465   2.116   1.642   3.051 -1.0381 -0.3891 -0.3826
12017TIP3    H157466   2.123   1.699   3.128 -0.8471 -3.6502  2.2234
12017TIP3    H257467   2.207   1.627   3.024 -0.9223 -1.1721  0.3787
12018TIP3   OH257468   6.041   1.341  16.047 -0.2546  0.1173  0.4894
12018TIP3    H157469   6.051   1.247  16.065 -0.6367  0.1000  0.5995
12018TIP3    H257470   6.128   1.367  16.015  0.3725  0.0980  2.0636
12019TIP3   OH257471   1.129   5.679   5.124 -0.0852 -0.6431 -0.3774
12019TIP3    H157472   1.160   5.596   5.162  0.4788 -0.4212 -0.3380
12019TIP3    H257473   1.034   5.677   5.136 -0.1549 -1.5872 -0.9737
12020TIP3   OH257474   3.105   0.102   1.697  0.6942  0.5955 -0.2763
12020TIP3    H157475   3.050   0.137   1.767  0.5211  1.4911 -0.8366
12020TIP3    H257476   3.088   0.008   1.697 -0.9974  0.8683 -0.5500
12021TIP3   OH257477   4.565   1.213  13.971  0.8062 -0.2302  0.2225
12021TIP3    H157478   4.482   1.165  13.974  0.1761  0.8754  0.9548
12021TIP3    H257479   4.583   1.222  13.877  0.4341 -1.0368  0.0633
12022TIP3   OH257480   6.100   5.161  13.769 -0.2184 -0.3492 -0.1931
12022TIP3    H157481   6.152   5.235  13.740  2.9025 -1.8140  1.2072
12022TIP3    H257482   6.051   5.194  13.845 -1.0936  0.9441 -1.2799
12023TIP3   OH257483   2.337   6.254  16.857 -0.0381 -0.1921  0.0507
12023TIP3    H157484   2.252   6.249  16.814  0.9687 -0.0772 -2.1248
12023TIP3    H257485   2.389   6.185  16.815  1.0500 -0.0043  1.0496
12024TIP3   OH257486   5.069   4.347  14.627 -0.0500  0.2418  0.0016
12024TIP3    H157487   5.039   4.375  14.540 -1.5239 -0.8950  0.0974
12024TIP3    H257488   5.153   4.306  14.612 -0.6261 -0.6060 -1.0207
12025TIP3   OH257489   3.658   6.066   3.849  0.0552  0.1087  0.3578
12025TIP3    H157490   3.569   6.031   3.854  0.7103 -1.8261 -0.4191
12025TIP3    H257491   3.710   6.008   3.905  1.0241  0.4044 -0.2068
12026TIP3   OH257492   3.497   1.354  10.958  0.1367 -0.1980  0.0134
12026TIP3    H157493   3.513   1.428  11.017  3.6481  0.2701 -1.2422
12026TIP3    H257494   3.438   1.388  10.891  1.3555  1.4108 -0.3090
12027TIP3   OH257495   1.929   4.575   6.341 -0.3945  0.1685  0.3468
12027TIP3    H157496   1.929   4.648   6.404 -0.6889  0.1191  0.4041
12027TIP3    H257497   1.982   4.607   6.268  0.7374 -0.1118  1.0100
12028TIP3   OH257498   2.783   0.309   1.119  0.7828 -0.2096  0.1985
12028TIP3    H157499   2.729   0.229   1.117  0.3401  0.0646  0.6595
12028TIP3    H257500   2.863   0.283   1.165  1.0192 -0.6054 -0.4292
12029TIP3   OH257501   1.482   6.261  11.628  0.3812  0.3856 -0.1898
12029TIP3    H157502   1.541   6.204  11.579 -1.0655 -1.5445  0.1916
12029TIP3    H257503   1.509   6.249  11.720  0.3161  0.6069 -0.1415
12030TIP3   OH257504   2.028   3.019  14.656  0.3955 -0.4585  0.3825
12030TIP3    H157505   1.966   3.070  14.603  1.2405 -0.2550 -0.4387
12030TIP3    H257506   2.102   3.003  14.597  0.4879 -1.9756  0.8731
12031TIP3   OH257507   1.216   4.593   2.002 -0.1030 -0.2505 -0.0195
12031TIP3    H157508   1.197   4.657   1.932 -0.4500  0.9481  1.1284
12031TIP3    H257509   1.146   4.606   2.065  0.1300 -1.4240  0.4966
12032TIP3   OH257510   3.557   3.294  16.040 -0.0053 -0.3008 -0.0750
12032TIP3    H157511   3.465   3.317  16.042 -0.4564 -1.9601  0.3919
12032TIP3    H257512   3.559   3.209  15.994  1.3805  0.0820 -0.7861
12033TIP3   OH257513   1.585   0.359   4.573  0.0723 -0.3761 -0.0944
12033TIP3    H157514   1.625   0.446   4.570 -0.0199 -0.2719  1.1901
12033TIP3    H257515   1.599   0.324   4.485 -0.0283  0.9895 -0.6929
12034TIP3   OH257516   6.575   2.644  15.096  0.3990 -0.0755  0.5583
12034TIP3    H157517   6.629   2.592  15.037  0.4923 -0.0459  0.6179
12034TIP3    H257518   6.501   2.672  15.042  1.9893  2.5224 -0.4610
12035TIP3   OH257519   5.668   0.424   2.719 -0.5155  0.7371 -0.2436
12035TIP3    H157520   5.700   0.450   2.632  1.4792 -2.6962 -0.7207
12035TIP3    H257521   5.587   0.376   2.702  0.5744 -1.1077 -0.4406
12036TIP3   OH257522   6.027   4.642   3.052 -0.1480  0.4510  0.3127
12036TIP3    H157523   6.115   4.611   3.073 -0.9107 -1.3531  1.0614
12036TIP3    H257524   6.034   4.677   2.963  1.3619  0.5941  0.4665
12037TIP3   OH257525   5.652   6.526   0.054 -0.4676 -0.1761  0.3921
12037TIP3    H157526   5.698   6.531  -0.029  0.4534  0.6015  0.9318
12037TIP3    H257527   5.712   6.479   0.112 -0.3543  0.8119  1.0924
12038TIP3   OH257528   3.414   1.728   4.393 -0.0496 -0.4729 -0.3671
12038TIP3    H157529   3.408   1.803   4.453  0.1030 -0.0395 -0.8873
12038TIP3    H257530   3.324   1.699   4.382  0.0352 -1.4135  1.1289
12039TIP3   OH257531   3.213   3.196   5.872  0.4902 -0.3935 -0.2229
12039TIP3    H157532   3.194   3.259   5.941  1.1869  0.3897 -0.7316
12039TIP3    H257533   3.288   3.233   5.826  1.2350 -1.8502 -0.2161
12040TIP3   OH257534   2.877   3.210   2.242  0.4573  0.4937  0.1006
12040TIP3    H157535   2.936   3.284   2.256  0.3883  0.3117  1.4645
12040TIP3    H257536   2.793   3.238   2.278  0.3072 -0.0730  0.2100
12041TIP3   OH257537   4.009   0.067  10.951  0.0122 -0.0485 -0.2186
12041TIP3    H157538   3.940   0.068  10.884 -0.0312  0.4973 -0.1681
12041TIP3    H257539   4.089   0.048  10.901  0.0171  0.5985 -0.4688
12042TIP3   OH257540   4.367   1.025  11.755 -0.3713 -0.1542 -0.3349
12042TIP3    H157541   4.403   1.071  11.831  4.3471  0.0020 -2.3544
12042TIP3    H257542   4.374   0.932  11.778 -3.6134 -0.1735  1.1246
12043TIP3   OH257543   2.521   5.181   0.350  0.1694  0.0800 -0.3294
12043TIP3    H157544   2.479   5.150   0.430 -0.2125  0.1568 -0.4996
12043TIP3    H257545   2.570   5.105   0.317  1.1787  0.3391  0.5292
12044TIP3   OH257546   0.266   3.791  11.733  0.3775 -0.0051 -0.1452
12044TIP3    H157547   0.277   3.729  11.805 -3.3795 -2.8389 -1.6703
12044TIP3    H257548   0.174   3.818  11.740  0.3930  0.9771 -2.8414
12045TIP3   OH257549   2.868   0.805  17.333  0.2868 -0.3328  0.1153
12045TIP3    H157550   2.910   0.746  17.395 -2.1429  0.5780  2.9078
12045TIP3    H257551   2.801   0.751  17.290  0.7682 -0.5292 -0.4034
12046TIP3   OH257552   1.992   2.371  12.682 -0.3085  0.9167 -0.0051
12046TIP3    H157553   1.959   2.419  12.606 -2.1409 -0.5757 -0.2311
12046TIP3    H257554   1.929   2.388  12.751  0.8316  1.4828  0.9425
12047TIP3   OH257555   5.506   5.202   4.111  0.1404  0.0779 -0.8111
12047TIP3    H157556   5.507   5.203   4.206  1.1992 -1.2425 -0.7790
12047TIP3    H257557   5.475   5.289   4.086 -0.4606  0.3260  0.7279
12048TIP3   OH257558   5.350   5.538  12.715 -0.2690 -0.0039  0.7212
12048TIP3    H157559   5.272   5.507  12.668  0.8883 -1.4948 -0.3227
12048TIP3    H257560   5.408   5.572  12.646 -0.1489  1.4944  1.5278
12049TIP3   OH257561   5.876   5.381   2.412  0.1728  0.1367 -0.4677
12049TIP3    H157562   5.921   5.423   2.486  0.3811  1.0778 -1.1155
12049TIP3    H257563   5.788   5.361   2.446 -0.3193  2.1259 -0.4567
12050TIP3   OH257564   6.377   3.568  14.288  0.4420  0.2320 -0.1769
12050TIP3    H157565   6.414   3.540  14.204  0.3641  0.5710 -0.3251
12050TIP3    H257566   6.401   3.660  14.296 -1.0557  0.6916 -0.6699
12051TIP3   OH257567   5.241   6.091   2.097 -0.1999 -0.4343  0.1928
12051TIP3    H157568   5.211   6.175   2.130 -0.5167 -0.3498 -0.3054
12051TIP3    H257569   5.335   6.090   2.116  0.2690  0.9828 -1.7547
12052TIP3   OH257570   1.700   2.995   0.008 -0.4857  0.9825  0.2452
12052TIP3    H157571   1.788   3.031   0.009 -0.1000  0.0670  1.2604
12052TIP3    H257572   1.700   2.928   0.076 -1.6487  0.2196 -0.4530
12053TIP3   OH257573   5.668   3.015   3.450  0.0926 -0.4257 -0.0444
12053TIP3    H157574   5.724   3.078   3.497  0.3167 -1.3923  1.0076
12053TIP3    H257575   5.730   2.963   3.398 -0.1130  0.3298 -1.0832
12054TIP3   OH257576   6.518   5.049  17.340  0.8384  0.3863 -1.0093
12054TIP3    H157577   6.481   5.091  17.418  0.8862 -0.4833 -0.5042
12054TIP3    H257578   6.611   5.040  17.360  0.6989 -0.6242 -0.8034
12055TIP3   OH257579   1.423   2.812  17.253  0.2410  0.3556  0.1137
12055TIP3    H157580   1.383   2.873  17.315  1.9150  0.7277  0.8784
12055TIP3    H257581   1.364   2.737  17.250  0.1881  0.2700  2.2705
12056TIP3   OH257582   0.110   6.636   3.932 -0.4307  0.2125 -0.0922
12056TIP3    H157583   0.046   6.669   3.868 -0.1230 -1.6348 -1.4330
12056TIP3    H257584   0.117   6.543   3.912  1.4603  0.0646  1.1168
12057TIP3   OH257585   1.902   1.456   2.918  0.0648  0.0214  0.2457
12057TIP3    H157586   1.956   1.534   2.902  0.4890 -0.1380  0.8545
12057TIP3    H257587   1.820   1.474   2.872  0.4928  0.4312 -0.3815
12058TIP3   OH257588   4.596   5.704  12.385  0.0629  0.2238  0.0143
12058TIP3    H157589   4.609   5.677  12.476 -0.1606 -1.3631 -0.3969
12058TIP3    H257590   4.654   5.648  12.334 -1.6583 -0.7068 -1.0391
12059TIP3   OH257591   3.432   0.274  15.736 -0.3539 -0.0472  1.1454
12059TIP3    H157592   3.366   0.283  15.667 -0.0882  1.1521  1.0124
12059TIP3    H257593   3.382   0.266  15.817 -0.6861  0.7912  1.0385
12060TIP3   OH257594   2.931   0.076   5.437  0.3641  0.3412  0.3134
12060TIP3    H157595   2.870   0.037   5.499  0.5806  0.6381  0.7142
12060TIP3    H257596   2.881   0.083   5.355 -0.8284  2.4676  1.1438
12061TIP3   OH257597   4.123   5.750   5.819 -0.1603  0.0183 -0.0918
12061TIP3    H157598   4.187   5.711   5.879 -0.4449 -0.2111  0.0692
12061TIP3    H257599   4.048   5.770   5.875  0.0185  0.8947 -0.1550
12062TIP3   OH257600   0.053   3.372  14.777  0.3663  0.0622  0.3532
12062TIP3    H157601   0.076   3.435  14.708 -0.3577  0.0397  0.0865
12062TIP3    H257602   0.057   3.423  14.858  1.0941  0.1203  0.2862
12063TIP3   OH257603   1.838   0.639  15.039  0.3412  0.1140 -0.2093
12063TIP3    H157604   1.808   0.726  15.014 -0.8844 -1.1730 -3.6762
12063TIP3    H257605   1.918   0.625  14.988 -1.2196 -1.9231 -2.2692
12064TIP3   OH257606   2.022   2.104   0.563 -0.2471  0.4730 -0.2255
12064TIP3    H157607   1.929   2.087   0.543  0.0212  0.9613 -2.0704
12064TIP3    H257608   2.053   2.023   0.603 -1.2976  0.0394 -0.2584
12065TIP3   OH257609   3.811   0.889  13.019 -0.0834  0.9196 -0.4989
12065TIP3    H157610   3.883   0.869  13.079  0.7808  2.7094 -0.8630
12065TIP3    H257611   3.739   0.832  13.047  0.9499  0.2642  0.9195
12066TIP3   OH257612   5.962   2.087   0.898 -0.2442 -0.6704 -0.1018
12066TIP3    H157613   5.951   2.135   0.981 -2.5545  0.6702 -1.0689
12066TIP3    H257614   6.053   2.101   0.874 -0.0169  0.4998  1.3057
12067TIP3   OH257615   6.567   4.184   5.189  0.5641  0.3232  0.0758
12067TIP3    H157616   6.609   4.242   5.253  0.8617 -0.7020  0.8283
12067TIP3    H257617   6.570   4.234   5.107  2.7138  0.5429  0.2237
12068TIP3   OH257618   0.279   4.496  16.323 -0.2838 -0.2431  0.1668
12068TIP3    H157619   0.270   4.497  16.418  0.5356  0.6074  0.2575
12068TIP3    H257620   0.305   4.586  16.301 -0.6357 -0.3880 -0.8764
12069TIP3   OH257621   0.946   0.166   3.711  0.0079 -0.6150  0.0755
12069TIP3    H157622   0.946   0.254   3.750  1.4332 -1.2978  1.7405
12069TIP3    H257623   0.919   0.108   3.782  0.2299 -1.6509 -0.6593
12070TIP3   OH257624   2.397   0.563   5.725  0.1507  0.3089  0.5184
12070TIP3    H157625   2.371   0.607   5.644  0.3644 -0.6813 -0.0983
12070TIP3    H257626   2.315   0.547   5.771  0.0180  0.7582  0.4400
12071TIP3   OH257627   6.278   3.296   5.401 -0.1651  0.3237  0.3256
12071TIP3    H157628   6.217   3.249   5.344  0.3043 -0.9271  0.8170
12071TIP3    H257629   6.273   3.249   5.485  2.8595 -1.0576 -0.1479
12072TIP3   OH257630   4.930   1.998  16.098  0.1640 -0.3766  0.2443
12072TIP3    H157631   4.883   2.072  16.135  0.9753 -0.0152  0.5720
12072TIP3    H257632   5.022   2.019  16.111  0.4049 -1.5112  0.4741
12073TIP3   OH257633   1.176   0.014   1.061 -0.5682 -0.4887  0.2450
12073TIP3    H157634   1.173   0.011   1.156 -2.2215  3.5225  0.4965
12073TIP3    H257635   1.260  -0.027   1.038  0.5933 -0.1927  3.4949
12074TIP3   OH257636   4.473   5.514  11.447 -0.0771  0.1472 -0.2945
12074TIP3    H157637   4.499   5.601  11.417  0.9557 -0.0662 -0.0493
12074TIP3    H257638   4.513   5.454  11.384 -2.4276 -0.1148 -1.6532
12075TIP3   OH257639   3.644   1.758   1.481  0.4283  0.0684 -0.4182
12075TIP3    H157640   3.647   1.721   1.392 -0.5708  0.1605 -0.5037
12075TIP3    H257641   3.731   1.795   1.494  0.0451  1.7631 -2.1131
12076TIP3   OH257642   1.183   2.561  13.725  0.6896 -0.2752 -0.0246
12076TIP3    H157643   1.191   2.631  13.660  0.6999 -0.1841  0.0754
12076TIP3    H257644   1.105   2.513  13.699 -1.5998  2.0135  2.0610
12077TIP3   OH257645   5.660   3.057  16.516 -0.1440 -0.0935 -0.0299
12077TIP3    H157646   5.572   3.019  16.504  0.2519 -0.1618 -4.0914
12077TIP3    H257647   5.703   2.998  16.578 -1.8504 -2.1627 -0.6952
12078TIP3   OH257648   2.816   2.395  12.156 -0.0845 -0.4781  0.1680
12078TIP3    H157649   2.875   2.456  12.111 -0.2886 -0.0999  0.4082
12078TIP3    H257650   2.762   2.451  12.212 -1.2809 -0.7065 -0.7143
12079TIP3   OH257651   6.490   1.747   5.005  0.3799  0.0745 -0.4248
12079TIP3    H157652   6.424   1.810   5.036  0.6671  1.2882 -2.1304
12079TIP3    H257653   6.569   1.770   5.054  0.3208  0.6534 -0.5909
12080TIP3   OH257654   5.755   0.425  11.141 -0.0943  0.0725 -0.2518
12080TIP3    H157655   5.667   0.418  11.180  0.8000 -3.8355  1.5947
12080TIP3    H257656   5.740   0.413  11.047 -1.5509 -0.2696 -0.0089
12081TIP3   OH257657   5.010   6.454  13.456  0.6414 -0.3414 -0.0038
12081TIP3    H157658   5.049   6.447  13.369  1.3805  1.4111  0.1446
12081TIP3    H257659   4.944   6.523  13.448  1.0783  0.2006  0.9376
12082TIP3   OH257660   2.662   6.635  10.953  0.4810 -0.4567 -0.2516
12082TIP3    H157661   2.680   6.666  10.865  1.8709 -2.3459 -0.6884
12082TIP3    H257662   2.729   6.677  11.008 -0.0628  0.3110 -0.1598
12083TIP3   OH257663   3.168   3.276   4.735 -0.7157 -0.3104  0.0165
12083TIP3    H157664   3.241   3.329   4.704 -0.6385 -0.6352 -0.3651
12083TIP3    H257665   3.103   3.283   4.665 -0.7473 -0.6315  0.0134
12084TIP3   OH257666   4.480   4.975   6.323  0.1150 -0.0958 -0.1587
12084TIP3    H157667   4.411   5.018   6.373  0.3114 -0.9820  0.9143
12084TIP3    H257668   4.457   4.989   6.232 -1.1375  0.1527  0.1859
12085TIP3   OH257669   5.495   2.468  15.188  0.5981 -0.4771 -0.3485
12085TIP3    H157670   5.564   2.505  15.132  0.8236 -1.1168 -0.4978
12085TIP3    H257671   5.415   2.478  15.137  0.7291 -0.6152 -0.5814
12086TIP3   OH257672   0.457   0.727   3.224  0.2058  0.3650 -0.1627
12086TIP3    H157673   0.455   0.645   3.275  0.5367  0.2802 -0.2802
12086TIP3    H257674   0.416   0.704   3.141  1.9831 -0.2114 -0.9344
12087TIP3   OH257675   2.016   0.140  12.703  0.2660 -0.4053 -0.0642
12087TIP3    H157676   2.080   0.210  12.712 -0.7585  0.6356 -0.6827
12087TIP3    H257677   2.034   0.081  12.776  0.5493  0.9677  1.0049
12088TIP3   OH257678   0.311   0.774  17.065 -0.1653  0.1549 -0.0258
12088TIP3    H157679   0.278   0.758  16.977 -0.8707  0.5413  0.1654
12088TIP3    H257680   0.273   0.704  17.118  2.0968 -1.4973 -0.4252
12089TIP3   OH257681   2.189   4.375  16.359 -0.0463  0.2242 -0.3052
12089TIP3    H157682   2.269   4.339  16.396 -0.7458 -0.5300  0.5104
12089TIP3    H257683   2.201   4.470  16.363  1.4098  0.1254 -1.5668
12090TIP3   OH257684   2.395   6.680   0.040  0.5546  0.1925 -0.2444
12090TIP3    H157685   2.417   6.587   0.044  0.8922  0.2824 -0.0347
12090TIP3    H257686   2.387   6.699  -0.053  1.8773  0.2797 -0.3579
12091TIP3   OH257687   0.337   5.217   4.850  0.7824 -0.1783  0.4589
12091TIP3    H157688   0.412   5.162   4.829  1.2561  0.3224  0.7867
12091TIP3    H257689   0.349   5.296   4.797 -0.5391 -0.8691 -0.9297
12092TIP3   OH257690   6.218   4.880   2.161 -0.1279  0.0615 -0.4147
12092TIP3    H157691   6.279   4.812   2.191 -0.0069 -0.8778 -2.5630
12092TIP3    H257692   6.272   4.959   2.153  0.0554  0.0674  0.7478
12093TIP3   OH257693   3.446   0.280  11.021  0.3114 -0.3029 -0.4147
12093TIP3    H157694   3.494   0.310  11.099 -1.1233  3.1696 -0.6653
12093TIP3    H257695   3.512   0.282  10.951  0.9532 -0.5782  0.1682
12094TIP3   OH257696   2.646   4.935   0.272 -0.5138  0.7045  0.1696
12094TIP3    H157697   2.721   4.881   0.246 -0.0042  1.1792  0.6133
12094TIP3    H257698   2.620   4.899   0.357 -0.5067  0.8208  0.2209
12095TIP3   OH257699   1.035   4.295   0.753 -0.2842 -0.8242  0.5595
12095TIP3    H157700   1.098   4.282   0.682 -1.7550 -1.1566 -0.7535
12095TIP3    H257701   0.982   4.216   0.753 -1.1518 -0.2665  1.1459
12096TIP3   OH257702   1.087   1.522   2.482  0.2147 -0.0407  0.1078
12096TIP3    H157703   1.031   1.513   2.406  0.6007 -1.0593 -0.0740
12096TIP3    H257704   1.046   1.467   2.549 -0.4697  1.3487  0.8517
12097TIP3   OH257705   2.528   3.649   0.804  0.4544 -0.0259  0.2164
12097TIP3    H157706   2.476   3.673   0.881  0.5969  1.5951 -0.1529
12097TIP3    H257707   2.472   3.672   0.730 -0.7062 -3.7711 -0.3168
12098TIP3   OH257708   2.160   6.360  12.993  0.5744  0.7039  0.3950
12098TIP3    H157709   2.236   6.350  13.050  0.2314  0.8413  0.8843
12098TIP3    H257710   2.196   6.387  12.909  0.8998  3.6535  1.3691
12099TIP3   OH257711   6.519   1.808   4.680 -0.0899 -0.4274 -0.6935
12099TIP3    H157712   6.536   1.866   4.755  1.0652 -0.0614 -1.2226
12099TIP3    H257713   6.603   1.798   4.637 -0.2226 -2.6168 -0.5739
12100TIP3   OH257714   2.841   2.303   2.014  0.2210  0.0847  0.2740
12100TIP3    H157715   2.890   2.221   2.004 -1.8161 -1.3035  0.8602
12100TIP3    H257716   2.788   2.310   1.935  0.9740  1.2952 -0.1412
12101TIP3   OH257717   4.638   3.640   2.777  0.5159  0.2254 -0.1419
12101TIP3    H157718   4.683   3.578   2.834  1.1317  1.1572  0.3980
12101TIP3    H257719   4.669   3.617   2.689  1.8039  0.6351  0.1843
12102TIP3   OH257720   5.244   0.860  13.863  0.6943 -0.5004 -0.1863
12102TIP3    H157721   5.301   0.937  13.866  1.4062 -0.9420 -1.4534
12102TIP3    H257722   5.259   0.815  13.946  1.9218 -0.4163 -0.3493
12103TIP3   OH257723   0.397   1.496  15.979  0.2864 -0.3214 -0.2263
12103TIP3    H157724   0.377   1.436  15.907 -1.5639 -1.5044  1.1695
12103TIP3    H257725   0.330   1.564  15.972  0.3222 -0.2479  0.1590
12104TIP3   OH257726   5.001   6.424   0.155  0.1417  0.6975 -0.1205
12104TIP3    H157727   4.968   6.419   0.245  0.0602  0.6429 -0.1535
12104TIP3    H257728   4.990   6.515   0.130  0.9934  0.9120  0.2404
12105TIP3   OH257729   5.293   2.556  12.607 -0.1050 -1.2026 -0.0437
12105TIP3    H157730   5.278   2.559  12.702  1.0447 -1.4452  0.1639
12105TIP3    H257731   5.219   2.603  12.569 -0.3822 -0.7715  0.9970
12106TIP3   OH257732   3.388   2.424   4.066  0.5522  0.1795 -0.3683
12106TIP3    H157733   3.343   2.501   4.031  0.6814  0.3199 -0.2264
12106TIP3    H257734   3.403   2.368   3.990 -0.4701 -0.1799 -0.3181
12107TIP3   OH257735   1.219   0.027  13.179  0.9395  0.1819 -0.5405
12107TIP3    H157736   1.297  -0.013  13.141  0.5279 -0.1278 -1.0698
12107TIP3    H257737   1.235   0.024  13.273  1.0703 -0.9197 -0.5791
12108TIP3   OH257738   3.902   4.632   1.918  0.1933  0.3683  0.6253
12108TIP3    H157739   3.920   4.587   2.001  0.6719  1.8166  1.3300
12108TIP3    H257740   3.985   4.630   1.871  0.6203  1.7415  1.2793
12109TIP3   OH257741   5.702   5.338  10.422 -0.1165  0.2542  0.1919
12109TIP3    H157742   5.700   5.251  10.382 -0.1076  0.2433  0.2152
12109TIP3    H257743   5.622   5.342  10.474  0.2530 -0.0276  0.7991
12110TIP3   OH257744   1.070   3.272   5.923 -0.1848 -0.4485 -0.1734
12110TIP3    H157745   1.113   3.357   5.922  1.2332 -1.1233  0.5187
12110TIP3    H257746   1.024   3.270   6.008 -0.3056 -0.3395 -0.2357
12111TIP3   OH257747   2.441   0.878  13.164 -0.0815  0.1688  1.3321
12111TIP3    H157748   2.380   0.945  13.134  1.9920  1.5370 -0.0739
12111TIP3    H257749   2.495   0.922  13.230  1.3990 -0.0292  0.2956
12112TIP3   OH257750   3.186   5.944  15.201 -0.5092  0.1436  0.5621
12112TIP3    H157751   3.242   5.871  15.174  0.4173  1.0313 -0.0129
12112TIP3    H257752   3.248   6.009  15.235 -1.1365  1.3114 -0.4662
12113TIP3   OH257753   1.220   4.752  13.592 -0.4114 -0.1549 -0.3031
12113TIP3    H157754   1.225   4.711  13.506  0.8599  0.6592 -0.6465
12113TIP3    H257755   1.293   4.814  13.594 -0.5777  0.0498  1.2556
12114TIP3   OH257756   1.095   5.265  11.276  0.0504 -0.1191  0.2703
12114TIP3    H157757   1.128   5.217  11.351  0.8419 -1.0086 -0.6201
12114TIP3    H257758   1.091   5.201  11.206  2.5351  1.3376 -1.3750
12115TIP3   OH257759   2.556   0.647   3.650  0.1586  0.0585  0.1180
12115TIP3    H157760   2.571   0.553   3.650 -0.1434 -0.0415  2.2976
12115TIP3    H257761   2.477   0.659   3.597 -0.4602 -1.0506  0.7684
12116TIP3   OH257762   5.826   4.382  14.343  0.1673  0.5909  0.0243
12116TIP3    H157763   5.904   4.350  14.388  0.3732  3.3828  1.9602
12116TIP3    H257764   5.853   4.465  14.305 -1.0048 -0.0349 -2.3584
12117TIP3   OH257765   1.816   4.408   4.117  0.1252 -0.2310 -0.6766
12117TIP3    H157766   1.807   4.327   4.066 -2.9112  1.1687 -2.6612
12117TIP3    H257767   1.877   4.461   4.067  1.4442 -0.9154  0.1659
12118TIP3   OH257768   3.902   2.993   5.732 -0.2895  0.5891  0.1790
12118TIP3    H157769   3.964   3.061   5.707  1.2967 -0.3930  1.2219
12118TIP3    H257770   3.908   2.988   5.827  1.0230 -2.1617  0.0567
12119TIP3   OH257771   0.306   3.826  15.586 -0.2454 -0.6723 -0.5946
12119TIP3    H157772   0.323   3.905  15.534  1.3803 -0.6611 -0.1158
12119TIP3    H257773   0.253   3.770  15.529 -0.2266  0.1827 -1.4740
12120TIP3   OH257774   4.859   5.340   4.609 -0.1926 -0.0382  0.8267
12120TIP3    H157775   4.840   5.430   4.636  1.6288  0.4229  0.6742
12120TIP3    H257776   4.933   5.348   4.549 -0.4385 -1.5881  0.2843
12121TIP3   OH257777   0.926   5.095  14.370  0.0119 -0.1630  0.2081
12121TIP3    H157778   0.904   5.004  14.389  1.1106 -0.3172  0.7926
12121TIP3    H257779   1.018   5.093  14.344  0.4665  0.9343  1.6044
12122TIP3   OH257780   2.395   2.723   6.353  0.2391 -0.0288 -0.3517
12122TIP3    H157781   2.390   2.773   6.434  0.1434  1.0705 -1.0191
12122TIP3    H257782   2.306   2.690   6.340 -0.4534  2.0369 -1.3574
12123TIP3   OH257783   3.905   3.023   6.006 -0.2138 -0.4864  0.4541
12123TIP3    H157784   3.913   3.116   5.985  1.2906 -0.3201  1.6014
12123TIP3    H257785   3.843   3.020   6.079  1.4963 -0.0872  1.9961
12124TIP3   OH257786   2.263   2.225   3.514 -0.2891  0.0068 -0.7354
12124TIP3    H157787   2.271   2.292   3.447  1.6311 -0.5041 -1.0755
12124TIP3    H257788   2.317   2.256   3.587 -0.2425 -0.6658 -0.4683
12125TIP3   OH257789   2.527   2.289   1.330 -0.1928  0.3739 -0.2234
12125TIP3    H157790   2.588   2.219   1.351  1.4680  1.4158 -1.3268
12125TIP3    H257791   2.457   2.280   1.395  0.9231 -1.0851  0.8576
12126TIP3   OH257792   5.610   6.441  12.538 -0.2323  0.3541 -0.5613
12126TIP3    H157793   5.547   6.371  12.552 -1.0592  0.7845 -1.9752
12126TIP3    H257794   5.686   6.397  12.498 -0.5012  0.1666 -0.8682
12127TIP3   OH257795   2.642   6.089   0.068  0.0063  0.8248 -0.5918
12127TIP3    H157796   2.705   6.137   0.124  0.4740  0.2118 -0.5841
12127TIP3    H257797   2.696   6.051  -0.001 -0.7848  3.1081 -2.5873
12128TIP3   OH257798   3.321   1.147  15.640  0.8022 -0.4409 -0.0932
12128TIP3    H157799   3.254   1.096  15.594  0.1606 -0.4056  0.7749
12128TIP3    H257800   3.355   1.207  15.574 -2.4770  2.0332  0.1801
12129TIP3   OH257801   2.095   5.625  13.266 -0.2720 -0.0172 -0.6626
12129TIP3    H157802   2.127   5.535  13.261 -0.0399  0.0040  0.2553
12129TIP3    H257803   2.070   5.637  13.358 -0.5949  0.7557 -0.8421
12130TIP3   OH257804   0.230   1.727   0.228  0.0795  0.0313  0.1244
12130TIP3    H157805   0.305   1.754   0.175 -0.4852 -0.7673 -1.1280
12130TIP3    H257806   0.161   1.789   0.205 -0.0553 -0.0879  0.2084
12131TIP3   OH257807   2.466   4.655   1.798  0.9298 -0.0768  0.1572
12131TIP3    H157808   2.473   4.656   1.703 -1.9038  1.5063 -0.1392
12131TIP3    H257809   2.498   4.741   1.826  1.1075 -0.2727  0.5712
12132TIP3   OH257810   6.038   0.359   4.649 -0.4632 -0.1231 -0.2443
12132TIP3    H157811   6.073   0.395   4.731  1.2924 -1.1732 -0.4796
12132TIP3    H257812   6.029   0.435   4.591  0.2709  0.3546  0.2444
12133TIP3   OH257813   5.366   1.512   2.918 -0.7259 -0.2903  0.2567
12133TIP3    H157814   5.459   1.515   2.942  0.0805  1.4210 -2.6103
12133TIP3    H257815   5.320   1.524   3.001  1.6035 -0.8151  1.7258
12134TIP3   OH257816   4.672   0.664   3.873 -0.2873 -0.3119  0.3059
12134TIP3    H157817   4.706   0.752   3.857 -1.7123 -0.0656 -1.7347
12134TIP3    H257818   4.590   0.660   3.824  1.1125 -3.6851 -2.1615
12135TIP3   OH257819   1.281   2.524   1.300 -0.1593 -0.0566 -0.2639
12135TIP3    H157820   1.296   2.454   1.236 -0.0710 -0.8290  0.5863
12135TIP3    H257821   1.186   2.532   1.304 -0.1605  0.4124 -0.9141
12136TIP3   OH257822   4.421   6.706   3.456  0.1290  0.2834  0.2283
12136TIP3    H157823   4.446   6.641   3.522 -0.7615 -0.3699 -0.0571
12136TIP3    H257824   4.335   6.737   3.484 -0.3372 -0.1266 -0.7058
12137TIP3   OH257825   5.465   1.594   5.546 -0.2464 -0.5299 -0.1790
12137TIP3    H157826   5.558   1.590   5.566 -0.3576  0.9416  0.7503
12137TIP3    H257827   5.461   1.604   5.451  0.4778 -1.8645 -0.3742
12138TIP3   OH257828   5.188   1.211   2.824  0.1903  0.1899  0.0529
12138TIP3    H157829   5.124   1.154   2.783 -1.3787  1.5991  0.4549
12138TIP3    H257830   5.240   1.246   2.751 -1.4192  1.3052 -0.5995
12139TIP3   OH257831   3.562   5.402   1.709 -0.3230  0.1645 -0.1284
12139TIP3    H157832   3.584   5.488   1.674  3.5866 -0.2778  0.7967
12139TIP3    H257833   3.646   5.363   1.733 -2.1443 -2.5987  2.5925
12140TIP3   OH257834   5.134   0.226  12.073  0.2263  0.0806 -0.1282
12140TIP3    H157835   5.084   0.144  12.078  2.3987 -1.3972 -1.0701
12140TIP3    H257836   5.225   0.199  12.088  0.8710  2.5637  0.9401
12141TIP3   OH257837   6.686   2.176   4.673 -0.7861 -0.1731 -0.3801
12141TIP3    H157838   6.633   2.115   4.724 -1.5301  0.2782 -0.5999
12141TIP3    H257839   6.776   2.147   4.688 -1.1082 -1.1932 -0.3146
12142TIP3   OH257840   1.978   0.252  16.108 -0.6656 -0.5147 -0.2017
12142TIP3    H157841   1.904   0.256  16.046 -2.5219 -1.3462  1.8307
12142TIP3    H257842   2.022   0.169  16.086 -1.6356 -1.0756 -0.1017
12143TIP3   OH257843   3.462   5.405   0.630 -0.3838 -0.0963  0.0473
12143TIP3    H157844   3.486   5.345   0.559  0.6544 -1.3287  1.3668
12143TIP3    H257845   3.532   5.395   0.694 -1.4148  0.7882  1.3643
12144TIP3   OH257846   3.370   3.518  15.145 -0.3643  0.1987 -0.1906
12144TIP3    H157847   3.350   3.599  15.097 -2.0507 -0.2386 -0.2981
12144TIP3    H257848   3.303   3.514  15.214  1.6279  0.5024  1.8818
12145TIP3   OH257849   3.573   1.094  15.725 -0.4582  0.4750  0.1264
12145TIP3    H157850   3.480   1.101  15.703 -0.3861 -2.0801 -1.4211
12145TIP3    H257851   3.578   1.016  15.781  0.7221  0.7358  0.4014
12146TIP3   OH257852   1.986   5.191  11.818 -0.7490  0.3995  0.0242
12146TIP3    H157853   1.899   5.230  11.817 -1.5640 -1.3002  0.3816
12146TIP3    H257854   1.977   5.110  11.767  0.2216 -0.5800  1.3220
12147TIP3   OH257855   3.448   2.381  13.033  0.0857 -0.1514 -0.0800
12147TIP3    H157856   3.496   2.461  13.055 -1.9877  1.6675 -1.7282
12147TIP3    H257857   3.488   2.350  12.951  0.5555 -0.5469  0.2910
12148TIP3   OH257858   5.472   0.305  13.434  0.1677  0.0364  0.0700
12148TIP3    H157859   5.489   0.377  13.373  0.6180  0.2173  0.4051
12148TIP3    H257860   5.440   0.348  13.514  1.3451 -0.0485  0.6084
12149TIP3   OH257861   6.551   2.369  10.682 -0.2654  0.1705 -0.3259
12149TIP3    H157862   6.621   2.361  10.747  0.0287 -0.3878 -0.7041
12149TIP3    H257863   6.500   2.445  10.710 -0.1060 -0.0308  0.5211
12150TIP3   OH257864   6.419   6.082  12.742 -0.0552 -0.4253  0.6224
12150TIP3    H157865   6.338   6.039  12.712 -0.7047  0.7740  0.6203
12150TIP3    H257866   6.392   6.135  12.817  0.2474  1.7608 -0.7352
12151TIP3   OH257867   5.066   1.874  17.069  0.4411  0.5862 -0.5075
12151TIP3    H157868   5.126   1.799  17.068  0.6933  0.7838 -0.3086
12151TIP3    H257869   5.011   1.862  16.992  2.0048  1.4401 -1.8052
12152TIP3   OH257870   6.304   5.911   1.668 -0.2978  0.3386  0.3149
12152TIP3    H157871   6.211   5.891   1.679 -0.2029 -0.0421  0.4120
12152TIP3    H257872   6.349   5.827   1.677 -0.0153  0.3761 -0.6058
12153TIP3   OH257873   2.797   2.380  15.308 -0.2867  0.1789  0.7027
12153TIP3    H157874   2.878   2.330  15.316 -0.5842 -0.4464  0.0142
12153TIP3    H257875   2.794   2.435  15.386  1.2244  0.8464  0.3254
12154TIP3   OH257876   0.219   2.424  14.389  0.7494 -0.3547  0.3060
12154TIP3    H157877   0.197   2.508  14.431 -1.6123 -0.5161 -0.4175
12154TIP3    H257878   0.238   2.365  14.461  1.9094  0.6435  0.8530
12155TIP3   OH257879   3.764   5.092  15.379 -0.0416 -0.4224 -0.6391
12155TIP3    H157880   3.669   5.101  15.381 -0.3515 -2.7603 -1.3720
12155TIP3    H257881   3.793   5.157  15.315 -1.1990  0.0942 -0.6528
12156TIP3   OH257882   1.982   2.857   5.158  0.4044  0.6848 -0.0748
12156TIP3    H157883   1.891   2.829   5.150 -0.0746  1.9078  0.7384
12156TIP3    H257884   2.030   2.802   5.096 -0.8662 -0.0608 -0.4299
12157TIP3   OH257885   3.163   5.332  11.660 -0.1997 -0.2470  0.4366
12157TIP3    H157886   3.099   5.404  11.667 -1.0911 -1.0152  0.4473
12157TIP3    H257887   3.137   5.286  11.581 -1.0303 -1.8373  1.5776
12158TIP3   OH257888   6.626   4.607  10.729 -0.5018 -0.0284  0.2156
12158TIP3    H157889   6.561   4.559  10.780 -1.0025  0.2623 -0.1490
12158TIP3    H257890   6.682   4.539  10.691 -0.8950 -0.2948  0.1174
12159TIP3   OH257891   5.839   1.754  14.897 -0.2518  0.5144 -0.2755
12159TIP3    H157892   5.921   1.784  14.936 -0.5565  0.9716  0.0128
12159TIP3    H257893   5.825   1.812  14.822 -1.0259  1.3495  0.4918
12160TIP3   OH257894   0.477   5.293   5.083 -0.8792  0.3890 -0.2269
12160TIP3    H157895   0.551   5.267   5.029 -0.8431  1.2139 -0.5860
12160TIP3    H257896   0.409   5.227   5.064 -0.2242 -0.4220  0.1800
12161TIP3   OH257897   3.779   0.747  11.735  0.1420 -0.2125 -0.1780
12161TIP3    H157898   3.861   0.698  11.730  0.0236 -0.7073  1.9474
12161TIP3    H257899   3.721   0.702  11.673  1.1092 -0.5642 -0.8465
12162TIP3   OH257900   4.754   5.923  16.848  0.1350 -0.4721  0.2327
12162TIP3    H157901   4.702   5.924  16.768  0.1241  0.0508  0.2427
12162TIP3    H257902   4.820   5.855  16.834  0.3046 -0.1930 -0.3311
12163TIP3   OH257903   0.246   5.519  12.811  0.1485  0.2482  0.0342
12163TIP3    H157904   0.326   5.534  12.860  1.0984 -0.9979 -1.0697
12163TIP3    H257905   0.179   5.503  12.878  1.3118 -0.9554  0.9500
12164TIP3   OH257906   3.219   4.426  10.855  0.4384  0.1375  0.0116
12164TIP3    H157907   3.267   4.347  10.879  0.3179  0.8786  3.2183
12164TIP3    H257908   3.131   4.413  10.891  0.6087  1.9065  1.2531
12165TIP3   OH257909   0.846   3.471   1.677 -0.6540 -0.3507  0.3499
12165TIP3    H157910   0.822   3.501   1.765 -2.0710 -3.1821  1.0414
12165TIP3    H257911   0.797   3.390   1.665  0.4515 -0.7026 -2.6067
12166TIP3   OH257912   5.143   4.419   3.499 -0.5613 -0.0104 -0.3431
12166TIP3    H157913   5.084   4.493   3.487 -0.4342 -0.1741 -2.1525
12166TIP3    H257914   5.115   4.381   3.583  1.7879  4.1767  2.6958
12167TIP3   OH257915   4.675   1.803   3.455 -0.2006 -0.2091  0.1628
12167TIP3    H157916   4.770   1.795   3.457 -0.1780  0.0568  0.1081
12167TIP3    H257917   4.645   1.715   3.430  0.0494 -0.1789 -0.2628
12168TIP3   OH257918   5.634   3.135   0.403 -0.6192  0.3376 -0.0901
12168TIP3    H157919   5.698   3.197   0.439 -0.7869  0.0220  0.7866
12168TIP3    H257920   5.680   3.092   0.332  0.3779 -0.3337  0.9257
12169TIP3   OH257921   4.488   5.241  15.491 -0.1521  0.1470 -0.2143
12169TIP3    H157922   4.470   5.152  15.521 -1.0150  0.5694  0.5614
12169TIP3    H257923   4.498   5.292  15.571 -0.9368  0.9915 -0.6362
12170TIP3   OH257924   5.580   1.717  17.117  0.0697 -0.5346 -0.2570
12170TIP3    H157925   5.624   1.661  17.053 -1.8140  0.0710 -2.2112
12170TIP3    H257926   5.619   1.803  17.104  0.7342 -0.7127  0.5007
12171TIP3   OH257927   0.232   1.760  13.744  0.1783  0.0160 -0.3767
12171TIP3    H157928   0.163   1.699  13.719 -0.0156  0.5830 -1.2714
12171TIP3    H257929   0.312   1.708  13.740  0.3035  0.2795 -3.2418
12172TIP3   OH257930   5.823   5.958   3.492 -0.1905  0.0962 -0.0959
12172TIP3    H157931   5.890   5.951   3.424  0.0222 -1.0252  0.2061
12172TIP3    H257932   5.740   5.958   3.443 -0.0307 -0.4440 -0.3832
12173TIP3   OH257933   4.450   0.482  16.797  0.1168  0.2121 -0.0016
12173TIP3    H157934   4.456   0.398  16.752 -1.0435 -0.4830  1.0645
12173TIP3    H257935   4.407   0.540  16.734  0.3632 -0.1687 -0.5283
12174TIP3   OH257936   4.842   1.883  13.703  0.0802 -0.3084  0.2064
12174TIP3    H157937   4.859   1.808  13.761 -0.5649 -0.5418  0.0933
12174TIP3    H257938   4.769   1.930  13.744  1.2475  0.9641  0.9385
12175TIP3   OH257939   4.673   1.821  13.287  0.7623  0.2607 -0.7802
12175TIP3    H157940   4.683   1.776  13.203 -0.4645 -0.2535 -0.6744
12175TIP3    H257941   4.657   1.912  13.263  0.8176  0.1930 -1.0884
12176TIP3   OH257942   4.714   4.092   5.564  0.0240  0.0191  0.1911
12176TIP3    H157943   4.653   4.101   5.636  1.8713  1.1126  1.6997
12176TIP3    H257944   4.731   3.998   5.558  1.1161  0.0317  2.3482
12177TIP3   OH257945   6.010   4.576  13.190  0.0265  0.0730  0.0745
12177TIP3    H157946   5.967   4.658  13.167  0.1609 -0.0544 -0.6585
12177TIP3    H257947   5.973   4.552  13.275 -0.0665  0.8500  0.2610
12178TIP3   OH257948   5.066   2.783   1.914  0.4354 -0.5243  0.1049
12178TIP3    H157949   4.977   2.792   1.879  0.5943  0.2088 -0.1285
12178TIP3    H257950   5.080   2.862   1.966  1.1123 -0.4112 -0.2393
12179TIP3   OH257951   4.548   3.240  16.758  0.0374 -0.2141  0.2699
12179TIP3    H157952   4.480   3.287  16.709 -0.5772 -1.3643 -0.0273
12179TIP3    H257953   4.500   3.198  16.830  0.4125 -1.1037  0.0091
12180TIP3   OH257954   1.041   4.539  12.235  0.1035  0.0261 -0.0554
12180TIP3    H157955   1.070   4.487  12.309 -1.4906  0.4555  0.9284
12180TIP3    H257956   0.952   4.508  12.217  0.1816  0.4434 -1.3186
12181TIP3   OH257957   4.504   4.011   5.739  0.1444  0.2047 -0.5644
12181TIP3    H157958   4.434   3.956   5.703  0.0996  0.2786 -0.5898
12181TIP3    H257959   4.546   3.956   5.805 -0.3942  0.4126 -0.0403
12182TIP3   OH257960   3.225   3.886  16.818 -0.1073 -0.1890  0.6014
12182TIP3    H157961   3.164   3.934  16.762  0.6503 -1.3097 -1.2550
12182TIP3    H257962   3.261   3.817  16.762 -0.6879 -2.5917  2.9763
12183TIP3   OH257963   6.730   4.046   1.022  0.1908  0.0614  0.1722
12183TIP3    H157964   6.823   4.066   1.028  0.0059  0.6954  1.4159
12183TIP3    H257965   6.712   3.994   1.100 -0.3031 -0.9637 -0.6034
12184TIP3   OH257966   5.938   6.736   1.731 -0.1146 -0.0563  1.1164
12184TIP3    H157967   5.881   6.677   1.683  1.5343 -1.4902  0.8206
12184TIP3    H257968   5.977   6.682   1.799  0.1276  1.1397  1.9739
12185TIP3   OH257969   0.517   0.465   1.856  0.1467  0.2557 -0.0874
12185TIP3    H157970   0.430   0.504   1.860  0.7534  2.0042 -2.0561
12185TIP3    H257971   0.528   0.441   1.764  0.5415 -2.9977  0.7071
12186TIP3   OH257972   3.028   4.807   1.234 -0.7839 -0.2209  0.1109
12186TIP3    H157973   3.041   4.854   1.317 -0.4980  1.8843 -1.0542
12186TIP3    H257974   2.939   4.775   1.239 -1.7557  2.2457  0.1864
12187TIP3   OH257975   1.899   0.744   3.721  0.2370 -0.2049 -0.1795
12187TIP3    H157976   1.916   0.830   3.758 -1.1704 -0.8889  2.2920
12187TIP3    H257977   1.835   0.760   3.652  0.5147  0.8004 -0.2209
12188TIP3   OH257978   3.311   4.692  16.544  0.5568  0.1102  0.1551
12188TIP3    H157979   3.246   4.671  16.478 -0.1628  0.5783  0.6982
12188TIP3    H257980   3.279   4.649  16.624  0.9209  0.3250  0.4223
12189TIP3   OH257981   4.744   2.065  13.068 -0.2354  0.4820 -0.7280
12189TIP3    H157982   4.738   2.005  12.994 -1.5454 -0.9535  0.4811
12189TIP3    H257983   4.653   2.077  13.096  0.1128  2.0666 -0.1454
12190TIP3   OH257984   6.435   1.237  15.251 -0.1654  0.2404 -0.2821
12190TIP3    H157985   6.461   1.266  15.163 -1.4851 -0.8576 -1.0791
12190TIP3    H257986   6.341   1.220  15.243  0.0052 -1.4506  0.8872
12191TIP3   OH257987   4.418   6.289  14.513 -0.2041 -0.5721  0.1382
12191TIP3    H157988   4.432   6.331  14.597  1.4346 -0.5920 -0.0732
12191TIP3    H257989   4.501   6.243  14.496 -0.1541  0.1826 -1.8895
12192TIP3   OH257990   6.474   4.006   4.715 -0.4410 -0.4333 -0.0042
12192TIP3    H157991   6.464   4.087   4.665  1.9825  0.4044  0.7421
12192TIP3    H257992   6.503   3.941   4.651 -1.3275 -0.4524 -0.4016
12193TIP3   OH257993   2.848   3.122  15.427  0.1111  0.2297 -0.3960
12193TIP3    H157994   2.864   3.146  15.336  2.0327 -0.6423 -0.3382
12193TIP3    H257995   2.928   3.077  15.454  0.3172  1.9863  2.2582
12194TIP3   OH257996   3.216   3.604  15.938 -0.2624  0.3388  0.7265
12194TIP3    H157997   3.178   3.691  15.938  1.2102  1.0225 -0.2898
12194TIP3    H257998   3.213   3.576  15.847  0.4062 -0.1360  0.8403
12195TIP3   OH257999   5.055   6.152   5.137  0.2710 -0.2742  0.4451
12195TIP3    H158000   4.962   6.127   5.136  0.0595  0.5044 -0.2574
12195TIP3    H258001   5.090   6.110   5.216 -0.2194 -2.1685 -0.2809
12196TIP3   OH258002   1.712   0.459  12.053  0.5089 -0.2533 -0.2434
12196TIP3    H158003   1.760   0.437  11.973  2.2031  1.8698  0.0937
12196TIP3    H258004   1.649   0.526  12.026 -1.0608 -1.6817 -0.3113
12197TIP3   OH258005   5.191   3.972  12.363  0.9265 -0.3588  0.5171
12197TIP3    H158006   5.175   3.930  12.448  0.0904  1.5652  1.3745
12197TIP3    H258007   5.148   3.915  12.300 -0.7888 -0.4580  1.7102
12198TIP3   OH258008   6.145   3.449  15.354 -0.2762  0.0782  0.3785
12198TIP3    H158009   6.066   3.408  15.389 -0.1702  0.3542  0.9473
12198TIP3    H258010   6.148   3.536  15.396 -0.2799  0.5155 -0.4980
12199TIP3   OH258011   3.734   5.647   4.928  0.2030  0.0832  0.0488
12199TIP3    H158012   3.644   5.678   4.934  0.7014  1.5022  0.7041
12199TIP3    H258013   3.787   5.724   4.947  1.5838 -0.5570 -1.0347
12200TIP3   OH258014   1.220   0.957  12.292  0.5991  0.3144 -0.1999
12200TIP3    H158015   1.292   0.899  12.318 -0.6944 -1.4750 -0.4140
12200TIP3    H258016   1.156   0.900  12.250 -0.7584  1.9118 -0.4509
12201TIP3   OH258017   1.801   6.666  14.931 -0.4678  0.2078  0.0378
12201TIP3    H158018   1.880   6.668  14.984  0.0262  0.7475 -0.6941
12201TIP3    H258019   1.729   6.665  14.994  0.1178 -1.3192  0.7271
12202TIP3   OH258020   3.165   2.724   5.973 -0.0587 -0.1945  0.1477
12202TIP3    H158021   3.138   2.666   5.902  2.4122 -2.0742  0.6011
12202TIP3    H258022   3.108   2.700   6.047 -1.0665  0.1443 -0.4902
12203TIP3   OH258023   5.171   5.850   6.676  0.8722  0.3463  0.1204
12203TIP3    H158024   5.145   5.774   6.625  0.2066 -0.1744  1.2030
12203TIP3    H258025   5.265   5.860   6.658  0.8428 -0.3816 -0.4686
12204TIP3   OH258026   3.585   0.468  12.779  0.4722  0.3796 -0.8313
12204TIP3    H158027   3.518   0.532  12.754  1.0671  1.2232 -0.3322
12204TIP3    H258028   3.660   0.489  12.724  0.8788  0.5196 -0.2409
12205TIP3   OH258029   0.675   4.704  17.183 -0.1045  0.5543 -0.1779
12205TIP3    H158030   0.668   4.618  17.225  1.9165  0.3488 -0.1702
12205TIP3    H258031   0.651   4.688  17.092 -1.1570  0.2991  0.1287
12206TIP3   OH258032   4.612   6.223  12.877 -0.1867 -0.1509  0.6396
12206TIP3    H158033   4.705   6.238  12.861 -0.5549  0.7795 -0.9088
12206TIP3    H258034   4.576   6.205  12.790 -1.7676  1.3646  0.9277
12207TIP3   OH258035   5.298   5.775   4.704  0.1344 -0.0319 -0.0816
12207TIP3    H158036   5.283   5.702   4.644  0.9947 -1.6053  1.5364
12207TIP3    H258037   5.246   5.847   4.667 -1.6725 -1.7627 -1.1249
12208TIP3   OH258038   2.063   3.426   3.245  0.0400 -0.8559 -0.5715
12208TIP3    H158039   2.082   3.342   3.204  0.8188 -1.1812  0.4146
12208TIP3    H258040   2.102   3.491   3.187 -0.4642 -1.1725 -1.2741
12209TIP3   OH258041   3.623   3.651  12.942  0.3228 -0.2717 -0.0461
12209TIP3    H158042   3.660   3.734  12.911 -0.6900  0.6620  1.1410
12209TIP3    H258043   3.588   3.672  13.029 -3.2179 -0.9939 -1.1377
12210TIP3   OH258044   1.057   6.343  16.278  0.0778  0.1012 -0.1621
12210TIP3    H158045   1.109   6.411  16.237  1.7052 -0.4375  0.9004
12210TIP3    H258046   1.107   6.318  16.356 -1.3379 -1.0883  0.4283
12211TIP3   OH258047   6.562   4.280   1.812  0.3090  0.5419 -0.2415
12211TIP3    H158048   6.510   4.301   1.890  2.5232  0.1656  1.4243
12211TIP3    H258049   6.532   4.192   1.787 -0.1754  0.5149  0.4031
12212TIP3   OH258050   5.344   6.439  13.786  0.2514 -0.4033  0.3616
12212TIP3    H158051   5.365   6.532  13.774  0.6534 -0.6939 -1.5081
12212TIP3    H258052   5.249   6.434  13.770  0.4633 -0.4936 -1.0026
12213TIP3   OH258053   4.819   0.956   0.999 -0.1661 -0.7158  0.0442
12213TIP3    H158054   4.882   0.988   1.063  0.0503  2.0825 -1.4138
12213TIP3    H258055   4.734   0.990   1.028 -0.4759 -1.5652  0.1661
12214TIP3   OH258056   6.227   5.681   3.742 -0.7175  0.3716  0.0162
12214TIP3    H158057   6.259   5.762   3.783 -1.3041  0.5574  0.1251
12214TIP3    H258058   6.171   5.712   3.670  0.5268  0.0551 -1.1386
12215TIP3   OH258059   1.343   4.377  13.757 -0.0427 -0.2368  0.4415
12215TIP3    H158060   1.285   4.310  13.794  1.7992 -2.4938 -0.5211
12215TIP3    H258061   1.404   4.398  13.828 -1.0353  0.9983  0.9630
12216TIP3   OH258062   3.795   5.520   5.215 -0.0657 -0.6193 -0.8657
12216TIP3    H158063   3.823   5.436   5.180 -0.9802 -1.4477  0.3175
12216TIP3    H258064   3.846   5.585   5.166  0.0849 -1.8075 -2.3456
12217TIP3   OH258065   4.264   1.449  15.402 -0.3770 -0.1429  0.3130
12217TIP3    H158066   4.218   1.368  15.380 -1.1109  0.5164 -0.6524
12217TIP3    H258067   4.325   1.424  15.472 -0.6088 -1.5154  0.0482
12218TIP3   OH258068   2.273   0.882   3.048  0.3568  0.1119  0.2571
12218TIP3    H158069   2.269   0.921   2.961 -1.4920  0.5978  0.5295
12218TIP3    H258070   2.197   0.917   3.094 -0.2942 -2.2865  1.1542
12219TIP3   OH258071   1.556   6.128  16.465 -0.0261 -0.5299 -0.0227
12219TIP3    H158072   1.626   6.180  16.504 -0.0619 -0.3208 -0.2382
12219TIP3    H258073   1.503   6.100  16.540  0.6289 -1.1985  0.2001
12220TIP3   OH258074   2.548   6.151   0.917 -0.0580 -0.7783 -0.1510
12220TIP3    H158075   2.564   6.089   0.846  2.6080 -0.8738  0.4417
12220TIP3    H258076   2.536   6.235   0.874 -1.7934 -1.3392 -0.8500
12221TIP3   OH258077   1.296   0.301  14.388  0.4111 -0.3974  0.1774
12221TIP3    H158078   1.237   0.295  14.313  0.9390  2.0680 -0.5453
12221TIP3    H258079   1.384   0.300  14.349  0.7054  0.4366  0.7833
12222TIP3   OH258080   0.616   6.724   2.076 -0.2233  0.3230  0.4251
12222TIP3    H158081   0.666   6.795   2.117  1.4787 -1.4986  1.6572
12222TIP3    H258082   0.583   6.673   2.150  2.5196 -2.7869 -0.3030
12223TIP3   OH258083   4.330   3.955  14.198 -0.2644  0.4480  0.2226
12223TIP3    H158084   4.280   4.031  14.229  0.1221  1.0900 -0.6909
12223TIP3    H258085   4.379   3.988  14.123  0.5637 -0.5027  0.3336
12224TIP3   OH258086   3.415   5.170   5.602  0.1561  0.1968 -0.3066
12224TIP3    H158087   3.418   5.265   5.599 -0.8535  0.2199 -1.2739
12224TIP3    H258088   3.436   5.142   5.512 -0.4797 -0.4528 -0.2624
12225TIP3   OH258089   1.972   4.792  16.461 -0.9290 -0.4219  0.3734
12225TIP3    H158090   2.028   4.810  16.537  0.4411 -1.1416 -0.4258
12225TIP3    H258091   1.885   4.820  16.488 -0.3000  0.1760  1.8838
12226TIP3   OH258092   6.654   0.749   3.934 -0.6588 -0.4638  0.4951
12226TIP3    H158093   6.660   0.785   4.022 -1.4264  0.9261  0.0162
12226TIP3    H258094   6.566   0.772   3.904 -0.2708 -0.5409 -0.7820
12227TIP3   OH258095   6.565   1.959   1.993  0.0675  0.1357 -0.1874
12227TIP3    H158096   6.526   1.939   2.077  1.1248  0.2356  0.3511
12227TIP3    H258097   6.649   1.912   1.994  1.0645  1.8154 -0.2797
12228TIP3   OH258098   4.026   2.936   3.399  0.3711 -0.2557  0.5334
12228TIP3    H158099   3.958   3.000   3.381  0.8537  0.3790  0.9204
12228TIP3    H258100   3.979   2.855   3.416 -0.2417 -0.0400 -0.0975
12229TIP3   OH258101   5.225   2.693  11.987  0.1256 -0.5788  0.0021
12229TIP3    H158102   5.201   2.634  12.058  1.4606 -1.1774 -0.0249
12229TIP3    H258103   5.203   2.645  11.907 -0.0348 -0.4914 -0.0070
12230TIP3   OH258104   6.017   0.256  14.876 -0.4460  0.4393  0.5631
12230TIP3    H158105   6.082   0.289  14.813 -1.9556 -0.5323 -1.6030
12230TIP3    H258106   6.069   0.206  14.939  0.9378 -0.5180 -1.2338
12231TIP3   OH258107   2.433   0.053   6.164 -0.1008 -0.1674  0.2942
12231TIP3    H158108   2.425   0.130   6.220 -3.0167 -0.5439  0.5520
12231TIP3    H258109   2.464  -0.016   6.223  0.7658  0.3398  0.4623
12232TIP3   OH258110   6.424   6.640  11.398  0.5777 -0.1477 -0.2961
12232TIP3    H158111   6.479   6.562  11.407  0.1230 -0.4381  0.0056
12232TIP3    H258112   6.452   6.680  11.316  0.9791 -0.4990 -0.3338
12233TIP3   OH258113   1.803   4.850   0.753  0.2043 -0.0553 -0.0507
12233TIP3    H158114   1.755   4.930   0.775 -1.4368 -1.2475  0.9182
12233TIP3    H258115   1.736   4.783   0.746  1.5450 -1.3772 -0.8333
12234TIP3   OH258116   5.037   6.084   4.891  0.0551  0.2437  0.4154
12234TIP3    H158117   5.067   6.124   4.973 -0.9884  0.7325  0.5902
12234TIP3    H258118   5.102   6.110   4.826  2.5308 -2.5710  1.5606
12235TIP3   OH258119   2.684   3.620   4.167 -0.3190  0.0617  0.6838
12235TIP3    H158120   2.690   3.623   4.071  0.8253  0.7441  0.7569
12235TIP3    H258121   2.656   3.531   4.187 -1.2463  0.1089 -0.3062
12236TIP3   OH258122   2.025   4.246   2.057 -0.5194 -0.2540  0.1192
12236TIP3    H158123   1.976   4.227   1.977  1.2061 -0.6019 -0.9009
12236TIP3    H258124   2.017   4.165   2.109 -0.8796 -0.3596 -0.0938
12237TIP3   OH258125   5.683   0.978   0.357 -0.0421 -0.7504  0.1773
12237TIP3    H158126   5.686   0.888   0.389  2.2822 -0.3314  1.3186
12237TIP3    H258127   5.591   1.004   0.367 -0.9267 -3.1645 -0.8575
12238TIP3   OH258128   1.644   6.047   4.375  0.3495 -0.0510  0.1311
12238TIP3    H158129   1.591   6.075   4.450 -0.6775 -0.9660 -0.2292
12238TIP3    H258130   1.726   6.016   4.414  0.8632  1.8315  0.6630
12239TIP3   OH258131   0.515   4.276  17.076  0.3633  0.0653  0.5709
12239TIP3    H158132   0.531   4.195  17.125  0.5463  0.8250  1.8257
12239TIP3    H258133   0.471   4.248  16.996 -0.0094 -1.2285  1.2009
12240TIP3   OH258134   2.253   1.814   3.206 -0.1005 -0.1584 -0.3390
12240TIP3    H158135   2.346   1.819   3.185  0.0831 -0.3496  0.4115
12240TIP3    H258136   2.235   1.893   3.258  0.1397 -1.1941  1.3673
12241TIP3   OH258137   1.678   3.184   2.772  0.1625  0.0097 -0.1729
12241TIP3    H158138   1.665   3.275   2.799  1.1589  0.7150 -1.9214
12241TIP3    H258139   1.595   3.157   2.733  0.0910  0.4038 -0.2904
12242TIP3   OH258140   4.706   5.864  13.917 -0.0848 -0.0095 -0.6489
12242TIP3    H158141   4.795   5.857  13.953 -0.3489 -1.2086 -0.1767
12242TIP3    H258142   4.650   5.830  13.986 -0.9003  0.5590 -1.0222
12243TIP3   OH258143   0.676   0.449  11.733  0.0778 -0.8830  0.4753
12243TIP3    H158144   0.665   0.517  11.799 -1.2298 -0.7055  0.0908
12243TIP3    H258145   0.595   0.399  11.736  0.1666 -1.1240 -0.7100
12244TIP3   OH258146   0.782   3.909   2.366 -0.2577  0.0482 -0.2904
12244TIP3    H158147   0.874   3.936   2.368 -0.0694 -0.5493 -0.8312
12244TIP3    H258148   0.766   3.873   2.453 -0.2024  0.8517  0.0666
12245TIP3   OH258149   1.781   3.838  16.360 -0.8772  0.0037  0.3014
12245TIP3    H158150   1.821   3.881  16.435 -0.1819  0.2239 -0.1741
12245TIP3    H258151   1.735   3.763  16.396 -0.2562 -0.0906  0.9096
12246TIP3   OH258152   3.734   5.199   1.692 -0.5904  0.4009 -0.3505
12246TIP3    H158153   3.652   5.153   1.674 -0.4596  0.5810 -1.4578
12246TIP3    H258154   3.757   5.240   1.609  0.4995  0.5538  0.0167
12247TIP3   OH258155   5.862   6.137  11.023  0.1238  0.3932  0.2105
12247TIP3    H158156   5.776   6.178  11.012 -0.0897 -0.0364  0.2389
12247TIP3    H258157   5.914   6.203  11.068 -0.1909  0.6618  0.1880
12248TIP3   OH258158   4.215   0.604  15.390  0.0644 -0.4629 -0.1538
12248TIP3    H158159   4.172   0.671  15.443 -1.7275 -1.3072 -0.4728
12248TIP3    H258160   4.203   0.522  15.439 -0.2741 -0.9998 -1.1008
12249TIP3   OH258161   4.826   1.650   3.085  0.6501  0.2595  0.2022
12249TIP3    H158162   4.784   1.577   3.039  1.8769  0.2802 -1.0225
12249TIP3    H258163   4.773   1.663   3.164 -1.1021 -0.2512 -0.8512
12250TIP3   OH258164   0.634   3.599   2.485 -0.2848  0.5422  0.4676
12250TIP3    H158165   0.607   3.524   2.538 -0.0984  1.3250  1.7052
12250TIP3    H258166   0.708   3.637   2.532  0.3354  0.8655 -0.7231
12251TIP3   OH258167   3.245   3.180  17.139 -0.7263 -0.5717  0.7626
12251TIP3    H158168   3.341   3.185  17.134 -0.8543  1.3232 -2.0789
12251TIP3    H258169   3.217   3.271  17.143 -2.4342 -0.9235 -1.4469
12252TIP3   OH258170   2.196   4.311  17.024 -0.1558 -0.5642 -0.0785
12252TIP3    H158171   2.235   4.311  17.111 -1.9408  0.5023  0.7745
12252TIP3    H258172   2.225   4.229  16.984  1.2826 -0.7364  1.2258
12253TIP3   OH258173   3.565   6.102   1.611  0.2591 -0.4773  0.2167
12253TIP3    H158174   3.502   6.132   1.545  0.7738  0.6644  0.2085
12253TIP3    H258175   3.512   6.058   1.677 -1.0228  2.8433  1.6278
12254TIP3   OH258176   6.658   2.233  15.444 -0.1888 -0.2339  0.1423
12254TIP3    H158177   6.674   2.251  15.351 -0.7321  0.8639  0.2339
12254TIP3    H258178   6.615   2.148  15.446 -2.3783  0.7672 -0.8604
12255TIP3   OH258179   5.458   1.737  12.511 -0.1636 -0.4588 -0.6022
12255TIP3    H158180   5.553   1.736  12.524 -0.1950 -0.3485 -0.3526
12255TIP3    H258181   5.427   1.658  12.554 -0.1930 -0.4567 -0.6190
12256TIP3   OH258182   6.154   4.873   0.139  0.1304 -0.5844  0.0605
12256TIP3    H158183   6.095   4.905   0.070 -0.3700  0.3843  0.9149
12256TIP3    H258184   6.208   4.949   0.162 -0.0064 -0.7711  1.0370
12257TIP3   OH258185   0.819   0.111  11.643  0.2087 -0.8554  0.3417
12257TIP3    H158186   0.735   0.148  11.614  1.2488 -0.1041 -1.8758
12257TIP3    H258187   0.800   0.018  11.656 -1.0106 -0.6621  0.1255
12258TIP3   OH258188   3.754   0.573  17.017  0.1701  0.5054  0.4784
12258TIP3    H158189   3.804   0.544  16.940 -0.9759  2.2851 -1.0338
12258TIP3    H258190   3.819   0.607  17.077  1.0255 -0.1645 -0.0446
12259TIP3   OH258191   3.175   4.621   1.082  0.1562 -0.5980  0.3599
12259TIP3    H158192   3.116   4.693   1.103  0.2063 -0.1374 -1.0156
12259TIP3    H258193   3.118   4.545   1.072 -0.0644 -0.4174  0.2405
12260TIP3   OH258194   4.103   1.084  14.562  0.1072 -0.2283  0.5832
12260TIP3    H158195   4.030   1.055  14.616 -0.6864  0.6238  0.0019
12260TIP3    H258196   4.146   1.152  14.614  0.7957 -1.0462  1.1216
12261TIP3   OH258197   6.206   1.133  15.668  0.1091 -0.6240  0.2522
12261TIP3    H158198   6.295   1.132  15.704  0.6018 -0.8011 -0.9121
12261TIP3    H258199   6.209   1.201  15.600 -1.9341  2.8220  3.2267
12262TIP3   OH258200   2.167   4.046   0.788  0.2551 -0.2156  0.2654
12262TIP3    H158201   2.203   4.132   0.812  0.4286 -0.3375  0.4492
12262TIP3    H258202   2.241   3.986   0.797 -0.2848 -0.6835  1.8617
12263TIP3   OH258203   1.889   4.863   3.743  0.4342  0.2552  0.5088
12263TIP3    H158204   1.885   4.946   3.694  1.6014  1.1036  1.8051
12263TIP3    H258205   1.967   4.819   3.710  1.2192  0.8246  1.5545
12264TIP3   OH258206   5.584   0.801  11.868  0.0536  0.5704  0.4236
12264TIP3    H158207   5.531   0.729  11.834 -1.2633  1.7271 -0.0515
12264TIP3    H258208   5.671   0.785  11.832 -1.0319  1.1857 -2.8022
12265TIP3   OH258209   2.063   1.694  15.721  0.1829 -0.3471  0.4826
12265TIP3    H158210   2.050   1.764  15.657  1.5229  0.0125  0.5861
12265TIP3    H258211   1.984   1.696  15.775  0.0945  0.9251  0.3255
12266TIP3   OH258212   2.665   2.695  14.467 -0.5274 -0.1579  0.1139
12266TIP3    H158213   2.704   2.736  14.544  0.7604 -1.3274  0.1088
12266TIP3    H258214   2.738   2.654  14.421 -1.7115 -2.3443  0.0468
12267TIP3   OH258215   2.988   3.587  17.332 -0.1889 -0.0439 -0.5374
12267TIP3    H158216   3.074   3.624  17.313  0.7846 -2.2930 -0.8815
12267TIP3    H258217   2.932   3.662  17.349  1.4507  1.5721 -1.9177
12268TIP3   OH258218   0.065   1.036   3.989 -0.3830  0.4611 -0.0828
12268TIP3    H158219   0.083   0.969   3.923 -1.6741  0.8699 -0.8670
12268TIP3    H258220   0.146   1.087   3.993 -0.6681  1.1759 -2.2474
12269TIP3   OH258221   2.448   2.422   0.074  0.2369 -0.6572 -0.1604
12269TIP3    H158222   2.443   2.330   0.050  0.4016 -0.5249 -0.6986
12269TIP3    H258223   2.539   2.435   0.099  0.5241 -0.3363 -1.3284
12270TIP3   OH258224   2.648   3.033   3.280 -0.2444 -0.3007 -0.3300
12270TIP3    H158225   2.636   3.125   3.302 -0.6788  0.1242 -2.1753
12270TIP3    H258226   2.730   3.031   3.231 -0.3265 -0.8766 -0.4546
12271TIP3   OH258227   4.187   5.744  15.134  0.7604  0.3652  0.1845
12271TIP3    H158228   4.202   5.759  15.041 -1.0932 -0.4061 -0.2886
12271TIP3    H258229   4.217   5.824  15.177  0.1014  1.4153 -1.2578
12272TIP3   OH258230   5.414   6.303  12.920  0.0051  0.0510  0.1027
12272TIP3    H158231   5.456   6.217  12.920 -1.0217 -0.5333  2.5160
12272TIP3    H258232   5.352   6.300  12.847  0.1374 -1.1710  0.0214
12273TIP3   OH258233   1.939   1.473  11.768  0.1920  0.0514 -0.6726
12273TIP3    H158234   2.022   1.483  11.815 -0.8485 -0.1323  1.3475
12273TIP3    H258235   1.904   1.562  11.761 -1.5360 -0.1859  2.7403
12274TIP3   OH258236   4.942   4.694  14.597  0.1804  0.1641 -0.6569
12274TIP3    H158237   5.006   4.765  14.608  0.0340  0.2363 -0.2485
12274TIP3    H258238   4.857   4.737  14.603  0.0895  0.0460 -1.0570
12275TIP3   OH258239   0.669   4.898  14.537 -0.0102  0.3832  0.9603
12275TIP3    H158240   0.693   4.918  14.627 -1.4483  1.6903  1.0922
12275TIP3    H258241   0.645   4.806  14.538  0.6628  0.2066  1.7494
12276TIP3   OH258242   2.017   1.829  14.280 -0.1160  0.2522 -0.5760
12276TIP3    H158243   1.999   1.783  14.362 -0.1407 -1.9108 -1.6954
12276TIP3    H258244   1.949   1.797  14.220 -0.2007  1.9096 -1.3996
12277TIP3   OH258245   2.314   3.639  12.610  0.1677 -0.1203  0.3885
12277TIP3    H158246   2.326   3.602  12.523 -0.2843 -0.4272  0.4481
12277TIP3    H258247   2.219   3.640  12.622  0.2490 -1.1939  1.3369
12278TIP3   OH258248   4.277   1.147   3.656  0.2344 -0.2478 -0.7217
12278TIP3    H158249   4.317   1.062   3.673  1.4668  0.5037  0.3321
12278TIP3    H258250   4.218   1.161   3.731  0.4095  0.0438 -0.6377
12279TIP3   OH258251   2.670   2.620   1.715 -0.0151 -0.4963  0.6049
12279TIP3    H158252   2.680   2.541   1.767 -1.7103 -1.5596 -0.5895
12279TIP3    H258253   2.660   2.589   1.625  2.3504  1.2556 -0.3720
12280TIP3   OH258254   1.369   0.754  11.470 -0.4608 -0.3054  0.5487
12280TIP3    H158255   1.298   0.690  11.477 -0.9143 -0.0347 -1.1148
12280TIP3    H258256   1.387   0.760  11.377  1.2947  0.1648  0.8763
12281TIP3   OH258257   3.169   0.463  13.732 -0.0331 -0.7065 -0.0495
12281TIP3    H158258   3.224   0.536  13.759 -0.2054 -0.4212 -0.4520
12281TIP3    H258259   3.160   0.408  13.810 -2.3670  1.2461  1.1882
12282TIP3   OH258260   1.729   2.956  16.065  1.0123 -0.0089  0.4386
12282TIP3    H158261   1.760   2.867  16.083 -0.9629 -1.2593 -1.7749
12282TIP3    H258262   1.720   2.996  16.152  1.8888 -1.9661  1.4952
12283TIP3   OH258263   6.420   6.198   6.284 -0.1611  0.7461  0.1437
12283TIP3    H158264   6.357   6.145   6.333 -0.0288 -0.4450 -0.9326
12283TIP3    H258265   6.375   6.280   6.267 -1.4366 -0.0858 -0.6095
12284TIP3   OH258266   3.889   3.837  14.556  0.5682  0.3716  0.0903
12284TIP3    H158267   3.919   3.832  14.647 -1.3005  2.0819  0.8728
12284TIP3    H258268   3.835   3.759  14.544 -0.0918  0.6990  0.8367
12285TIP3   OH258269   5.431   0.001  13.848  0.1566  0.2993 -0.0844
12285TIP3    H158270   5.458   0.091  13.864 -0.0082  0.0707  1.6482
12285TIP3    H258271   5.409  -0.034  13.934 -0.7217 -1.1120 -0.8330
12286TIP3   OH258272   5.994   6.379  15.945  0.1623  0.1780  0.0787
12286TIP3    H158273   5.906   6.350  15.917  0.6751 -1.2468 -0.1847
12286TIP3    H258274   5.994   6.473  15.931 -1.8341  0.4463  1.4950
12287TIP3   OH258275   4.126   4.217   5.411  0.0554 -0.3380 -0.0405
12287TIP3    H158276   4.124   4.265   5.494  0.1012 -0.6460  0.1404
12287TIP3    H258277   4.053   4.253   5.361  0.8895  0.8728 -0.4511
12288TIP3   OH258278   4.265   5.797   4.986  0.0142 -0.0258  0.5011
12288TIP3    H158279   4.310   5.753   4.914  1.3874  0.6887  0.8840
12288TIP3    H258280   4.286   5.890   4.975  0.6753  0.0484  2.0762
12289TIP3   OH258281   6.243   3.480   2.235 -0.2206 -0.2292 -0.1641
12289TIP3    H158282   6.179   3.518   2.174 -0.4364 -0.8257 -0.3093
12289TIP3    H258283   6.231   3.386   2.227  0.7705 -0.3575 -0.2978
12290TIP3   OH258284   5.137   6.201   0.579 -0.1374  0.4154 -0.4227
12290TIP3    H158285   5.107   6.280   0.625  1.6455  0.4391  0.8472
12290TIP3    H258286   5.159   6.231   0.491 -1.9278  0.7611 -0.7815
12291TIP3   OH258287   6.299   4.651  12.347  0.5683  0.2096  0.7642
12291TIP3    H158288   6.263   4.595  12.416  1.5136 -1.7144 -0.1899
12291TIP3    H258289   6.233   4.718  12.331 -1.3924 -1.6085  0.8826
12292TIP3   OH258290   5.308   1.612   4.597  0.3228  0.5958 -0.0564
12292TIP3    H158291   5.284   1.522   4.618  0.3553  0.1490 -1.8083
12292TIP3    H258292   5.382   1.631   4.655 -0.7972  0.1434  1.5827
12293TIP3   OH258293   6.242   5.072  16.212 -0.2360 -0.8341 -0.0266
12293TIP3    H158294   6.195   5.117  16.283 -0.8079 -0.0116 -0.8990
12293TIP3    H258295   6.184   5.082  16.136  1.2140 -0.0714 -1.0642
12294TIP3   OH258296   2.301   1.780   0.742 -0.2043 -0.1039  0.3785
12294TIP3    H158297   2.298   1.820   0.656  0.5326  0.5649  0.6524
12294TIP3    H258298   2.376   1.821   0.785  0.6213 -1.8074  0.6483
12295TIP3   OH258299   2.741   1.217   0.696 -0.9675 -0.3994  0.1704
12295TIP3    H158300   2.819   1.269   0.675 -0.0203 -1.8167  0.0210
12295TIP3    H258301   2.682   1.279   0.739  0.9356  0.3531  1.8554
12296TIP3   OH258302   1.771   4.051   2.941 -0.5349  0.6007 -1.0666
12296TIP3    H158303   1.826   4.091   3.008  0.5054 -1.9347 -0.2835
12296TIP3    H258304   1.833   4.021   2.874 -1.1875 -0.2208 -1.3212
12297TIP3   OH258305   1.763   2.010   0.570 -0.3774  0.5048  0.4066
12297TIP3    H158306   1.796   1.978   0.654  0.8742 -1.0504 -0.6149
12297TIP3    H258307   1.726   1.933   0.528  0.2738  0.9341 -1.0353
12298TIP3   OH258308   4.904   3.477  14.331  0.2276  0.4428 -0.6319
12298TIP3    H158309   4.880   3.568  14.350 -3.3941 -0.0015 -2.1738
12298TIP3    H258310   4.975   3.484  14.268  0.9842  2.1306  0.3339
12299TIP3   OH258311   1.173   6.699   1.628  0.1855  0.2667 -0.7114
12299TIP3    H158312   1.193   6.622   1.574 -0.9342 -0.2604 -0.4142
12299TIP3    H258313   1.216   6.681   1.712  0.5953  0.3463 -0.9008
12300TIP3   OH258314   4.888   1.041  16.658  0.1818 -0.0702 -0.4623
12300TIP3    H158315   4.873   0.958  16.613  0.8872 -1.2471  1.3316
12300TIP3    H258316   4.980   1.036  16.686 -0.2478  0.5060  1.1708
12301TIP3   OH258317   2.762   6.441   4.590  0.0780 -0.1798 -0.4847
12301TIP3    H158318   2.735   6.370   4.649 -1.7151  0.6507 -0.2329
12301TIP3    H258319   2.736   6.411   4.503 -0.5737  0.1080 -0.3927
12302TIP3   OH258320   2.149   0.689  13.657  0.5393 -0.7217 -0.1672
12302TIP3    H158321   2.226   0.736  13.625  1.1586 -1.5786  0.0099
12302TIP3    H258322   2.178   0.650  13.740 -0.5460  0.1346  0.6399
12303TIP3   OH258323   2.495   0.522  13.819 -0.0247  0.3490 -0.5161
12303TIP3    H158324   2.451   0.450  13.865 -1.6227  1.4836 -0.1707
12303TIP3    H258325   2.464   0.601  13.863  0.7468  1.3209 -1.6491
12304TIP3   OH258326   2.804   0.847   0.316 -0.1163 -0.0236 -0.2597
12304TIP3    H158327   2.735   0.904   0.350  0.3470 -0.6355  1.8280
12304TIP3    H258328   2.882   0.871   0.366  0.3477 -1.7049 -0.1210
12305TIP3   OH258329   5.593   1.446  15.271 -0.6915  0.5066  0.4645
12305TIP3    H158330   5.653   1.516  15.297  1.3299 -1.0759  0.2692
12305TIP3    H258331   5.582   1.457  15.177 -0.0503  0.3358  0.3664
12306TIP3   OH258332   3.757   0.545  14.099 -0.2974 -0.2049 -0.0448
12306TIP3    H158333   3.835   0.600  14.093  1.4095 -2.2894  1.6003
12306TIP3    H258334   3.706   0.583  14.170 -0.9433  1.2653 -1.2344
12307TIP3   OH258335   1.776   4.033  13.639 -0.0347  0.8048  0.2527
12307TIP3    H158336   1.790   3.945  13.674 -1.8731 -0.5567 -2.1189
12307TIP3    H258337   1.864   4.065  13.617  0.7172 -0.1271  1.7728
12308TIP3   OH258338   3.763   2.988  17.316 -0.0819  0.2954 -0.1764
12308TIP3    H158339   3.689   3.047  17.326 -1.8976 -1.7696 -0.6221
12308TIP3    H258340   3.729   2.902  17.340  2.6551 -0.5147  1.2564
12309TIP3   OH258341   5.695   4.172  14.118 -0.6994 -0.4477 -0.6379
12309TIP3    H158342   5.623   4.205  14.063 -2.4705 -1.1214  1.1448
12309TIP3    H258343   5.681   4.078  14.122 -1.7669 -0.2886  2.3106
12310TIP3   OH258344   6.715   5.798   5.063  0.6971  0.7493 -0.3079
12310TIP3    H158345   6.732   5.888   5.089  2.4104  0.4632 -0.3383
12310TIP3    H258346   6.771   5.784   4.986  0.5951 -0.3934 -0.1949
12311TIP3   OH258347   1.168   3.753   5.695 -0.2792 -0.1193 -0.2162
12311TIP3    H158348   1.256   3.790   5.705 -0.1208 -0.3075 -0.8750
12311TIP3    H258349   1.119   3.820   5.647 -0.6307  0.1762  0.5334
12312TIP3   OH258350   5.224   3.512  11.487  0.4462 -0.3136  0.2966
12312TIP3    H158351   5.287   3.448  11.519 -1.4424 -1.7182  1.4292
12312TIP3    H258352   5.183   3.548  11.566  0.1561  0.9402 -0.3847
12313TIP3   OH258353   5.461   3.317   5.687 -0.0819  0.2536  0.2052
12313TIP3    H158354   5.420   3.286   5.607 -0.5399  2.6813 -0.5851
12313TIP3    H258355   5.468   3.239   5.743 -0.1990 -1.4078 -1.9636
12314TIP3   OH258356   1.894   0.513  14.682 -0.2919  0.2508  0.0186
12314TIP3    H158357   1.842   0.457  14.740  0.5063  0.2569  0.7512
12314TIP3    H258358   1.834   0.535  14.611 -1.7651  1.3906  1.5297
12315TIP3   OH258359   2.041   2.564   0.004  0.5843 -0.0133  0.3230
12315TIP3    H158360   2.026   2.471   0.021 -0.2671 -0.1992 -1.2248
12315TIP3    H258361   2.007   2.609   0.081  1.6177 -1.0047  1.3784
12316TIP3   OH258362   3.884   0.655  12.353 -0.1673 -0.4561  0.0785
12316TIP3    H158363   3.958   0.686  12.404 -1.6005  0.5190  1.6904
12316TIP3    H258364   3.904   0.563  12.335  1.0617 -0.4263  1.1423
12317TIP3   OH258365   3.601   3.609  17.367 -0.6714 -0.0247 -0.0177
12317TIP3    H158366   3.570   3.565  17.288  2.5229 -1.0831 -0.8183
12317TIP3    H258367   3.571   3.553  17.439 -3.7532  1.0300 -0.3189
12318TIP3   OH258368   4.495   0.263  13.146 -0.2358 -0.5773 -0.1765
12318TIP3    H158369   4.584   0.248  13.176  0.0258 -0.1600 -0.7261
12318TIP3    H258370   4.482   0.358  13.155 -0.9604 -0.7601  0.8105
12319TIP3   OH258371   4.971   5.318  15.239 -0.1355 -0.0397 -0.2331
12319TIP3    H158372   4.909   5.371  15.190  0.7881  1.0370 -0.2635
12319TIP3    H258373   5.053   5.367  15.236  0.6101 -1.2171  0.1838
12320TIP3   OH258374   3.720   4.481  12.500 -0.4860  0.2163 -0.0011
12320TIP3    H158375   3.698   4.398  12.458 -1.3524  0.5816 -0.2844
12320TIP3    H258376   3.754   4.536  12.428 -0.9467  0.4758 -0.0218
12321TIP3   OH258377   0.283   6.618   0.100 -0.2937 -0.1675  0.1071
12321TIP3    H158378   0.290   6.625   0.005 -1.8207  0.6513  0.0176
12321TIP3    H258379   0.245   6.532   0.116 -1.1067  0.1451 -0.1076
12322TIP3   OH258380   4.706   5.261   0.646 -0.0212 -0.2430 -0.3019
12322TIP3    H158381   4.715   5.356   0.651 -4.8622  0.5373 -1.9790
12322TIP3    H258382   4.679   5.235   0.734  1.2513 -0.1666  0.1417
12323TIP3   OH258383   0.879   3.084   3.436 -0.1991 -0.4896 -0.2137
12323TIP3    H158384   0.875   2.990   3.422  2.2159 -0.6085 -0.3653
12323TIP3    H258385   0.891   3.094   3.531 -0.2484 -0.3180 -0.2246
12324TIP3   OH258386   6.730   6.050  17.312 -0.2477 -0.2218 -0.5416
12324TIP3    H158387   6.768   5.964  17.293  1.0181  0.2121 -0.0830
12324TIP3    H258388   6.805   6.109  17.313 -0.8474  0.5674  1.0350
12325TIP3   OH258389   4.197   3.458   2.804  0.3851 -0.2928  0.6693
12325TIP3    H158390   4.273   3.473   2.861 -0.9735 -1.9116  3.0936
12325TIP3    H258391   4.190   3.363   2.797 -0.8440 -0.1646 -0.3459
12326TIP3   OH258392   2.947   0.024  14.003  0.1912  0.3498 -0.2541
12326TIP3    H158393   2.865   0.040  13.957  0.1270 -1.6821 -0.9464
12326TIP3    H258394   2.921  -0.003  14.091  0.0850 -0.4762 -0.5306
12327TIP3   OH258395   3.278   5.150   2.706 -0.3786  0.0986  0.3264
12327TIP3    H158396   3.183   5.163   2.716 -0.5738  0.2894 -1.4031
12327TIP3    H258397   3.301   5.202   2.629  1.1195 -0.0776  0.6289
12328TIP3   OH258398   1.904   5.160   3.363 -0.1298  0.2176 -0.2838
12328TIP3    H158399   1.991   5.186   3.333  0.3881 -0.0352  0.9389
12328TIP3    H258400   1.855   5.141   3.283  1.2111 -0.4829 -0.9499
12329TIP3   OH258401   0.925   6.465  16.747  0.5927  0.0300 -0.2293
12329TIP3    H158402   0.900   6.448  16.656  2.2334 -0.4311 -0.6438
12329TIP3    H258403   0.899   6.387  16.795  0.3679 -0.0267 -0.4453
12330TIP3   OH258404   4.447   0.569  12.818  1.0655  0.4567  0.3438
12330TIP3    H158405   4.391   0.553  12.894 -0.4465  3.3397 -0.0386
12330TIP3    H258406   4.530   0.526  12.840  0.4374  0.5366  3.2812
12331TIP3   OH258407   5.595   1.430   1.262 -0.0716  0.2942  0.4655
12331TIP3    H158408   5.685   1.402   1.279 -0.9919 -1.5285  2.8670
12331TIP3    H258409   5.599   1.526   1.263  1.7141  0.2497  1.3113
12332TIP3   OH258410   5.510   5.250  16.949  0.2537  0.3380 -0.0074
12332TIP3    H158411   5.592   5.298  16.943  0.7883 -0.5064  0.4395
12332TIP3    H258412   5.472   5.258  16.861  1.0387  0.3383 -0.3591
12333TIP3   OH258413   5.465   0.330  16.988  0.0162 -0.2552  0.6266
12333TIP3    H158414   5.507   0.332  17.074  0.6045  0.3421  0.3409
12333TIP3    H258415   5.476   0.419  16.954  0.5740 -0.7046 -0.4241
12334TIP3   OH258416   5.172   0.307   1.403 -0.4503 -0.5268  0.2120
12334TIP3    H158417   5.145   0.215   1.408  0.4102 -0.7494  1.1064
12334TIP3    H258418   5.222   0.314   1.322 -2.0813 -0.3933 -0.8266
12335TIP3   OH258419   2.589   3.425   1.769 -0.5855 -0.0334  0.4915
12335TIP3    H158420   2.575   3.500   1.711 -0.7608 -1.2327 -1.0966
12335TIP3    H258421   2.632   3.360   1.714 -0.2724 -1.0464  1.8797
12336TIP3   OH258422   2.664   0.914  13.387 -0.3761 -0.1194 -0.5354
12336TIP3    H158423   2.756   0.934  13.406 -0.2205  0.7720 -2.0514
12336TIP3    H258424   2.643   0.840  13.444  1.1444 -0.0604  0.1565
12337TIP3   OH258425   3.480   6.407  12.935 -0.5213 -0.7226  0.6482
12337TIP3    H158426   3.449   6.451  13.014 -0.1093 -2.1118  1.6112
12337TIP3    H258427   3.401   6.394  12.883 -0.5733  1.7406 -0.0109
12338TIP3   OH258428   5.255   0.982  17.386 -0.2435 -0.7708 -0.0823
12338TIP3    H158429   5.303   0.980  17.304 -0.2114 -0.6393 -0.0675
12338TIP3    H258430   5.216   1.069  17.388  1.3769 -0.0111  0.9581
12339TIP3   OH258431   5.684   3.613   4.920  0.2558  0.2509 -0.4931
12339TIP3    H158432   5.660   3.570   4.838 -0.6641 -0.2249  0.0147
12339TIP3    H258433   5.775   3.641   4.907  1.7829 -3.8812 -0.0486
12340TIP3   OH258434   0.737   2.002  14.021 -0.3349 -0.0290  0.3464
12340TIP3    H158435   0.684   1.925  13.999  2.0268 -0.9276 -2.8735
12340TIP3    H258436   0.822   1.966  14.049  0.0080  1.4321  1.3173
12341TIP3   OH258437   5.753   6.528   1.965  0.6271  0.1336  0.2496
12341TIP3    H158438   5.838   6.520   1.922  0.2014 -1.2063 -0.3951
12341TIP3    H258439   5.726   6.438   1.981 -0.6783  0.5442  0.4349
12342TIP3   OH258440   2.611   6.671  12.775  0.5097  0.4875 -0.7541
12342TIP3    H158441   2.576   6.674  12.686 -2.2579  1.1078  0.2813
12342TIP3    H258442   2.591   6.583  12.806 -1.8441  1.3391  0.4040
12343TIP3   OH258443   2.592   1.799   0.824 -0.1871  0.2983  0.2934
12343TIP3    H158444   2.615   1.866   0.759 -0.1524  1.5627  1.5636
12343TIP3    H258445   2.572   1.722   0.772  4.3852 -0.2343 -1.1293
12344TIP3   OH258446   0.012   2.644   2.961  0.1984  0.1905 -0.3015
12344TIP3    H158447   0.061   2.562   2.959 -3.0672 -1.9710 -0.1500
12344TIP3    H258448   0.003   2.663   3.054 -0.7747 -0.5010 -0.2342
12345TIP3   OH258449   4.749   6.165   4.862 -0.8255  0.4876  0.1147
12345TIP3    H158450   4.827   6.209   4.827 -0.0201 -0.5594  0.5521
12345TIP3    H258451   4.747   6.190   4.954  0.6799 -1.7577  0.8287
12346TIP3   OH258452   5.480   5.581  16.980 -0.1087  0.2122  0.0228
12346TIP3    H158453   5.499   5.492  17.011 -1.7118  0.2811  1.3254
12346TIP3    H258454   5.444   5.568  16.892 -1.0236 -0.5020  0.4916
12347TIP3   OH258455   3.100   6.015  17.134  0.3438 -0.7227  0.1318
12347TIP3    H158456   3.088   5.969  17.217 -1.0872  0.5066  0.6466
12347TIP3    H258457   3.127   6.103  17.159 -0.1089 -0.3340 -0.7001
12348TIP3   OH258458   0.173   0.350   6.389  0.5755 -0.3177 -0.2867
12348TIP3    H158459   0.191   0.265   6.429 -0.0086 -0.9726 -1.3637
12348TIP3    H258460   0.232   0.410   6.434  1.1415 -1.3237  0.3645
12349TIP3   OH258461   1.030   1.006   4.939 -0.2610 -0.4768 -0.1357
12349TIP3    H158462   0.992   0.937   4.886 -1.3393  0.5700 -0.7849
12349TIP3    H258463   1.011   0.981   5.029  2.8261 -3.0048 -0.0207
12350TIP3   OH258464   2.788   0.905  16.454 -0.2377 -0.1929 -0.1778
12350TIP3    H158465   2.809   0.821  16.496 -1.3758 -0.7153 -0.6084
12350TIP3    H258466   2.692   0.910  16.457 -0.1700  1.3176  0.2456
12351TIP3   OH258467   5.375   3.265   2.224 -0.2594 -0.0760  0.1778
12351TIP3    H158468   5.297   3.243   2.174 -0.0188 -0.9086  0.1483
12351TIP3    H258469   5.370   3.210   2.302  1.4171 -1.8702 -0.8952
12352TIP3   OH258470   1.697   1.109   1.801  0.0432 -0.9180 -0.6403
12352TIP3    H158471   1.754   1.159   1.859 -1.1406  0.1748 -0.3838
12352TIP3    H258472   1.634   1.067   1.860 -1.0620  0.0597 -1.0965
12353TIP3   OH258473   2.734   2.840   3.912  0.1165 -0.5762 -0.1107
12353TIP3    H158474   2.724   2.780   3.986  0.0162 -1.1616 -0.5929
12353TIP3    H258475   2.676   2.804   3.844 -0.4824  0.4578 -0.1678
12354TIP3   OH258476   5.233   1.844   0.586 -0.3056  0.0536  0.2142
12354TIP3    H158477   5.275   1.872   0.505  0.8068 -0.1433  0.7117
12354TIP3    H258478   5.270   1.758   0.605 -1.3174 -0.3550  0.3962
12355TIP3   OH258479   5.906   3.849   5.411 -0.5337 -0.3675 -0.3659
12355TIP3    H158480   5.837   3.787   5.432 -2.4540  2.3689  2.4226
12355TIP3    H258481   5.938   3.878   5.497  1.5123  1.1766 -1.5548
12356TIP3   OH258482   1.263   2.654  12.727  0.0584  0.4376  0.2621
12356TIP3    H158483   1.214   2.622  12.803  0.2557 -0.5841 -0.0232
12356TIP3    H258484   1.210   2.725  12.692 -0.2623  0.6213  1.0814
12357TIP3   OH258485   5.213   3.013   4.009 -0.1318 -0.2713 -0.0931
12357TIP3    H158486   5.184   2.958   4.082 -2.4037 -0.0595 -0.7512
12357TIP3    H258487   5.298   2.977   3.984 -0.0058 -1.3098  1.6419
12358TIP3   OH258488   0.086   2.125  11.682  0.1649  0.4710 -0.5549
12358TIP3    H158489  -0.009   2.137  11.672  0.0834  0.9570  0.5842
12358TIP3    H258490   0.103   2.150  11.773  1.3996  0.4314 -0.7630
12359TIP3   OH258491   6.669   0.322  10.639  0.0729  0.5961  0.5991
12359TIP3    H158492   6.710   0.235  10.645  0.8454  0.9183  0.1751
12359TIP3    H258493   6.734   0.382  10.676  0.2545  1.1894 -0.6135
12360TIP3   OH258494   4.834   4.438  12.169 -0.5432  0.2725  0.6515
12360TIP3    H158495   4.882   4.520  12.170 -1.0556  0.5776  0.5909
12360TIP3    H258496   4.901   4.370  12.164 -0.1601  0.7403 -2.8904
12361TIP3   OH258497   1.978   3.998   1.448 -0.2057 -0.0412  0.2603
12361TIP3    H158498   1.994   3.907   1.473  0.8368  0.2053  0.5206
12361TIP3    H258499   1.990   4.048   1.529 -0.4050  0.3730  0.0403
12362TIP3   OH258500   6.359   4.611  16.756 -0.4657  0.1460 -0.0611
12362TIP3    H158501   6.330   4.594  16.846  1.7953  0.4723  0.7851
12362TIP3    H258502   6.340   4.530  16.709  0.2601 -0.8129  1.2447
12363TIP3   OH258503   3.221   1.808   0.747  0.5737 -0.3729  0.3630
12363TIP3    H158504   3.310   1.776   0.744  0.5301 -0.6524  1.5460
12363TIP3    H258505   3.213   1.850   0.833 -0.7435 -1.3360  0.7572
12364TIP3   OH258506   1.102   2.019   2.666  0.5562  0.1135 -0.5047
12364TIP3    H158507   1.168   2.058   2.609  0.2962  0.8989 -0.2803
12364TIP3    H258508   1.068   1.944   2.616  1.5560 -0.2598 -0.6428
12365TIP3   OH258509   0.514   1.596   1.654 -0.4337 -0.0629 -0.0812
12365TIP3    H158510   0.603   1.569   1.678 -0.2557  0.8836  0.3578
12365TIP3    H258511   0.493   1.544   1.576 -0.1304 -1.4954  0.7622
12366TIP3   OH258512   1.991   5.856   5.755 -0.1535  0.2651 -0.2429
12366TIP3    H158513   2.001   5.792   5.685  2.2703  0.6491 -0.3351
12366TIP3    H258514   2.077   5.898   5.762 -0.4952  0.6948  2.5238
12367TIP3   OH258515   3.764   0.951   0.922 -0.0832 -0.1545  0.7291
12367TIP3    H158516   3.789   0.917   1.008  0.6777 -1.1413  0.1473
12367TIP3    H258517   3.734   0.874   0.874  1.2541  0.0287 -0.4739
12368TIP3   OH258518   2.964   3.222  15.199  0.0106 -0.4213 -0.4110
12368TIP3    H158519   2.962   3.192  15.109 -0.3053 -1.3687 -0.0973
12368TIP3    H258520   3.057   3.233  15.219  0.1083 -0.8276 -0.6512
12369TIP3   OH258521   1.801   5.539   5.669  0.5815  0.1769 -0.1921
12369TIP3    H158522   1.809   5.457   5.621  1.6814 -0.2354  0.6242
12369TIP3    H258523   1.888   5.580   5.660  0.2295  0.9652 -0.0943
12370TIP3   OH258524   0.398   3.211   4.710 -0.5037 -0.1997 -0.0209
12370TIP3    H158525   0.338   3.240   4.641  0.5603  1.6678 -0.2462
12370TIP3    H258526   0.374   3.264   4.786 -1.3130 -1.8628  0.9133
12371TIP3   OH258527   0.678   2.812   3.687  0.0838 -0.1856 -0.6361
12371TIP3    H158528   0.614   2.763   3.635  1.2442 -0.7303 -1.5838
12371TIP3    H258529   0.625   2.858   3.752 -1.3302 -0.1213 -1.7837
12372TIP3   OH258530   1.853   0.704  15.510  0.0872  0.5473 -0.1046
12372TIP3    H158531   1.897   0.697  15.425  0.4617 -0.2175  0.1455
12372TIP3    H258532   1.812   0.791  15.509  0.3876  0.6831 -0.9238
12373TIP3   OH258533   4.594   1.856  15.276  0.2156 -0.0967 -0.3249
12373TIP3    H158534   4.582   1.867  15.371  1.6328 -3.4377  0.3703
12373TIP3    H258535   4.505   1.851  15.242 -0.3689 -0.8815  1.1853
12374TIP3   OH258536   1.174   6.319  13.002  0.7111  0.0282  0.1030
12374TIP3    H158537   1.191   6.359  12.917  0.1101 -1.7300 -0.8884
12374TIP3    H258538   1.237   6.246  13.007  0.8024  0.1674  1.2117
12375TIP3   OH258539   0.775   6.404   3.982 -0.1063 -0.0105  0.1433
12375TIP3    H158540   0.822   6.485   3.959  0.5541 -0.2677  0.5623
12375TIP3    H258541   0.745   6.370   3.898 -1.8405  1.5120  0.0760
12376TIP3   OH258542   6.225   1.598  11.245 -0.2233 -0.0563  0.3192
12376TIP3    H158543   6.302   1.576  11.298 -0.9893 -1.2687  1.0084
12376TIP3    H258544   6.208   1.518  11.195  0.1460  0.8909 -1.3608
12377TIP3   OH258545   1.646   6.363   3.778 -0.3274  0.3201  0.0355
12377TIP3    H158546   1.582   6.429   3.751 -0.8775 -0.4068 -0.4882
12377TIP3    H258547   1.595   6.283   3.786  0.6932 -0.5007 -1.3610
12378TIP3   OH258548   0.758   5.921  15.600 -0.0784 -0.1620  0.2138
12378TIP3    H158549   0.779   5.869  15.523 -1.3036 -1.0764  0.4737
12378TIP3    H258550   0.690   5.982  15.571 -1.1501 -1.0671  0.7419
12379TIP3   OH258551   5.491   4.187   3.891 -0.7013 -0.1364  0.4654
12379TIP3    H158552   5.521   4.248   3.958  2.4342 -0.9296 -0.0545
12379TIP3    H258553   5.441   4.241   3.829 -0.2520  1.3458  1.3586
12380TIP3   OH258554   2.167   3.155  16.390  0.0092 -1.0572 -0.6464
12380TIP3    H158555   2.130   3.235  16.428  1.4336 -0.4098 -0.5415
12380TIP3    H258556   2.260   3.175  16.379  0.9888 -3.6033  1.8609
12381TIP3   OH258557   2.379   3.708  10.931  0.0043 -0.2246 -0.3527
12381TIP3    H158558   2.334   3.664  10.859  0.1303  0.0063 -0.5746
12381TIP3    H258559   2.330   3.790  10.943  0.8110  0.3799 -1.0992
12382TIP3   OH258560   4.398   2.105   2.155 -0.2417 -0.4910 -0.0149
12382TIP3    H158561   4.437   2.020   2.175 -0.0076 -0.0039  1.6945
12382TIP3    H258562   4.308   2.085   2.130 -0.2823 -1.2125  0.6960
12383TIP3   OH258563   2.337   5.244   5.580 -0.0959  0.3593 -0.2573
12383TIP3    H158564   2.287   5.304   5.524  0.7458  1.0609 -0.2821
12383TIP3    H258565   2.426   5.250   5.547  0.5966  1.4034  1.6253
12384TIP3   OH258566   2.351   0.182  15.074 -0.0190 -0.4569  0.6619
12384TIP3    H158567   2.283   0.249  15.064  0.8655  0.3654  0.0481
12384TIP3    H258568   2.327   0.114  15.011 -3.5828 -3.1071  4.4049
12385TIP3   OH258569   5.190   1.773  16.639 -0.2268  0.1477  0.6007
12385TIP3    H158570   5.271   1.824  16.639 -0.1308  0.0250 -0.3108
12385TIP3    H258571   5.154   1.785  16.551 -1.1814  0.1660  0.9752
12386TIP3   OH258572   1.252   0.626  12.680  0.0873 -0.4272 -0.1463
12386TIP3    H158573   1.240   0.662  12.592 -1.5360  0.3569  0.3474
12386TIP3    H258574   1.197   0.547  12.681  2.3187 -2.0688 -0.6911
12387TIP3   OH258575   5.093   0.397   3.932 -0.0595 -0.1971 -0.1821
12387TIP3    H158576   5.140   0.473   3.968 -0.1303  0.8668 -2.2105
12387TIP3    H258577   5.000   0.417   3.948 -0.0033 -1.1217  1.5745
12388TIP3   OH258578   5.221   4.968  12.392  0.6325 -0.5441  0.5934
12388TIP3    H158579   5.156   5.018  12.442  0.8407 -1.8899  2.3207
12388TIP3    H258580   5.188   4.878  12.391  0.6172 -0.5812 -1.8332
12389TIP3   OH258581   5.138   5.532  11.860  0.4837 -0.4986 -0.9392
12389TIP3    H158582   5.161   5.454  11.910  0.9081  0.2440  0.0503
12389TIP3    H258583   5.057   5.564  11.901  0.7226  0.0036 -0.8481
12390TIP3   OH258584   3.804   1.553  15.440 -0.2968 -0.3574 -0.2240
12390TIP3    H158585   3.768   1.532  15.354  0.5249 -0.6220 -0.5155
12390TIP3    H258586   3.881   1.496  15.448  0.2075  0.3787  0.2643
12391TIP3   OH258587   4.606   1.417  11.008 -0.4609  0.0649  0.3394
12391TIP3    H158588   4.682   1.474  11.012  0.1310 -0.1540 -3.4969
12391TIP3    H258589   4.636   1.333  11.045  1.0181  0.1616 -0.5605
12392TIP3   OH258590   0.494   3.539  12.037  0.3155  0.1521 -0.2544
12392TIP3    H158591   0.548   3.616  12.015  0.9182 -0.1827  0.0361
12392TIP3    H258592   0.557   3.468  12.047  0.5665  0.7253  5.2871
12393TIP3   OH258593   1.211   5.416   5.275  0.1395 -0.7816  0.8988
12393TIP3    H158594   1.299   5.454   5.284 -0.3878  0.7290  0.1707
12393TIP3    H258595   1.189   5.383   5.362  1.2890 -0.8605  1.1654
12394TIP3   OH258596   2.687   5.759  10.417 -0.3156 -0.1017  0.3624
12394TIP3    H158597   2.694   5.855  10.411 -0.1528 -0.0879  0.7719
12394TIP3    H258598   2.664   5.742  10.508  2.1054 -0.5627  0.9596
12395TIP3   OH258599   3.982   4.529  14.131 -0.6206 -0.2270  0.1554
12395TIP3    H158600   3.938   4.451  14.167  0.7937 -1.0115  0.2556
12395TIP3    H258601   4.010   4.578  14.208 -0.0664 -0.4760  0.1207
12396TIP3   OH258602   5.024   3.869  11.481 -0.6013 -0.0385  0.1940
12396TIP3    H158603   5.061   3.803  11.422 -1.4957  0.0834 -0.5452
12396TIP3    H258604   4.929   3.865  11.464 -0.7557  0.8248  0.7771
12397TIP3   OH258605   1.456   1.116   6.184  0.0484 -0.2741 -0.6769
12397TIP3    H158606   1.374   1.164   6.176  0.3038  0.1904 -0.5594
12397TIP3    H258607   1.457   1.057   6.109  0.3185  0.8084 -1.5431
12398TIP3   OH258608   6.349   3.842  16.367 -0.0277  0.0272  0.1580
12398TIP3    H158609   6.363   3.749  16.355  0.5757  0.2404 -0.8639
12398TIP3    H258610   6.373   3.858  16.459  1.5314 -0.5361 -0.1152
12399TIP3   OH258611   4.928   2.392  11.591 -0.8109  0.4163 -0.0874
12399TIP3    H158612   4.928   2.443  11.673 -2.6534 -0.7205  0.6919
12399TIP3    H258613   4.870   2.441  11.533 -0.0339  0.8718 -0.4856
12400TIP3   OH258614   4.442   6.443  15.642 -0.3969 -1.0868 -0.3372
12400TIP3    H158615   4.378   6.509  15.668  0.9450  0.0999  0.1243
12400TIP3    H258616   4.467   6.468  15.553  1.0935 -0.0753  0.3017
12401TIP3   OH258617   0.909   6.263  13.800 -0.0938 -0.0938  0.3122
12401TIP3    H158618   0.942   6.212  13.874  0.2444 -1.2228 -0.5921
12401TIP3    H258619   0.964   6.236  13.726 -0.8071  0.5837 -0.4857
12402TIP3   OH258620   3.408   0.665   3.944  0.5369  0.7776 -0.1884
12402TIP3    H158621   3.498   0.669   3.976  0.9394 -0.6352 -1.0443
12402TIP3    H258622   3.360   0.726   4.000  2.1988  2.3383 -0.3571
12403TIP3   OH258623   2.913   1.379  13.390  0.3223  0.0335  0.2948
12403TIP3    H158624   2.952   1.464  13.372 -2.7102  1.6770  0.8116
12403TIP3    H258625   2.838   1.398  13.446 -0.7770 -2.9411  0.0239
12404TIP3   OH258626   3.380   0.898   0.954  0.0948 -0.3583 -0.5067
12404TIP3    H158627   3.286   0.911   0.943  0.3891  0.9434 -1.7694
12404TIP3    H258628   3.392   0.803   0.947 -1.0606 -0.4914 -0.9452
12405TIP3   OH258629   5.037   4.701   4.145  1.0725 -0.0941  0.7845
12405TIP3    H158630   5.115   4.738   4.188  1.0245  0.6734  0.2282
12405TIP3    H258631   4.966   4.719   4.206  1.4971 -2.0144  1.9553
12406TIP3   OH258632   3.015   4.278   3.796 -0.2334 -0.2471 -0.3243
12406TIP3    H158633   3.089   4.338   3.796 -0.7377  0.4061  0.6650
12406TIP3    H258634   3.033   4.217   3.725  1.5380 -0.4780  0.2832
12407TIP3   OH258635   0.823   2.402   5.280 -0.8615 -0.3774  0.4292
12407TIP3    H158636   0.765   2.477   5.293 -1.6463 -1.0840  1.1379
12407TIP3    H258637   0.836   2.367   5.368  0.7151 -0.1958  0.2861
12408TIP3   OH258638   2.461   5.243   5.221  0.1152  0.2321  0.2516
12408TIP3    H158639   2.426   5.332   5.219 -2.9463 -0.8420 -1.8445
12408TIP3    H258640   2.523   5.240   5.148  0.3253  0.7048  0.4131
12409TIP3   OH258641   2.795   6.413  13.309  0.0131 -0.4627 -0.2900
12409TIP3    H158642   2.797   6.331  13.260 -2.3369  0.1483 -1.5182
12409TIP3    H258643   2.821   6.480  13.246 -1.2908  0.1110 -0.2494
12410TIP3   OH258644   1.429   1.733   3.699  0.4870 -0.1738 -0.4379
12410TIP3    H158645   1.393   1.657   3.655  0.6269 -2.1863  2.6241
12410TIP3    H258646   1.513   1.749   3.656  0.2139 -1.4046 -1.4751
12411TIP3   OH258647   1.864   2.270  16.376 -0.1533 -0.4618  0.3929
12411TIP3    H158648   1.830   2.181  16.363  1.2784 -0.7938 -1.4460
12411TIP3    H258649   1.815   2.324  16.315 -0.1321 -0.2106  0.5984
12412TIP3   OH258650   4.462   5.439  14.995 -0.3723 -0.4268 -0.0909
12412TIP3    H158651   4.454   5.493  15.074  2.6574  0.5978 -0.3800
12412TIP3    H258652   4.476   5.502  14.924 -0.2840 -1.4617 -1.0154
12413TIP3   OH258653   4.539   5.485   5.854 -0.3846  0.0099 -0.5847
12413TIP3    H158654   4.448   5.513   5.847 -0.2922  0.0327 -1.9904
12413TIP3    H258655   4.546   5.412   5.794  0.4838 -0.1285 -0.3293
12414TIP3   OH258656   1.474   0.025  12.352  0.1431 -0.2926  0.0275
12414TIP3    H158657   1.408  -0.038  12.323 -0.5726  1.0538 -1.4221
12414TIP3    H258658   1.533   0.034  12.277 -0.6837  1.8849 -0.4677
12415TIP3   OH258659   4.181   1.669   4.473  0.3105 -0.3197 -0.3014
12415TIP3    H158660   4.216   1.584   4.500 -0.6658 -0.5102  0.4372
12415TIP3    H258661   4.169   1.661   4.379 -0.5220 -1.3183 -0.1377
12416TIP3   OH258662   6.727   5.279  13.191 -0.6276 -0.7905  0.3773
12416TIP3    H158663   6.755   5.298  13.280  2.0963 -0.1796 -0.5172
12416TIP3    H258664   6.774   5.199  13.167 -1.4668 -1.0566 -0.4617
12417TIP3   OH258665   3.368   2.852   0.333  0.3898 -0.6832  0.3849
12417TIP3    H158666   3.347   2.807   0.415 -0.8888  0.6901  0.8683
12417TIP3    H258667   3.457   2.883   0.346  0.2570 -0.6046  1.2237
12418TIP3   OH258668   6.355   0.235   4.992 -0.4750  0.4962 -0.1673
12418TIP3    H158669   6.360   0.224   5.087 -0.6386  1.6715 -0.0022
12418TIP3    H258670   6.372   0.328   4.978 -0.2842  0.3088 -1.3088
12419TIP3   OH258671   6.492   1.428   3.233  0.3358 -0.1381  0.0403
12419TIP3    H158672   6.429   1.498   3.217  0.3609  0.1529  1.1819
12419TIP3    H258673   6.480   1.404   3.324  1.9210 -0.0305  0.3097
12420TIP3   OH258674   1.806   1.336  11.999  0.4079 -0.3098  0.0079
12420TIP3    H158675   1.867   1.332  12.073  0.7490  3.2920  0.0792
12420TIP3    H258676   1.854   1.382  11.931 -1.2561 -0.0423 -1.0302
12421TIP3   OH258677   2.314   6.242  15.126  0.1962  0.1328 -0.0971
12421TIP3    H158678   2.286   6.209  15.211  0.7219 -1.7338 -0.6129
12421TIP3    H258679   2.255   6.200  15.063  3.3606 -3.2312 -1.1449
12422TIP3   OH258680   3.875   4.969  17.391 -0.1087  0.8237  0.4447
12422TIP3    H158681   3.835   5.054  17.404 -0.6388  0.7424 -0.5492
12422TIP3    H258682   3.969   4.986  17.394 -0.2003  1.2110  1.5913
12423TIP3   OH258683   1.390   3.844   5.858 -0.2951  0.4402 -0.0701
12423TIP3    H158684   1.328   3.808   5.922  0.1141 -1.3122 -0.6021
12423TIP3    H258685   1.434   3.915   5.905 -1.4500  0.5616  0.8912
12424TIP3   OH258686   4.541   3.807   2.008  0.1200 -0.6606 -0.0823
12424TIP3    H158687   4.541   3.888   1.957 -0.7291 -1.3259 -1.1889
12424TIP3    H258688   4.461   3.811   2.061 -0.0710 -0.8818 -0.3461
12425TIP3   OH258689   5.815   1.620   0.312  0.0973 -0.3683  0.2760
12425TIP3    H158690   5.787   1.550   0.371 -0.6962  0.5936  1.0749
12425TIP3    H258691   5.761   1.695   0.336 -0.9969 -0.1979 -2.3513
12426TIP3   OH258692   2.139   1.977   4.652 -0.2417  0.4094 -0.1759
12426TIP3    H158693   2.141   1.937   4.739 -0.3844 -3.0769 -1.6390
12426TIP3    H258694   2.221   2.026   4.647  0.0080  0.2611  1.7006
12427TIP3   OH258695   1.445   5.391  14.796 -0.4446 -0.0672 -0.8208
12427TIP3    H158696   1.455   5.296  14.789 -0.9667 -0.2023 -0.0158
12427TIP3    H258697   1.512   5.418  14.859  0.9113  0.3782 -2.4122
12428TIP3   OH258698   6.381   5.569  11.846 -0.4960  0.2201 -0.5439
12428TIP3    H158699   6.325   5.609  11.779  0.6869 -0.1291 -1.7904
12428TIP3    H258700   6.470   5.594  11.821 -0.0521  0.6353  1.3039
12429TIP3   OH258701   4.741   1.371  13.047 -0.6383 -0.3943 -0.2894
12429TIP3    H158702   4.651   1.403  13.036 -0.4827  0.3438  0.4394
12429TIP3    H258703   4.796   1.445  13.023 -0.1852 -1.1024 -1.5208
12430TIP3   OH258704   5.623   4.325  12.631  0.3676 -0.1385  0.3573
12430TIP3    H158705   5.584   4.403  12.669  1.2266  0.3513  0.2677
12430TIP3    H258706   5.552   4.284  12.581 -0.6289 -0.4993  2.0025
12431TIP3   OH258707   0.814   3.797   5.114 -0.1485  0.4742 -0.1586
12431TIP3    H158708   0.738   3.790   5.055  0.7514 -2.0480 -1.1461
12431TIP3    H258709   0.889   3.806   5.055  0.6562 -0.8324  0.6250
12432TIP3   OH258710   1.427   2.304  15.609 -0.3262 -0.9397 -0.3328
12432TIP3    H158711   1.361   2.261  15.554  0.9001 -2.8835 -0.3984
12432TIP3    H258712   1.495   2.237  15.620 -0.5021 -0.7140  3.5751
12433TIP3   OH258713   3.145   6.443   3.222  0.2163  0.0518  0.4109
12433TIP3    H158714   3.160   6.459   3.129  1.8773  1.9578  0.9304
12433TIP3    H258715   3.217   6.386   3.249  0.4482  0.4884  0.7449
12434TIP3   OH258716   5.304   4.386   3.267  0.4547 -0.5074  0.9415
12434TIP3    H158717   5.254   4.465   3.248  2.3048  0.6421  0.5592
12434TIP3    H258718   5.324   4.392   3.360  1.1085 -0.1958  0.7857
12435TIP3   OH258719   5.103   6.075  13.383 -0.4190  0.5073  0.4236
12435TIP3    H158720   5.052   6.004  13.344 -1.6895  0.7747  1.5392
12435TIP3    H258721   5.125   6.132  13.308  0.0262 -0.6628 -0.3693
12436TIP3   OH258722   5.322   4.527   0.412 -0.1411 -0.1894 -0.2631
12436TIP3    H158723   5.333   4.518   0.317 -1.8986 -3.8442 -0.2891
12436TIP3    H258724   5.293   4.617   0.424  1.7978  0.9507 -2.9236
12437TIP3   OH258725   0.771   4.439  17.249 -0.2706 -0.4299  0.4107
12437TIP3    H158726   0.767   4.363  17.307  0.6048 -0.9636 -0.1883
12437TIP3    H258727   0.782   4.401  17.162 -1.4668  0.3567 -0.1032
12438TIP3   OH258728   5.938   2.360  11.355 -0.5301 -0.0350  0.6945
12438TIP3    H158729   5.852   2.337  11.320 -0.4877  0.2572  0.3965
12438TIP3    H258730   5.997   2.353  11.279 -0.7347  2.3982  0.2479
12439TIP3   OH258731   1.731   6.180   5.965  0.2043  1.3587  0.0440
12439TIP3    H158732   1.706   6.181   5.873 -1.4599 -0.6762  0.3688
12439TIP3    H258733   1.826   6.175   5.965  0.2039  0.8777 -1.6009
12440TIP3   OH258734   1.530   1.268  16.044 -0.3044 -0.0225  0.0441
12440TIP3    H158735   1.458   1.245  16.102 -0.3334 -0.4843 -0.1640
12440TIP3    H258736   1.608   1.260  16.099 -0.5100  1.9635  0.6888
12441TIP3   OH258737   4.810   2.023   0.448  0.1379  0.3752 -0.1678
12441TIP3    H158738   4.758   2.046   0.525  1.7997  1.8366  0.5888
12441TIP3    H258739   4.862   2.101   0.430 -0.5813  0.2947 -3.1680
12442TIP3   OH258740   0.797   0.188   2.038 -0.3713  0.3300 -0.7731
12442TIP3    H158741   0.808   0.250   2.110 -1.2922 -1.3112  0.8644
12442TIP3    H258742   0.742   0.235   1.975  0.0743  1.6456 -0.2295
12443TIP3   OH258743   6.526   1.213  13.704  0.1642  0.1407  0.1926
12443TIP3    H158744   6.523   1.152  13.778 -2.0051 -1.1196 -0.8344
12443TIP3    H258745   6.448   1.266  13.714  1.3645  1.9582  0.3443
12444TIP3   OH258746   1.583   5.947  14.929 -1.1907 -0.2702 -0.2389
12444TIP3    H158747   1.598   5.927  15.021  0.5500  0.2689 -0.3679
12444TIP3    H258748   1.507   5.894  14.905 -1.6303 -0.4747  1.4720
12445TIP3   OH258749   2.946   5.796  13.611 -0.3408  0.5562  0.0652
12445TIP3    H158750   3.002   5.873  13.603 -0.4767  0.6304 -0.1846
12445TIP3    H258751   2.860   5.826  13.581 -0.3618  0.2732 -0.1648
12446TIP3   OH258752   3.411   6.172  16.351  0.1114  0.3804 -0.4519
12446TIP3    H158753   3.341   6.227  16.316 -0.7358  0.1975  0.8884
12446TIP3    H258754   3.381   6.147  16.438  0.3207 -2.4675 -1.1032
12447TIP3   OH258755   3.880   6.147  11.526  0.2675  0.1575  0.3298
12447TIP3    H158756   3.799   6.102  11.499  1.0785 -0.1719 -1.6781
12447TIP3    H258757   3.895   6.116  11.615 -2.3207  0.9694  1.1468
12448TIP3   OH258758   1.669   5.881   5.775  0.3454 -0.0611  0.8597
12448TIP3    H158759   1.574   5.890   5.777  0.0902 -2.0093 -0.0598
12448TIP3    H258760   1.699   5.955   5.723 -0.7060  0.3515  0.8272
12449TIP3   OH258761   0.764   5.411   5.388 -0.2483 -0.0929  0.1140
12449TIP3    H158762   0.692   5.427   5.326  0.2126 -0.9707 -0.6797
12449TIP3    H258763   0.801   5.498   5.404 -1.1211  0.2979  0.0927
12450TIP3   OH258764   2.568   5.707  14.876 -0.5627 -0.6355  0.3297
12450TIP3    H158765   2.653   5.678  14.843 -0.4859 -1.1738  0.9874
12450TIP3    H258766   2.513   5.629  14.873  0.1720 -1.4384  3.8824
12451TIP3   OH258767   4.409   6.142  12.709  0.2515 -0.1229 -0.0641
12451TIP3    H158768   4.412   6.224  12.659 -0.0203 -0.6358 -0.9379
12451TIP3    H258769   4.358   6.082  12.655 -0.6034 -0.5138  1.1150
12452TIP3   OH258770   0.500   1.728   1.319 -0.1020 -0.5197 -0.0155
12452TIP3    H158771   0.515   1.803   1.377 -0.9987  0.4441 -0.9907
12452TIP3    H258772   0.569   1.666   1.342  1.1577  0.9289  0.2671
12453TIP3   OH258773   0.846   5.762  15.805 -0.1223  0.3443 -0.6984
12453TIP3    H158774   0.808   5.813  15.733  0.3885  0.0861 -1.1604
12453TIP3    H258775   0.910   5.820  15.845 -0.6577  0.6120 -0.2252
12454TIP3   OH258776   0.282   3.632   3.470  0.0151  0.4780 -0.2538
12454TIP3    H158777   0.299   3.666   3.558 -2.1279  1.9874 -0.3613
12454TIP3    H258778   0.260   3.709   3.418 -0.6579 -0.5979 -1.6351
12455TIP3   OH258779   3.750   3.786   3.736  0.3921 -0.7101  0.3578
12455TIP3    H158780   3.757   3.776   3.830  0.3301  0.8777  0.5568
12455TIP3    H258781   3.739   3.696   3.703  3.4497 -1.6579  1.5556
12456TIP3   OH258782   2.690   3.221   3.542  0.1802  0.6400  0.0304
12456TIP3    H158783   2.784   3.239   3.537  0.0764  1.8424  1.4356
12456TIP3    H258784   2.669   3.232   3.635 -1.4129  0.7130 -0.3106
12457TIP3   OH258785   1.793   0.305  14.852 -0.2440  0.1159 -0.1628
12457TIP3    H158786   1.737   0.326  14.927  0.7165  0.7431  0.4064
12457TIP3    H258787   1.863   0.251  14.888 -0.1816 -0.2127 -0.7581
12458TIP3   OH258788   6.549   6.478   0.499 -0.4138  0.1208 -0.2169
12458TIP3    H158789   6.634   6.491   0.457  0.4543 -1.0026  1.0930
12458TIP3    H258790   6.500   6.557   0.478  2.4319  2.8746  2.3599
12459TIP3   OH258791   5.708   2.611   0.198  0.4701 -0.5124  1.1627
12459TIP3    H158792   5.724   2.685   0.256 -0.0653 -0.6777  1.5211
12459TIP3    H258793   5.619   2.583   0.218  0.3188 -0.6411  0.3465
12460TIP3   OH258794   3.667   1.883  14.962  0.3169  0.1429  0.3973
12460TIP3    H158795   3.679   1.793  14.931  1.4802  0.1534  0.7440
12460TIP3    H258796   3.700   1.938  14.891  0.9595  0.2335  0.7523
12461TIP3   OH258797   2.480   1.753  13.594 -0.2280  0.0070  0.4036
12461TIP3    H158798   2.480   1.785  13.503  0.1903 -0.1414  0.3478
12461TIP3    H258799   2.493   1.831  13.647 -1.5347  0.2486  0.4066
12462TIP3   OH258800   0.416   5.890   4.326  0.0400  0.2982  0.2780
12462TIP3    H158801   0.482   5.907   4.259  0.4562  0.3562  0.6950
12462TIP3    H258802   0.408   5.973   4.373  1.7231 -0.4536  2.0125
12463TIP3   OH258803   5.144   5.580   4.003  0.3236  0.0103  0.0098
12463TIP3    H158804   5.158   5.491   3.971  0.3931 -0.7016  1.8565
12463TIP3    H258805   5.051   5.597   3.989  0.0186 -0.8833  0.7918
12464TIP3   OH258806   1.628   1.791   3.008 -0.8058 -0.1007 -0.3275
12464TIP3    H158807   1.554   1.790   3.068  0.4284 -1.1301  1.2481
12464TIP3    H258808   1.678   1.869   3.032 -0.0172 -0.8065  0.4104
12465TIP3   OH258809   6.646   1.578   1.858 -0.1001 -0.3883 -0.1795
12465TIP3    H158810   6.631   1.555   1.949  0.7841  1.5678  0.5153
12465TIP3    H258811   6.690   1.663   1.861  1.8428 -1.2098 -2.3672
12466TIP3   OH258812   0.554   1.588   6.597  0.4762 -0.9318  0.2610
12466TIP3    H158813   0.475   1.535   6.607 -0.9454  0.8942 -0.6266
12466TIP3    H258814   0.546   1.626   6.509  1.1829  1.0522  0.9890
12467TIP3   OH258815   0.305   2.635  11.827 -0.1766  0.4373  0.3419
12467TIP3    H158816   0.327   2.688  11.750  0.7238 -0.2560  0.1093
12467TIP3    H258817   0.389   2.612  11.866 -0.6282  1.1660  1.8312
12468TIP3   OH258818   0.098   4.028   4.089 -0.3635 -0.0673  1.0887
12468TIP3    H158819   0.039   3.971   4.041 -1.1318  0.7195  1.0806
12468TIP3    H258820   0.178   4.030   4.036 -1.2869  1.0056 -0.3272
12469TIP3   OH258821   1.074   0.498   1.499  0.1148  0.0340  0.1064
12469TIP3    H158822   1.049   0.481   1.590  0.7891  0.0731  0.3087
12469TIP3    H258823   1.169   0.483   1.497  0.1435  0.2590 -0.5388
12470TIP3   OH258824   6.402   6.728   3.103  0.1380  0.2699  0.3318
12470TIP3    H158825   6.491   6.719   3.068  0.5572 -1.2407  1.6339
12470TIP3    H258826   6.403   6.812   3.149  0.4258  0.9455 -0.8633
12471TIP3   OH258827   2.748   1.293   4.685 -0.5202  0.1289  0.2614
12471TIP3    H158828   2.737   1.381   4.720  1.2687  0.4288  0.1429
12471TIP3    H258829   2.691   1.291   4.608 -1.7504  0.6403  1.1138
12472TIP3   OH258830   0.609   3.349   0.434 -0.0303  0.1207  0.0814
12472TIP3    H158831   0.689   3.389   0.399 -0.4576  0.5737 -0.4188
12472TIP3    H258832   0.542   3.368   0.367 -0.2373 -1.5427 -0.2315
12473TIP3   OH258833   5.991   1.056  16.408 -0.0321  0.1376 -0.0792
12473TIP3    H158834   5.947   1.024  16.330  0.4042 -0.2653 -0.1669
12473TIP3    H258835   5.952   1.007  16.480  0.1624 -0.1092 -0.1406
12474TIP3   OH258836   2.524   2.304   5.991  0.8230  0.2683 -0.2399
12474TIP3    H158837   2.593   2.293   6.056  0.6514  0.8447  0.0455
12474TIP3    H258838   2.449   2.257   6.028  1.3445 -1.2766 -1.0377
12475TIP3   OH258839   3.154   3.124  13.938  0.3968 -0.2056 -0.0565
12475TIP3    H158840   3.095   3.195  13.963  0.3177  0.3180 -1.6156
12475TIP3    H258841   3.240   3.153  13.967  0.1885 -0.0323  0.3941
12476TIP3   OH258842   4.522   1.755  14.013 -0.4360 -0.2036 -0.1147
12476TIP3    H158843   4.579   1.814  14.061 -0.4884 -0.5178  0.3357
12476TIP3    H258844   4.548   1.667  14.041 -1.1419 -0.3540  0.0953
12477TIP3   OH258845   3.583   3.162   6.034  0.3787  0.3187  0.0448
12477TIP3    H158846   3.626   3.103   6.096 -2.4178 -0.3134  1.5684
12477TIP3    H258847   3.553   3.235   6.087 -2.4382 -0.4257 -0.3699
12478TIP3   OH258848   1.266   6.060  11.268  0.0942  0.7099 -0.0825
12478TIP3    H158849   1.221   6.144  11.277 -1.9978 -0.5529  2.1960
12478TIP3    H258850   1.238   6.009  11.344  0.8041 -2.2979 -1.6892
12479TIP3   OH258851   1.768   4.323  12.931 -0.0874 -0.0245  0.1479
12479TIP3    H158852   1.858   4.292  12.940  0.5253  0.7895 -2.4156
12479TIP3    H258853   1.726   4.259  12.875 -0.7181  0.3007  0.2431
12480TIP3   OH258854   4.148   1.821   3.588  0.4286  0.1306 -0.4542
12480TIP3    H158855   4.141   1.887   3.520  0.5685  0.2816 -0.3213
12480TIP3    H258856   4.241   1.817   3.610  0.4422 -0.2080 -0.5590
12481TIP3   OH258857   2.185   5.312   0.961 -0.1863 -0.1593 -0.8721
12481TIP3    H158858   2.148   5.376   1.021  0.0045  0.9521 -1.8817
12481TIP3    H258859   2.162   5.345   0.874  0.7439 -0.9489 -1.4446
12482TIP3   OH258860   1.170   6.080  12.714  1.1972 -0.0873 -0.1317
12482TIP3    H158861   1.182   6.171  12.688  0.8911  0.5209  1.7045
12482TIP3    H258862   1.088   6.053  12.672 -0.1859  1.4009  1.4554
12483TIP3   OH258863   4.605   1.144  11.621  0.6142  0.2370  0.3625
12483TIP3    H158864   4.647   1.224  11.651 -0.5631  0.5695  1.2044
12483TIP3    H258865   4.513   1.167  11.611  0.3875 -0.8128 -0.1309
12484TIP3   OH258866   4.689   4.285  16.393  0.5113  0.0442  0.1830
12484TIP3    H158867   4.699   4.243  16.307 -0.2932  1.0318 -0.4232
12484TIP3    H258868   4.680   4.212  16.454 -0.3336 -0.6869 -0.7702
12485TIP3   OH258869   3.891   5.170   3.643  0.0881 -0.0026 -0.1921
12485TIP3    H158870   3.955   5.239   3.626  0.7510 -1.0052 -2.1065
12485TIP3    H258871   3.913   5.138   3.730  2.5512 -0.6033 -0.9477
12486TIP3   OH258872   0.558   4.485   4.125  0.4137 -0.1419 -0.0941
12486TIP3    H158873   0.605   4.467   4.043  2.6070  1.1968  0.7819
12486TIP3    H258874   0.580   4.576   4.146  0.7805 -0.7377  2.4894
12487TIP3   OH258875   1.659   1.614   2.145 -0.9395  0.0397  0.0999
12487TIP3    H158876   1.644   1.572   2.060  0.0250  2.2008 -1.2185
12487TIP3    H258877   1.572   1.641   2.174 -1.1412  0.4023 -0.8175
12488TIP3   OH258878   0.473   0.661   0.836  0.4203  0.0652 -0.0521
12488TIP3    H158879   0.566   0.651   0.816  0.4897  2.1398 -0.9643
12488TIP3    H258880   0.461   0.754   0.851 -1.5725 -0.1299 -0.1578
12489TIP3   OH258881   1.956   4.739  17.239  0.3869 -0.5265 -0.2444
12489TIP3    H158882   2.044   4.760  17.269 -0.4154  0.3007  1.6487
12489TIP3    H258883   1.906   4.722  17.318 -1.4976  0.3554 -1.1781
12490TIP3   OH258884   2.522   4.548   4.080 -0.6877  0.3847  0.0688
12490TIP3    H158885   2.550   4.483   4.015  2.3290  0.9940  0.6021
12490TIP3    H258886   2.513   4.498   4.161  1.6740  0.4929  0.4910
12491TIP3   OH258887   4.279   0.587   0.803 -0.1653  0.5919 -0.6534
12491TIP3    H158888   4.310   0.647   0.735 -0.1425  1.4699  0.1231
12491TIP3    H258889   4.359   0.557   0.847 -0.1416 -0.3381 -1.2785
12492TIP3   OH258890   6.380   4.547  14.684 -0.4870  0.2569  0.0463
12492TIP3    H158891   6.311   4.523  14.622 -1.4213  1.0908  0.7412
12492TIP3    H258892   6.376   4.481  14.752  0.9053 -0.9824 -1.0095
12493TIP3   OH258893   0.560   2.693  15.128 -0.2737 -0.2209 -0.2400
12493TIP3    H158894   0.536   2.603  15.107  1.6201 -0.8391  0.0683
12493TIP3    H258895   0.491   2.746  15.088 -1.3399 -1.7811 -0.5709
12494TIP3   OH258896   6.313   4.964   1.445 -0.5332 -0.1889  0.5956
12494TIP3    H158897   6.370   4.951   1.370 -2.2704 -0.2621 -0.7863
12494TIP3    H258898   6.297   5.058   1.448  1.4727  0.1837  2.4605
12495TIP3   OH258899   3.690   3.890   2.702  0.3157 -0.5312  0.5249
12495TIP3    H158900   3.667   3.832   2.775 -2.5323 -0.1472  0.0277
12495TIP3    H258901   3.693   3.832   2.625  1.4951 -0.6264  0.6188
12496TIP3   OH258902   4.045   6.658  14.777  0.0669 -0.1002 -0.2390
12496TIP3    H158903   4.050   6.638  14.870 -1.5399  2.8068  0.6000
12496TIP3    H258904   3.962   6.621  14.749  0.2269 -0.3798 -0.3429
12497TIP3   OH258905   1.721   3.884  16.089 -0.0725  0.3769  0.4862
12497TIP3    H158906   1.776   3.870  16.166  1.7126  0.8468 -0.6443
12497TIP3    H258907   1.666   3.959  16.112  0.6131  0.6728  1.2279
12498TIP3   OH258908   0.792   5.541   2.262 -0.0091 -0.4030 -0.3054
12498TIP3    H158909   0.766   5.583   2.181  0.3537  0.1739 -0.1279
12498TIP3    H258910   0.710   5.528   2.310  0.0152  1.7328  0.4090
12499TIP3   OH258911   6.623   6.156  15.977  0.6205  0.2122  0.2352
12499TIP3    H158912   6.694   6.172  15.914 -0.0037  0.1377 -0.5044
12499TIP3    H258913   6.565   6.094  15.932 -1.4672  2.4576 -0.4129
12500TIP3   OH258914   2.187   1.542  16.011 -0.5586 -0.6463 -0.4972
12500TIP3    H158915   2.119   1.533  15.944  0.9178 -0.5446 -2.0738
12500TIP3    H258916   2.198   1.453  16.046 -0.1945 -1.0530 -1.5963
12501TIP3   OH258917   4.521   5.470  16.252 -0.6303 -0.2233  0.4053
12501TIP3    H158918   4.542   5.557  16.287 -1.6138  0.7113 -1.2239
12501TIP3    H258919   4.426   5.470  16.242 -0.4636 -0.5616 -1.7836
12502TIP3   OH258920   5.547   2.075   2.001  0.4214 -0.1250 -0.4228
12502TIP3    H158921   5.502   2.149   1.961  0.1539 -0.4811 -0.7861
12502TIP3    H258922   5.488   2.047   2.072 -0.3540 -1.1067 -1.4101
12503TIP3   OH258923   5.994   6.018   4.373  0.2818 -0.2501  0.6793
12503TIP3    H158924   6.050   5.941   4.375 -1.0869 -1.2701  2.3614
12503TIP3    H258925   5.907   5.984   4.351 -0.0133  1.0800 -0.3632
12504TIP3   OH258926   3.549   0.868   3.673 -1.1288  0.6139 -0.0642
12504TIP3    H158927   3.469   0.861   3.726 -0.5613 -2.0909  0.6062
12504TIP3    H258928   3.522   0.837   3.586 -1.0408  0.6050 -0.0879
12505TIP3   OH258929   2.064   6.529   6.071  0.4080  0.6305  0.1803
12505TIP3    H158930   2.097   6.617   6.092  2.8567 -0.1061 -0.3735
12505TIP3    H258931   2.042   6.491   6.156  0.9103  1.1872  0.5661
12506TIP3   OH258932   4.860   1.184   4.320 -0.0570 -0.0236  0.0628
12506TIP3    H158933   4.857   1.190   4.225  0.4502 -1.0708 -0.0347
12506TIP3    H258934   4.940   1.134   4.338  1.5619  2.7734  1.1805
12507TIP3   OH258935   5.439   1.535  10.903 -0.5028 -0.1598  0.6255
12507TIP3    H158936   5.425   1.460  10.961 -0.0339 -0.0601  0.8680
12507TIP3    H258937   5.514   1.580  10.940 -1.7198  1.3330  1.3949
12508TIP3   OH258938   1.476   0.305  16.495  0.1319 -0.0216  0.0040
12508TIP3    H158939   1.511   0.383  16.537 -1.5918  0.4647  0.6280
12508TIP3    H258940   1.496   0.233  16.555 -0.8187  0.4086  0.8554
12509TIP3   OH258941   0.389   5.742  13.785 -0.3596  0.2785 -0.0078
12509TIP3    H158942   0.329   5.683  13.739  1.9437 -2.9254  0.7600
12509TIP3    H258943   0.348   5.758  13.870 -0.4671 -1.3589  0.2715
12510TIP3   OH258944   6.486   0.438   3.228 -0.1453 -0.1555 -0.2729
12510TIP3    H158945   6.431   0.516   3.240  0.1311 -0.0051  0.0347
12510TIP3    H258946   6.424   0.368   3.208 -0.5215 -0.1475  0.8083
12511TIP3   OH258947   1.900   3.341  13.737 -0.1374  0.7056  0.1146
12511TIP3    H158948   1.966   3.311  13.799 -0.1044 -0.9712 -0.6546
12511TIP3    H258949   1.860   3.417  13.778  0.7567  0.4171  1.5863
12512TIP3   OH258950   1.870   4.001  11.871  0.1919 -0.3674  0.3772
12512TIP3    H158951   1.829   4.075  11.916 -0.7156 -0.0862 -0.8617
12512TIP3    H258952   1.855   4.018  11.778 -0.2428 -2.2461  0.0671
12513TIP3   OH258953   6.029   5.228  14.023  0.2091  0.0071 -0.0249
12513TIP3    H158954   6.093   5.215  14.093 -0.2567  1.3566  0.6933
12513TIP3    H258955   5.975   5.301  14.054 -2.2614 -1.6485 -0.1702
12514TIP3   OH258956   2.673   1.516  16.837  0.5782 -0.6186 -0.2263
12514TIP3    H158957   2.741   1.567  16.793  0.0402 -0.3020 -0.7226
12514TIP3    H258958   2.704   1.426  16.833  1.5381 -0.3513  0.6497
12515TIP3   OH258959   4.196   1.691   0.427  0.1664  0.3504  0.4006
12515TIP3    H158960   4.125   1.681   0.491 -1.5708 -1.0495 -1.5929
12515TIP3    H258961   4.201   1.786   0.413 -1.8533  0.4756  0.1242
12516TIP3   OH258962   5.717   5.650   3.599  0.1431 -0.0775 -0.5513
12516TIP3    H158963   5.655   5.680   3.533 -0.2681 -1.8567 -1.0155
12516TIP3    H258964   5.754   5.570   3.562  1.0024 -0.2968  0.7408
12517TIP3   OH258965   1.864   2.975   4.517 -0.4203  0.1899 -0.3796
12517TIP3    H158966   1.770   2.958   4.517 -0.6246  1.0831  1.3915
12517TIP3    H258967   1.887   2.985   4.610  1.8808 -2.2633 -0.5441
12518TIP3   OH258968   0.329   2.959  10.983  0.4679 -0.1955  0.8936
12518TIP3    H158969   0.320   3.052  11.005 -1.7734 -0.5750  1.9275
12518TIP3    H258970   0.254   2.941  10.926  0.6123 -1.4396  1.0762
12519TIP3   OH258971   2.889   4.600  15.282 -0.5616  0.2069 -0.3397
12519TIP3    H158972   2.812   4.593  15.338 -0.7750  1.6466 -0.4201
12519TIP3    H258973   2.932   4.681  15.309  0.7211 -0.3649 -0.5685
12520TIP3   OH258974   1.721   1.678  16.510  0.4779  0.1973  0.0083
12520TIP3    H158975   1.666   1.755  16.522  0.0514 -0.4169  2.3533
12520TIP3    H258976   1.768   1.669  16.592  2.1563 -0.8249 -1.0077
12521TIP3   OH258977   0.425   6.257  15.157 -0.3147 -0.2084  0.0677
12521TIP3    H158978   0.387   6.311  15.226 -1.6224 -1.8940  0.7491
12521TIP3    H258979   0.372   6.276  15.079  0.5084  0.9321 -0.2377
12522TIP3   OH258980   1.508   1.886   4.206  0.1120 -0.2403  0.3978
12522TIP3    H158981   1.567   1.960   4.192  0.0150 -0.2638 -0.1693
12522TIP3    H258982   1.486   1.856   4.118 -0.9898 -0.0415  0.5894
12523TIP3   OH258983   0.355   4.570   2.850 -0.0783  0.2756 -0.2572
12523TIP3    H158984   0.277   4.621   2.829 -0.0428  0.1846 -0.6255
12523TIP3    H258985   0.376   4.593   2.941  0.2105  1.2711 -0.5666
12524TIP3   OH258986   4.510   4.619  13.235 -0.0420 -1.1357  0.3149
12524TIP3    H158987   4.433   4.571  13.264  0.5345 -2.4293 -0.2133
12524TIP3    H258988   4.488   4.651  13.148  0.0949 -1.7232  0.0593
12525TIP3   OH258989   1.747   4.761   6.599 -0.0889 -0.9504  0.0295
12525TIP3    H158990   1.812   4.785   6.533  0.9380 -0.3380  1.2172
12525TIP3    H258991   1.749   4.834   6.661  0.4464 -2.4253  1.8155
12526TIP3   OH258992   2.748   6.223  16.067  0.4272 -0.3272  0.3914
12526TIP3    H158993   2.673   6.203  16.010  0.7694 -0.0085 -0.1809
12526TIP3    H258994   2.768   6.141  16.111  0.4984 -0.7198 -0.3578
12527TIP3   OH258995   1.419   5.188   2.326 -0.3702  0.2604  0.3321
12527TIP3    H158996   1.405   5.249   2.253 -3.2797 -0.1880  0.4348
12527TIP3    H258997   1.484   5.233   2.382  0.5151  1.4496 -1.5301
12528TIP3   OH258998   5.224   6.534  11.668 -0.5005  0.5436 -0.1955
12528TIP3    H158999   5.311   6.501  11.689 -0.6300  1.3043  1.8134
12528TIP3    H259000   5.218   6.618  11.713 -3.0321 -0.5178  1.7527
12529TIP3   OH259001   2.055   6.436   6.398  0.0562 -0.0470 -0.0937
12529TIP3    H159002   1.983   6.499   6.391  0.4944  0.4636 -0.0483
12529TIP3    H259003   2.128   6.486   6.433  0.1937 -0.7649  0.6763
12530TIP3   OH259004   6.324   2.412   4.501  0.5157 -0.0585 -0.1018
12530TIP3    H159005   6.419   2.405   4.496  0.7794  2.7686 -0.4545
12530TIP3    H259006   6.307   2.435   4.593  0.3668  1.2714 -0.4463
12531TIP3   OH259007   3.286   1.357   2.026  0.1765  0.0883 -0.7692
12531TIP3    H159008   3.246   1.356   1.939  0.5172  0.5349 -0.9371
12531TIP3    H259009   3.309   1.449   2.040  0.7294 -0.0896 -0.4891
12532TIP3   OH259010   2.243   3.005  11.784  0.0674 -0.4990 -0.1892
12532TIP3    H159011   2.311   2.967  11.728  1.0188  1.4720 -0.4902
12532TIP3    H259012   2.168   2.946  11.776  0.8543 -1.3217 -1.9720
12533TIP3   OH259013   5.776   3.936   0.537 -0.1033 -0.1054 -0.5471
12533TIP3    H159014   5.832   3.859   0.528  1.1277  0.7620 -0.5071
12533TIP3    H259015   5.776   3.976   0.449 -0.4704  0.0351 -0.4865
12534TIP3   OH259016   4.550   4.103   1.352 -0.0133  0.0644 -0.2891
12534TIP3    H159017   4.466   4.140   1.378  1.0742  0.5742  2.9541
12534TIP3    H259018   4.615   4.160   1.392  1.9881 -0.0773 -3.0407
12535TIP3   OH259019   3.493   1.342  11.521  0.6479  0.3474 -0.5697
12535TIP3    H159020   3.428   1.412  11.535  0.9498  0.7225 -1.0170
12535TIP3    H259021   3.488   1.324  11.427 -0.6764 -1.4720 -0.2149
12536TIP3   OH259022   4.371   6.538   1.105 -0.1215  0.4278  0.0211
12536TIP3    H159023   4.442   6.534   1.169 -0.7758 -0.5542  0.7078
12536TIP3    H259024   4.409   6.505   1.024  0.6150  1.3497 -0.0254
12537TIP3   OH259025   0.575   1.356  12.769 -0.1241  0.1602  0.3265
12537TIP3    H159026   0.633   1.287  12.736  0.1004 -0.0866  1.2183
12537TIP3    H259027   0.492   1.342  12.722  0.6933  0.9144 -1.4463
12538TIP3   OH259028   4.170   5.143   4.800  0.0184 -0.6122  0.1222
12538TIP3    H159029   4.235   5.207   4.771 -0.4162  0.5320  1.5664
12538TIP3    H259030   4.212   5.099   4.874 -0.2076 -1.0683 -0.0196
12539TIP3   OH259031   4.707   0.192   0.401  0.0454  0.0528 -0.4831
12539TIP3    H159032   4.775   0.135   0.437  1.6034  1.0627 -1.7388
12539TIP3    H259033   4.627   0.165   0.447  1.2078 -1.3777  0.8015
12540TIP3   OH259034   4.187   3.270   5.855 -0.0959  0.0212  0.3190
12540TIP3    H159035   4.109   3.309   5.895  0.0685  0.3941  0.2718
12540TIP3    H259036   4.209   3.197   5.913  0.9609  1.3808  1.7024
12541TIP3   OH259037   1.969   6.371  16.931  0.2904 -0.3259 -0.0018
12541TIP3    H159038   1.886   6.417  16.921  0.6876 -0.0044 -2.6240
12541TIP3    H259039   1.983   6.365  17.026 -2.1784  0.5328  0.4720
12542TIP3   OH259040   1.713   0.002   5.026 -0.6406  0.2866  0.5933
12542TIP3    H159041   1.793  -0.009   4.975 -1.0379 -1.5208  0.2787
12542TIP3    H259042   1.658   0.059   4.972  0.6124  2.0310  1.0794
12543TIP3   OH259043   2.457   1.285   0.639 -0.0908  0.0016  0.4179
12543TIP3    H159044   2.530   1.346   0.625  0.9270 -1.0158  1.0488
12543TIP3    H259045   2.464   1.262   0.732 -1.4827  0.1857  0.5818
12544TIP3   OH259046   2.612   3.011  16.576  0.4494 -0.4307  0.1622
12544TIP3    H159047   2.605   3.008  16.672  1.0631  0.1587  0.2354
12544TIP3    H259048   2.704   3.033  16.560  0.6194 -1.5885 -0.5909
12545TIP3   OH259049   4.448   4.412   3.637  0.5131 -0.2553 -0.3962
12545TIP3    H159050   4.442   4.471   3.561 -1.2505  0.5071  0.2875
12545TIP3    H259051   4.391   4.339   3.614 -0.1446  0.0511  0.2430
12546TIP3   OH259052   6.189   2.965  15.258  0.0927 -0.3901 -0.1889
12546TIP3    H159053   6.279   2.953  15.228  0.5036  1.2185  0.2529
12546TIP3    H259054   6.195   3.037  15.321 -1.4847 -0.3731 -0.0224
12547TIP3   OH259055   4.917   6.280   5.418  0.7066  0.1451 -0.6169
12547TIP3    H159056   5.011   6.290   5.429  0.8247  0.3317 -1.6920
12547TIP3    H259057   4.881   6.368   5.425  0.5572  0.0325  0.1599
12548TIP3   OH259058   2.532   2.397   0.868  0.2691 -0.3860  0.1568
12548TIP3    H159059   2.516   2.475   0.815  0.4458 -0.4874 -0.0452
12548TIP3    H259060   2.582   2.429   0.943 -1.2839  0.0220  1.0477
12549TIP3   OH259061   5.028   5.634   4.629  0.3330 -0.6860 -0.1744
12549TIP3    H159062   4.983   5.612   4.710  0.7306  1.2621  0.6127
12549TIP3    H259063   5.050   5.726   4.637  0.6393 -0.5039 -2.3927
12550TIP3   OH259064   0.210   3.272   2.589 -0.2191 -0.4338 -0.3760
12550TIP3    H159065   0.175   3.290   2.502  3.1020 -1.7167 -2.1847
12550TIP3    H259066   0.225   3.359   2.627 -2.4392  0.1362 -0.6849
12551TIP3   OH259067   6.653   4.510   1.129 -0.5675 -0.4281 -0.4825
12551TIP3    H159068   6.558   4.501   1.132 -0.5383 -0.6462 -0.1345
12551TIP3    H259069   6.669   4.604   1.137 -0.8326 -0.1423 -2.7431
12552TIP3   OH259070   0.740   1.344  10.981 -0.2092 -0.3896  0.1116
12552TIP3    H159071   0.822   1.393  10.969 -0.8114  0.6583  0.1593
12552TIP3    H259072   0.695   1.353  10.896  0.0257 -1.5554 -0.1507
12553TIP3   OH259073   1.483   1.194   0.634 -0.0354 -0.3499 -0.4133
12553TIP3    H159074   1.475   1.249   0.556  1.4414  0.3200 -0.1150
12553TIP3    H259075   1.445   1.110   0.608 -0.3701  0.1337 -1.5569
12554TIP3   OH259076   6.036   1.691  17.104  0.0216  0.7462 -0.1999
12554TIP3    H159077   6.059   1.697  17.196  1.4264  1.0127 -0.5455
12554TIP3    H259078   6.092   1.755  17.060  0.6269 -0.5493 -1.4304
12555TIP3   OH259079   0.810   2.740  14.578 -0.3560 -0.1442 -0.2346
12555TIP3    H159080   0.855   2.658  14.558 -0.4153 -0.0688 -0.6857
12555TIP3    H259081   0.832   2.798  14.504 -0.1789  0.3005  0.1618
12556TIP3   OH259082   5.851   3.965   4.329 -0.1557  0.2587  0.3837
12556TIP3    H159083   5.859   3.988   4.237 -1.7519 -0.8710 -0.0830
12556TIP3    H259084   5.799   4.036   4.367 -0.0507  0.4016  0.2593
12557TIP3   OH259085   0.022   6.588   1.025 -0.1221 -0.2593  0.6963
12557TIP3    H159086  -0.035   6.565   0.952  1.0934  0.9820 -0.7252
12557TIP3    H259087   0.067   6.507   1.048 -1.2720 -0.8898  0.7827
12558TIP3   OH259088   2.403   3.147   4.165  0.2108 -0.6119 -0.1210
12558TIP3    H159089   2.440   3.066   4.201  1.3375 -0.2817 -0.4824
12558TIP3    H259090   2.360   3.119   4.084 -0.0869 -0.9633  0.1563
12559TIP3   OH259091   3.797   1.611   3.904 -0.0501 -0.2969 -0.1462
12559TIP3    H159092   3.765   1.601   3.815 -1.0504 -0.2622  0.1904
12559TIP3    H259093   3.730   1.665   3.947  0.3368 -0.4468  0.6664
12560TIP3   OH259094   1.116   3.374  15.181  0.0210  0.7274  0.6384
12560TIP3    H159095   1.049   3.325  15.133  0.5143 -0.3878  1.0527
12560TIP3    H259096   1.187   3.386  15.118  0.2028  0.2518  0.7484
12561TIP3   OH259097   3.537   6.272   0.843  0.5713  0.4315 -0.0590
12561TIP3    H159098   3.610   6.222   0.881  0.2824  1.2532  1.6383
12561TIP3    H259099   3.464   6.211   0.842  1.2328 -0.4202 -1.8264
12562TIP3   OH259100   5.528   4.005  15.621 -0.7290 -0.1917  0.9593
12562TIP3    H159101   5.618   3.994  15.591 -0.4653  3.6115 -0.1873
12562TIP3    H259102   5.477   3.945  15.566  0.7868 -0.0891 -0.6697
12563TIP3   OH259103   3.520   1.952   2.461 -0.2928 -0.6195 -0.2810
12563TIP3    H159104   3.472   1.981   2.384  1.2091 -0.4526 -1.1951
12563TIP3    H259105   3.600   2.005   2.461 -1.0035  0.6371  2.3870
12564TIP3   OH259106   6.703   1.234   5.160  0.5099 -0.5173 -0.0865
12564TIP3    H159107   6.689   1.320   5.122 -1.6304 -0.9446 -0.3922
12564TIP3    H259108   6.688   1.247   5.254 -0.3822 -0.6273 -0.1996
12565TIP3   OH259109   4.555   1.266   1.433  0.4570 -0.2506 -0.0126
12565TIP3    H159110   4.482   1.273   1.372  0.1917 -1.1677  0.1949
12565TIP3    H259111   4.514   1.257   1.519  0.8199  1.3494  0.3775
12566TIP3   OH259112   4.288   6.171  15.041 -0.3862 -0.3937 -0.1573
12566TIP3    H159113   4.205   6.143  15.002 -0.0477 -1.6463 -0.0295
12566TIP3    H259114   4.347   6.183  14.967 -0.4303 -0.3919 -0.1917
12567TIP3   OH259115   5.283   6.410   1.125  0.8230  0.3905  0.0184
12567TIP3    H159116   5.253   6.499   1.105  0.5969  0.3266  0.0653
12567TIP3    H259117   5.270   6.362   1.043  1.0426  0.4261 -0.0369
12568TIP3   OH259118   5.086   5.425  12.894 -0.7498 -0.1327  0.4200
12568TIP3    H159119   5.095   5.520  12.907  0.5872 -0.3854  1.6599
12568TIP3    H259120   5.077   5.414  12.800 -0.9007  1.2292  0.2558
12569TIP3   OH259121   2.365   1.084   0.483 -0.1511  0.3692 -0.1747
12569TIP3    H159122   2.279   1.059   0.518  0.4966  0.2274  1.3877
12569TIP3    H259123   2.395   1.153   0.541  1.1741 -0.1882 -0.1653
12570TIP3   OH259124   3.690   6.250  16.321  0.1725  0.9127  0.3913
12570TIP3    H159125   3.722   6.203  16.397 -0.1842  0.2978  0.1671
12570TIP3    H259126   3.595   6.255  16.334  0.1271  0.9362  0.0583
12571TIP3   OH259127   6.531   0.113  14.761 -0.3403 -0.0582  0.0460
12571TIP3    H159128   6.622   0.121  14.789  0.8959 -3.0577 -2.4567
12571TIP3    H259129   6.529   0.152  14.673 -1.4584 -0.0809  0.0475
12572TIP3   OH259130   4.162   5.601  13.459 -0.1572 -0.0666 -0.3676
12572TIP3    H159131   4.088   5.557  13.501 -0.1727  0.4924  0.1942
12572TIP3    H259132   4.234   5.592  13.521  0.4966 -1.3098 -1.2478
12573TIP3   OH259133   0.276   2.706   5.102 -0.0677  0.3632 -0.0225
12573TIP3    H159134   0.214   2.730   5.033  0.5752 -0.7959 -1.0462
12573TIP3    H259135   0.232   2.637   5.150  0.2195 -0.1368 -0.4620
12574TIP3   OH259136   0.404   3.252  12.692 -0.5120  0.4858 -0.3062
12574TIP3    H159137   0.371   3.206  12.615  0.9654 -0.3727 -0.4769
12574TIP3    H259138   0.481   3.299  12.661  0.0726  0.1710  0.6083
12575TIP3   OH259139   0.877   1.353  13.963  0.0603 -0.1705 -0.1409
12575TIP3    H159140   0.952   1.370  14.020  0.2777 -2.2822  0.2957
12575TIP3    H259141   0.804   1.401  14.004  1.0122  1.3829 -0.2145
12576TIP3   OH259142   2.148   4.326  14.173 -0.1279 -0.5266 -0.1801
12576TIP3    H159143   2.134   4.420  14.165 -1.7912 -0.7625 -0.3531
12576TIP3    H259144   2.189   4.300  14.090 -0.0202 -0.0174 -0.2852
12577TIP3   OH259145   0.860   2.201  15.699  0.8810 -0.3194 -0.5086
12577TIP3    H159146   0.869   2.174  15.790  0.2191  0.5479 -0.1718
12577TIP3    H259147   0.850   2.118  15.651 -0.0781 -0.7369  0.3669
12578TIP3   OH259148   0.109   4.707   4.575 -0.2922 -0.7392  0.2506
12578TIP3    H159149   0.140   4.616   4.573 -1.0296 -1.0609  2.0997
12578TIP3    H259150   0.181   4.756   4.615 -0.1405 -0.5946 -0.1887
12579TIP3   OH259151   4.485   6.070   5.719  0.6652  0.5657  0.3169
12579TIP3    H159152   4.520   6.036   5.801  1.5676  0.4599 -0.0934
12579TIP3    H259153   4.549   6.042   5.653  0.2075  1.0681 -0.3511
12580TIP3   OH259154   5.087   0.527  17.167 -0.3746  0.2306  0.4251
12580TIP3    H159155   5.133   0.507  17.249  1.1654  0.5236 -0.3246
12580TIP3    H259156   5.115   0.615  17.144 -2.1455  0.8281  0.4379
12581TIP3   OH259157   4.579   1.429  15.061  0.0104  0.3521 -0.0969
12581TIP3    H159158   4.545   1.514  15.090  1.6184  1.1113 -0.3159
12581TIP3    H259159   4.550   1.367  15.128 -0.4066  1.2372  0.5607
12582TIP3   OH259160   3.460   0.323   2.824 -0.0315 -0.3112 -0.2761
12582TIP3    H159161   3.462   0.228   2.810 -1.1388 -0.5075  0.7577
12582TIP3    H259162   3.546   0.353   2.794  1.3203 -1.9853  1.6509
12583TIP3   OH259163   5.788   0.556  11.367  0.1092 -0.3740 -0.2232
12583TIP3    H159164   5.807   0.649  11.357  0.3458 -0.2786  0.9090
12583TIP3    H259165   5.782   0.522  11.278 -2.3982  1.1853 -0.7408
12584TIP3   OH259166   4.522   0.042  12.952 -0.0161 -0.1803  0.1676
12584TIP3    H159167   4.501   0.046  13.045 -1.4177 -0.9060 -0.0985
12584TIP3    H259168   4.442   0.010  12.910  1.0620 -1.3319 -1.1085
12585TIP3   OH259169   2.973   2.266   5.411 -0.2855  0.3492  0.2005
12585TIP3    H159170   2.895   2.320   5.402  0.4852  1.4675  0.1344
12585TIP3    H259171   3.012   2.266   5.323  0.7081  1.2171  0.6314
12586TIP3   OH259172   1.151   4.915   4.490  0.3579  0.0802  0.0634
12586TIP3    H159173   1.135   4.841   4.431 -0.9573  0.8508 -0.5765
12586TIP3    H259174   1.203   4.976   4.438  2.0734 -0.6633  0.8275
12587TIP3   OH259175   3.761   0.022   3.295  0.4947 -0.0336  0.0778
12587TIP3    H159176   3.680   0.019   3.245  0.7633  1.4034 -0.5049
12587TIP3    H259177   3.771   0.114   3.320  0.9709 -0.5148  1.8025
12588TIP3   OH259178   1.776   5.674   0.711 -0.0231  0.2043 -0.6330
12588TIP3    H159179   1.748   5.745   0.768 -0.3607  1.1566 -1.9259
12588TIP3    H259180   1.752   5.594   0.757 -2.1849  0.9511 -0.3518
12589TIP3   OH259181   6.583   0.804  11.687 -0.0546  0.3130 -0.1037
12589TIP3    H159182   6.524   0.729  11.677 -1.2646  1.0064  1.4201
12589TIP3    H259183   6.604   0.830  11.598 -1.0592 -0.7426 -0.6785
12590TIP3   OH259184   5.654   0.840   5.795  0.2947  0.3358 -0.0956
12590TIP3    H159185   5.636   0.883   5.878 -1.5969 -0.8613  0.1646
12590TIP3    H259186   5.616   0.898   5.729  0.4470  0.5444 -0.0006
12591TIP3   OH259187   6.458   5.164   0.954 -0.2613 -0.1617 -0.1709
12591TIP3    H159188   6.474   5.099   0.886 -1.6266  0.7328 -1.4044
12591TIP3    H259189   6.525   5.231   0.940  0.5513 -0.8045  0.5068
12592TIP3   OH259190   5.189   6.048  12.921  0.1663 -0.2895  0.2320
12592TIP3    H159191   5.146   6.104  12.985  2.1858  2.3488 -0.5735
12592TIP3    H259192   5.182   6.096  12.838 -0.2324 -2.4679 -1.0825
12593TIP3   OH259193   3.536   5.126   5.335  0.5878  0.2348 -0.1340
12593TIP3    H159194   3.538   5.042   5.381  0.8563  0.0447 -0.4896
12593TIP3    H259195   3.536   5.103   5.242  4.2806  0.6448 -0.3771
12594TIP3   OH259196   2.699   2.309  10.828 -0.2141  0.0300  0.5557
12594TIP3    H159197   2.750   2.379  10.787 -0.0666 -0.2503  0.2623
12594TIP3    H259198   2.633   2.285  10.763 -0.9646  0.6385  1.0657
12595TIP3   OH259199   2.201   0.018   1.692 -0.0020 -0.2015 -0.2159
12595TIP3    H159200   2.129   0.070   1.727  0.5655 -0.0263  0.7199
12595TIP3    H259201   2.221   0.059   1.607 -0.3117  0.3861 -0.0107
12596TIP3   OH259202   3.789   6.410  11.481 -0.2272 -0.3336 -0.4301
12596TIP3    H159203   3.841   6.356  11.541 -1.8453 -1.3342  0.1372
12596TIP3    H259204   3.761   6.349  11.412 -1.1871  0.0209 -0.3639
12597TIP3   OH259205   6.654   5.976   6.490  0.1385  0.3759 -0.0198
12597TIP3    H159206   6.726   5.996   6.431  0.0088  0.0053 -0.3037
12597TIP3    H259207   6.621   5.891   6.461  1.4235 -0.8549  1.8704
12598TIP3   OH259208   1.318   3.540   2.769 -0.6004  0.0510 -0.1649
12598TIP3    H159209   1.290   3.615   2.717  1.5907  0.3317 -1.0181
12598TIP3    H259210   1.410   3.528   2.747  0.0293 -0.7396  2.5635
12599TIP3   OH259211   5.512   5.997   2.108 -0.0345  0.3625 -0.8344
12599TIP3    H159212   5.548   5.952   2.032  0.0989 -0.4636 -0.2961
12599TIP3    H259213   5.465   5.929   2.156 -0.4179  0.9519 -0.3656
12600TIP3   OH259214   0.752   1.058  14.743  0.0707  0.4395 -0.0960
12600TIP3    H159215   0.775   0.967  14.723 -0.8793 -0.8837  3.8559
12600TIP3    H259216   0.662   1.068  14.710  0.2519  0.0303 -0.7249
12601TIP3   OH259217   2.283   5.656  14.839  0.2998  0.4088 -0.9473
12601TIP3    H159218   2.351   5.713  14.876 -0.6398  0.7907  0.2560
12601TIP3    H259219   2.257   5.599  14.912  1.0177 -1.4335 -2.0352
12602TIP3   OH259220   5.793   5.080   0.939 -0.5002 -0.2324  0.4167
12602TIP3    H159221   5.781   5.029   1.019 -1.7453 -0.6397 -0.0037
12602TIP3    H259222   5.763   5.022   0.868 -3.0003  1.3656  0.0103
12603TIP3   OH259223   3.269   3.356  16.022  0.1005  0.1177  0.2283
12603TIP3    H159224   3.184   3.333  16.061 -0.2125  1.5170  0.4296
12603TIP3    H259225   3.257   3.446  15.990  0.8684 -0.3847 -1.6151
12604TIP3   OH259226   0.381   0.987  13.243 -0.3121  0.3197 -0.3185
12604TIP3    H159227   0.461   1.037  13.261 -0.5428  0.4702  0.3153
12604TIP3    H259228   0.413   0.908  13.200  0.2096  0.2858  0.1073
12605TIP3   OH259229   2.479   2.405  14.083  0.5183 -0.4399  0.1154
12605TIP3    H159230   2.550   2.403  14.019  0.1238  1.2636 -0.4304
12605TIP3    H259231   2.470   2.498  14.106  0.6041 -0.9799  2.6111
12606TIP3   OH259232   6.443   4.428  12.203 -0.7629 -0.1282 -0.1352
12606TIP3    H159233   6.403   4.387  12.280 -1.4905  0.1771 -0.3419
12606TIP3    H259234   6.385   4.501  12.182 -1.5662 -1.2035 -1.9917
12607TIP3   OH259235   0.989   6.637  13.151 -0.0676 -0.5656 -0.1990
12607TIP3    H159236   0.973   6.657  13.059 -0.0777 -2.8733 -0.7592
12607TIP3    H259237   1.081   6.658  13.165  0.2362 -1.2476 -1.0740
12608TIP3   OH259238   6.159   5.120  11.133 -0.3888  0.1517 -0.8260
12608TIP3    H159239   6.091   5.185  11.114 -0.1092  0.6353 -0.2095
12608TIP3    H259240   6.221   5.129  11.061  1.3336  2.8763  0.8210
12609TIP3   OH259241   5.171   0.656   4.986  0.0788  0.0723  0.0315
12609TIP3    H159242   5.213   0.724   4.934 -1.5078  0.2427 -1.1285
12609TIP3    H259243   5.161   0.694   5.073  0.0192  0.9903 -0.3659
12610TIP3   OH259244   3.796   1.584  14.782  0.0307 -0.2169 -0.3249
12610TIP3    H159245   3.756   1.497  14.784  2.3888 -1.3781  0.2346
12610TIP3    H259246   3.785   1.617  14.871  1.0308 -0.9194  0.0792
12611TIP3   OH259247   6.655   1.716   3.409  0.0053  0.4574 -0.3847
12611TIP3    H159248   6.606   1.796   3.427 -1.0213 -0.2047 -0.1396
12611TIP3    H259249   6.598   1.646   3.440  1.4170 -0.3171  0.5373
12612TIP3   OH259250   4.244   2.297  12.470 -0.5755 -0.0143  0.6133
12612TIP3    H159251   4.189   2.270  12.397  0.4903  0.0833 -0.2454
12612TIP3    H259252   4.321   2.241  12.465 -0.7721 -0.4719  2.0857
12613TIP3   OH259253   4.936   5.477   2.056  0.5252 -0.2529  0.3881
12613TIP3    H159254   4.964   5.428   2.133  0.5420 -1.2755 -0.2543
12613TIP3    H259255   4.840   5.479   2.062  0.4510 -1.3356 -0.1392
12614TIP3   OH259256   6.286   3.184  14.581 -0.0413 -0.1688 -0.4764
12614TIP3    H159257   6.320   3.154  14.665  0.4142  0.2544 -0.5053
12614TIP3    H259258   6.340   3.261  14.559 -0.5746  0.1079 -0.8455
12615TIP3   OH259259   2.449   0.590  15.983  0.1089  1.0587  0.0840
12615TIP3    H159260   2.503   0.514  15.964 -1.6453  0.1712 -1.7614
12615TIP3    H259261   2.482   0.623  16.067  1.3112 -1.3472  0.6414
12616TIP3   OH259262   4.846   0.728   2.597 -0.1218  0.1936 -0.6912
12616TIP3    H159263   4.850   0.817   2.631  1.6413  0.9820 -2.7567
12616TIP3    H259264   4.936   0.696   2.601 -0.2072 -0.4344 -2.5579
12617TIP3   OH259265   3.657   6.754   4.581 -1.0072 -0.2792  0.0385
12617TIP3    H159266   3.702   6.674   4.610  0.5175  0.4707 -0.1798
12617TIP3    H259267   3.574   6.753   4.629 -1.1121 -2.0786 -0.0826
12618TIP3   OH259268   2.587   4.722  17.149  0.5886  0.2771 -0.1554
12618TIP3    H159269   2.626   4.716  17.236 -0.8785  0.5221  0.5645
12618TIP3    H259270   2.517   4.656  17.150  0.5687  0.2762 -1.1468
12619TIP3   OH259271   2.998   5.757  13.160  0.2298  0.2758 -0.7621
12619TIP3    H159272   2.903   5.762  13.174  0.4879  0.5511  1.2313
12619TIP3    H259273   3.012   5.793  13.073 -1.4784  0.5121 -0.9636
12620TIP3   OH259274   2.691   4.462  13.868 -0.1894 -0.2760  0.1758
12620TIP3    H159275   2.706   4.457  13.963 -0.4742 -1.3043  0.1744
12620TIP3    H259276   2.724   4.548  13.844  1.0284 -0.4834  1.0043
12621TIP3   OH259277   5.939   4.102  12.984 -0.7181  0.5650 -0.4363
12621TIP3    H159278   5.989   4.021  12.993 -1.4128  0.0048 -1.3322
12621TIP3    H259279   5.981   4.164  13.044  1.9941  0.6060 -2.1942
12622TIP3   OH259280   5.818   2.911   4.024 -0.0955  0.4873 -0.2560
12622TIP3    H159281   5.880   2.942   4.090 -0.7501  1.1937  0.0422
12622TIP3    H259282   5.873   2.887   3.949  0.5289  1.2144 -0.0430
12623TIP3   OH259283   2.885   3.046   1.264  1.1946  0.1009  0.7845
12623TIP3    H159284   2.793   3.067   1.250  1.4882 -0.0397 -1.8713
12623TIP3    H259285   2.898   3.056   1.359 -1.1584  1.5645  1.0329
12624TIP3   OH259286   4.150   5.179  11.859 -0.0241 -0.0965 -0.4888
12624TIP3    H159287   4.141   5.141  11.772  1.7390 -3.4895  0.6581
12624TIP3    H259288   4.140   5.106  11.919  1.7262  1.5731  2.0420
12625TIP3   OH259289   2.948   0.667   5.512  0.3474 -0.1483  0.2470
12625TIP3    H159290   2.953   0.611   5.434 -2.0984 -1.7679  1.1699
12625TIP3    H259291   3.004   0.624   5.576  0.3987 -0.1667  0.1903
12626TIP3   OH259292   0.811   3.156   6.095  0.1495 -0.3285 -0.6280
12626TIP3    H159293   0.878   3.193   6.153 -2.4082  1.0282  1.6758
12626TIP3    H259294   0.780   3.078   6.140  0.6367 -1.3938 -2.0608
12627TIP3   OH259295   5.362   0.481   3.386 -0.4813  0.4791 -0.1466
12627TIP3    H159296   5.401   0.416   3.327 -0.9340 -1.8697  1.9458
12627TIP3    H259297   5.372   0.564   3.341  1.2359 -0.8751 -2.4695
12628TIP3   OH259298   1.621   0.377   3.413  0.3282 -0.2353 -0.3888
12628TIP3    H159299   1.628   0.462   3.367  0.3071 -1.4897 -2.9094
12628TIP3    H259300   1.711   0.343   3.412  0.3310 -0.2637  0.5978
12629TIP3   OH259301   2.120   4.276   3.362 -0.1320 -0.0641  0.6914
12629TIP3    H159302   2.124   4.324   3.279 -0.5337 -1.9670 -0.4921
12629TIP3    H259303   2.163   4.333   3.425 -0.6648  1.8596 -0.6074
12630TIP3   OH259304   5.698   2.600   5.141  0.5068 -0.3852 -0.0476
12630TIP3    H159305   5.787   2.633   5.151  1.5314 -2.9793  0.3349
12630TIP3    H259306   5.646   2.652   5.201  1.9569  0.5408  0.4566
12631TIP3   OH259307   0.208   2.356  15.376 -0.7881  0.3019 -0.2456
12631TIP3    H159308   0.195   2.397  15.462 -2.0747  2.8734 -1.5364
12631TIP3    H259309   0.251   2.273  15.395 -0.5568  1.0053  2.8284
12632TIP3   OH259310   5.805   4.958  14.707 -0.1219 -0.1329 -0.0367
12632TIP3    H159311   5.862   4.882  14.720 -0.7599 -0.6666 -0.2820
12632TIP3    H259312   5.756   4.938  14.628  2.7462  2.4567 -2.7357
12633TIP3   OH259313   2.844   6.453  12.683  0.0720 -0.2768 -0.1123
12633TIP3    H159314   2.769   6.396  12.664 -2.1310  2.1205  0.6738
12633TIP3    H259315   2.887   6.412  12.758 -0.0334 -2.0586 -0.9904
12634TIP3   OH259316   3.373   6.717   2.645  0.0720  0.3031 -0.1934
12634TIP3    H159317   3.309   6.774   2.602 -1.3176 -1.9683 -1.3036
12634TIP3    H259318   3.371   6.636   2.595  2.4847 -0.5343  0.9006
12635TIP3   OH259319   3.965   4.032   2.259  0.0992  0.5366  0.2212
12635TIP3    H159320   3.953   4.121   2.225 -1.2827  0.1895 -0.2600
12635TIP3    H259321   3.935   3.975   2.188 -0.9409 -0.2537  1.2499
12636TIP3   OH259322   4.490   1.328  14.806 -0.0669  0.6985 -0.8229
12636TIP3    H159323   4.484   1.308  14.899 -0.3748 -0.8251 -1.1461
12636TIP3    H259324   4.466   1.421  14.799 -0.1571  0.7944  0.5789
12637TIP3   OH259325   0.085   1.243   6.355  0.4541 -0.4977  0.2955
12637TIP3    H159326   0.118   1.326   6.388  1.3053 -0.9899  0.7197
12637TIP3    H259327   0.145   1.220   6.283 -0.1234 -0.4656 -0.2113
12638TIP3   OH259328   6.199   0.358  16.495 -0.0537 -0.3206 -0.4379
12638TIP3    H159329   6.172   0.443  16.529  1.0472 -0.1968  0.1705
12638TIP3    H259330   6.118   0.307  16.490 -0.6143  0.5281 -0.1210
12639TIP3   OH259331   0.518   4.962  13.629  0.5236  0.4502 -0.2957
12639TIP3    H159332   0.481   4.954  13.716  0.7339 -0.6292 -0.3003
12639TIP3    H259333   0.585   5.030  13.638  1.8641 -0.9570  0.8616
12640TIP3   OH259334   4.862   0.406  11.742  0.4822 -0.0261  0.1137
12640TIP3    H159335   4.835   0.398  11.833 -1.8232 -0.3951 -0.5516
12640TIP3    H259336   4.948   0.364  11.739 -0.1403 -1.5431  1.7874
12641TIP3   OH259337   2.402   5.457   2.710  0.1345 -0.5096  0.1400
12641TIP3    H159338   2.344   5.500   2.773  0.5676  0.3793 -0.0450
12641TIP3    H259339   2.454   5.529   2.674  1.7505 -1.3388  0.7127
12642TIP3   OH259340   3.524   4.525   4.701 -0.7351  0.1079 -0.0451
12642TIP3    H159341   3.597   4.483   4.747 -1.4064  1.1744  2.1207
12642TIP3    H259342   3.521   4.481   4.616  0.8821 -1.6230  0.7175
12643TIP3   OH259343   2.633   4.868   3.379 -0.4733  0.1079 -0.3525
12643TIP3    H159344   2.633   4.963   3.392  2.3426  0.1112  0.3807
12643TIP3    H259345   2.662   4.832   3.463 -1.6451 -1.4549 -0.5629
12644TIP3   OH259346   0.550   1.171   4.298 -0.0337 -0.3192 -0.1282
12644TIP3    H159347   0.603   1.150   4.375  1.6538  1.9341 -0.5520
12644TIP3    H259348   0.460   1.171   4.331  0.2630 -2.9688  0.9249
12645TIP3   OH259349   4.924   1.943  12.185 -0.3361  0.0166  0.0868
12645TIP3    H159350   4.867   1.870  12.162  0.3560 -0.4578 -0.1423
12645TIP3    H259351   4.992   1.904  12.240  0.2138  0.4254 -0.2959
12646TIP3   OH259352   0.564   2.248   0.029  0.0405  0.5658 -0.5241
12646TIP3    H159353   0.617   2.275  -0.046 -0.2623  0.4676 -0.7749
12646TIP3    H259354   0.611   2.172   0.066  0.1017  0.5117 -0.7140
12647TIP3   OH259355   6.609   1.378  15.061  1.0008 -0.0143 -0.1706
12647TIP3    H159356   6.591   1.432  14.984  2.3721 -0.1222 -0.5932
12647TIP3    H259357   6.616   1.441  15.133  1.1660  0.2263 -0.3951
12648TIP3   OH259358   5.113   2.510  16.389  1.0059  0.3575  0.1227
12648TIP3    H159359   5.163   2.449  16.334 -0.5044 -0.7103 -0.1236
12648TIP3    H259360   5.044   2.544  16.331  0.0181  0.0101  1.0608
12649TIP3   OH259361   3.376   1.689  10.963  0.4822 -0.0730 -0.8941
12649TIP3    H159362   3.334   1.644  10.890  1.4106  0.6557 -1.9080
12649TIP3    H259363   3.367   1.628  11.037 -0.0739 -1.0255 -1.7189
12650TIP3   OH259364   6.218   0.770   2.481  0.6053  0.1987 -0.2720
12650TIP3    H159365   6.240   0.860   2.454  0.5703 -0.0199 -1.0631
12650TIP3    H259366   6.200   0.725   2.399  0.4767 -0.5002  0.1357
12651TIP3   OH259367   3.649   6.050  12.706  0.2254  0.5010  0.2020
12651TIP3    H159368   3.712   6.022  12.640 -0.6574  1.0577 -0.9199
12651TIP3    H259369   3.689   6.027  12.790  1.5055  0.0502 -0.5146
12652TIP3   OH259370   1.338   1.116  17.392  0.2206 -0.1496  0.5802
12652TIP3    H159371   1.414   1.162  17.355 -0.2119  0.6429  0.6584
12652TIP3    H259372   1.363   1.023  17.389  1.1952  0.0939  0.6037
12653TIP3   OH259373   0.738   6.629   4.580 -0.1691  0.1593  0.1153
12653TIP3    H159374   0.772   6.712   4.613  2.0171 -0.4190 -0.5522
12653TIP3    H259375   0.813   6.569   4.582 -1.5959 -1.7350  0.2631
12654TIP3   OH259376   6.019   0.841   6.332 -0.0646 -0.0311  0.2046
12654TIP3    H159377   5.933   0.834   6.374 -0.1752  0.7215  0.1299
12654TIP3    H259378   6.077   0.788   6.387 -0.6362 -0.8187  0.0669
12655TIP3   OH259379   6.680   5.693   6.816 -0.5263  0.1053  0.1796
12655TIP3    H159380   6.627   5.761   6.856 -0.3168  0.9451 -0.9274
12655TIP3    H259381   6.620   5.649   6.755 -1.0876 -1.7280  1.9625
12656TIP3   OH259382   2.537   2.770  16.465 -0.6173 -0.8270 -0.4238
12656TIP3    H159383   2.597   2.801  16.397  1.3061 -2.7556  0.2611
12656TIP3    H259384   2.535   2.841  16.529  0.1789 -0.3199 -0.9290
12657TIP3   OH259385   4.157   6.485   2.182 -0.2401  0.1865  0.4163
12657TIP3    H159386   4.169   6.430   2.259  1.0010 -0.8327 -0.4740
12657TIP3    H259387   4.112   6.563   2.215  0.3652 -0.1774  2.1785
12658TIP3   OH259388   4.225   2.874   0.872 -0.7484 -0.2349  0.2550
12658TIP3    H159389   4.188   2.896   0.958 -0.0253  0.3032  0.4368
12658TIP3    H259390   4.319   2.889   0.882 -0.6312 -0.3745 -0.5723
12659TIP3   OH259391   5.957   0.981   2.396  0.6821 -0.4470  0.1007
12659TIP3    H159392   6.021   0.911   2.402  0.7806 -0.5324 -1.4893
12659TIP3    H259393   5.972   1.020   2.310 -0.3603  0.5596  0.3451
12660TIP3   OH259394   4.937   2.362  12.205 -0.3134 -0.4856  0.1752
12660TIP3    H159395   4.866   2.298  12.211 -1.0366  0.1366 -1.1846
12660TIP3    H259396   4.994   2.327  12.136 -1.5615  1.0502 -1.7372
12661TIP3   OH259397   5.190   3.652  15.353 -0.5394 -0.2975 -0.1155
12661TIP3    H159398   5.151   3.735  15.382 -0.3249  0.1149 -0.9804
12661TIP3    H259399   5.116   3.595  15.336 -0.6979 -0.1886  0.2053
12662TIP3   OH259400   1.103   6.339   2.960 -0.2412 -0.9180  0.0388
12662TIP3    H159401   1.045   6.395   3.012  2.3601  0.4714  1.6377
12662TIP3    H259402   1.049   6.264   2.936 -2.6935  0.3272  1.3195
12663TIP3   OH259403   4.349   3.053  14.043  0.5892 -0.7687 -0.3501
12663TIP3    H159404   4.439   3.074  14.069  1.7836 -2.5309 -2.6417
12663TIP3    H259405   4.346   3.073  13.949 -1.5388 -0.4806 -0.2656
12664TIP3   OH259406   5.367   3.741   5.844 -0.1512  0.5138  0.3937
12664TIP3    H159407   5.339   3.661   5.888  0.9284 -0.7104 -1.0060
12664TIP3    H259408   5.286   3.782   5.815 -0.7399 -1.9914 -2.0178
12665TIP3   OH259409   6.094   1.916   2.894  0.8506 -0.4253  0.3902
12665TIP3    H159410   6.063   1.925   2.804  0.8847 -1.5758  0.2460
12665TIP3    H259411   6.024   1.953   2.948  0.5212 -0.3599 -0.0770
12666TIP3   OH259412   6.217   1.999   2.369 -1.1031  0.0212  0.4715
12666TIP3    H159413   6.154   1.926   2.374  0.0148 -1.0054  0.1061
12666TIP3    H259414   6.187   2.051   2.295 -0.3984 -1.6122 -1.0566
12667TIP3   OH259415   5.732   2.754   3.291  0.4446  0.3559 -0.0906
12667TIP3    H159416   5.725   2.663   3.320  1.5428 -0.1990 -1.4331
12667TIP3    H259417   5.823   2.778   3.311  0.1029  1.2506  0.4517
12668TIP3   OH259418   3.100   3.936  11.835  0.2416 -0.4028 -0.7011
12668TIP3    H159419   3.138   3.883  11.905 -3.1746 -2.5639 -0.2326
12668TIP3    H259420   3.149   3.912  11.757 -0.2461 -3.3586 -0.2216
12669TIP3   OH259421   1.507   4.740  14.712 -0.1821 -0.2528 -0.5371
12669TIP3    H159422   1.442   4.809  14.726  0.5843  1.0730 -3.0861
12669TIP3    H259423   1.529   4.710  14.800 -1.9239  1.4214  0.5435
12670TIP3   OH259424   2.634   1.522  13.876  0.8355 -0.3054 -0.0068
12670TIP3    H159425   2.678   1.450  13.831 -3.3793 -1.6968 -2.5275
12670TIP3    H259426   2.659   1.600  13.828 -0.2525 -1.2190 -2.1865
12671TIP3   OH259427   3.685   3.797   0.928  0.1638 -0.4584 -0.0151
12671TIP3    H159428   3.685   3.823   0.836 -1.7248  0.7944  0.2700
12671TIP3    H259429   3.610   3.737   0.935  0.6792 -1.0487  0.6005
12672TIP3   OH259430   4.491   0.266   4.347  0.0149  0.2289 -0.1258
12672TIP3    H159431   4.513   0.197   4.410  0.4915 -0.1684 -0.7102
12672TIP3    H259432   4.409   0.236   4.307 -0.9889  1.1181  1.2032
12673TIP3   OH259433   4.041   3.883   4.798  0.7933  0.0296  0.0342
12673TIP3    H159434   4.054   3.938   4.876  2.6950 -0.8410  0.3960
12673TIP3    H259435   3.989   3.810   4.829  0.8369  0.1058  0.2917
12674TIP3   OH259436   2.596   3.100   4.857  0.1836  0.2141 -0.3326
12674TIP3    H159437   2.652   3.124   4.931  0.0155  1.2722 -0.5353
12674TIP3    H259438   2.547   3.024   4.888  1.5349 -0.5739 -0.0579
12675TIP3   OH259439   4.793   5.480  13.656 -0.4156 -0.6028 -0.1584
12675TIP3    H159440   4.785   5.402  13.601 -0.3172  0.2203 -1.3942
12675TIP3    H259441   4.787   5.553  13.594  1.0166  0.3503  0.7727
12676TIP3   OH259442   1.574   0.545  16.839  0.1387 -0.6129  0.2531
12676TIP3    H159443   1.660   0.565  16.876  0.6646  1.1948 -1.7682
12676TIP3    H259444   1.593   0.489  16.763 -0.4353 -0.0400 -0.3173
12677TIP3   OH259445   6.346   0.212  12.053 -0.5431 -0.5483  0.2183
12677TIP3    H159446   6.399   0.138  12.024 -0.3038 -0.5076  0.5456
12677TIP3    H259447   6.408   0.269  12.099 -0.2820  0.8654 -1.7750
12678TIP3   OH259448   5.668   1.451   3.730 -0.5232 -0.3207  0.0926
12678TIP3    H159449   5.715   1.392   3.789  0.1326 -1.8115 -1.8048
12678TIP3    H259450   5.727   1.526   3.719 -0.1962 -0.5120  0.5305
12679TIP3   OH259451   3.598   3.037   0.439 -0.1720  0.1621  0.5190
12679TIP3    H159452   3.633   2.969   0.496  0.8852  0.0885 -0.1886
12679TIP3    H259453   3.674   3.072   0.393 -1.0717 -0.7877 -1.9261
12680TIP3   OH259454   5.631   3.139   2.415  0.7539  0.1792  0.5768
12680TIP3    H159455   5.648   3.233   2.420  1.5415  0.0495  0.4661
12680TIP3    H259456   5.717   3.098   2.427  0.5541 -0.5008 -0.2289
12681TIP3   OH259457   2.502   6.399  11.652 -0.0771  0.0281 -0.2619
12681TIP3    H159458   2.566   6.451  11.602 -0.3069 -0.2169 -0.8127
12681TIP3    H259459   2.417   6.436  11.628 -0.4749 -2.0347 -2.4918
12682TIP3   OH259460   5.205   5.466  15.148  0.0317 -0.4343 -0.7595
12682TIP3    H159461   5.222   5.395  15.210 -2.6172 -0.1451  0.4110
12682TIP3    H259462   5.233   5.545  15.195  0.0557 -0.4187 -0.8008
12683TIP3   OH259463   5.160   3.648  14.299  0.1264 -0.3341  0.3106
12683TIP3    H159464   5.178   3.554  14.306 -0.0034 -0.3753  0.0925
12683TIP3    H259465   5.234   3.690  14.343  0.9407 -0.4915 -0.8596
12684TIP3   OH259466   3.345   5.843   3.627  0.3825  0.0267 -0.0505
12684TIP3    H159467   3.358   5.935   3.606 -0.1472 -0.1658 -1.3245
12684TIP3    H259468   3.319   5.842   3.719 -2.7649  1.4641 -0.7997
12685TIP3   OH259469   2.340   0.854  12.193  0.0998  0.2246 -0.7771
12685TIP3    H159470   2.356   0.823  12.103 -0.7209  0.2652 -0.9392
12685TIP3    H259471   2.268   0.799  12.224  0.1815  0.4192 -0.2455
12686TIP3   OH259472   0.639   6.230   3.822  0.2654 -0.0460 -1.0419
12686TIP3    H159473   0.663   6.142   3.850 -1.7861  0.0201  1.1887
12686TIP3    H259474   0.573   6.217   3.755  1.2879 -0.1611 -2.0669
12687TIP3   OH259475   1.593   2.226  16.499 -0.0862  0.5043 -0.1169
12687TIP3    H159476   1.565   2.223  16.408  1.9979  1.6795 -0.8784
12687TIP3    H259477   1.615   2.318  16.514  0.2399  0.2061  1.3594
12688TIP3   OH259478   1.710   6.063  12.726  0.4850  0.4653 -0.1762
12688TIP3    H159479   1.711   6.125  12.654 -1.3460  1.0797  0.2729
12688TIP3    H259480   1.617   6.053  12.748  0.7965 -1.7198  0.3886
12689TIP3   OH259481   5.626   6.750  16.549  0.6456  0.4368  0.1637
12689TIP3    H159482   5.697   6.798  16.590  1.4816  0.5750 -1.3530
12689TIP3    H259483   5.661   6.723  16.464 -1.0376  0.3242 -0.5515
12690TIP3   OH259484   4.054   4.794  14.811  0.3196 -0.0873 -0.4556
12690TIP3    H159485   4.146   4.774  14.792 -0.3643 -0.9551 -3.2911
12690TIP3    H259486   4.036   4.873  14.762 -0.7991 -0.7040 -1.0758
12691TIP3   OH259487   0.385   2.142  12.189 -0.1845 -0.2369  0.3669
12691TIP3    H159488   0.290   2.139  12.200 -0.5587 -0.3848 -2.2447
12691TIP3    H259489   0.420   2.092  12.262 -2.1898 -1.4206  0.5722
12692TIP3   OH259490   2.985   2.506   3.435  0.2436  0.4279  0.1851
12692TIP3    H159491   2.945   2.589   3.412 -2.6341 -0.7392  0.5640
12692TIP3    H259492   2.960   2.492   3.527 -0.2089 -1.2989 -0.1714
12693TIP3   OH259493   3.021   2.415  15.027  0.6989 -0.4140  0.2210
12693TIP3    H159494   2.981   2.377  14.948 -0.7886  0.4176  0.5455
12693TIP3    H259495   3.096   2.358  15.045  0.3918 -1.2982 -1.1229
12694TIP3   OH259496   0.386   2.763  12.735  0.0341 -0.2390  0.1913
12694TIP3    H159497   0.295   2.791  12.725 -0.0428 -0.6822 -0.3606
12694TIP3    H259498   0.417   2.751  12.646  0.5955 -0.2193  0.3829
12695TIP3   OH259499   1.829   3.542  16.032 -0.4319 -0.1901  0.6057
12695TIP3    H159500   1.735   3.557  16.039 -0.5114 -0.4556  0.1526
12695TIP3    H259501   1.853   3.498  16.113 -1.1038 -2.1583 -0.2024
12696TIP3   OH259502   6.416   6.497  13.237  0.2965 -0.2992  0.4067
12696TIP3    H159503   6.484   6.533  13.293  1.6366 -0.9427 -0.7332
12696TIP3    H259504   6.464   6.453  13.167 -1.3003  0.3547 -1.1761
12697TIP3   OH259505   6.525   4.655  12.717 -0.3237  0.0022  0.2210
12697TIP3    H159506   6.590   4.719  12.748  0.9948 -1.4375  0.5335
12697TIP3    H259507   6.481   4.625  12.797  0.2804 -0.7592  0.2712
12698TIP3   OH259508   2.879   2.907   0.039 -0.2348 -0.0070  0.2114
12698TIP3    H159509   2.973   2.921   0.047 -0.2300 -0.1605  0.4167
12698TIP3    H259510   2.853   2.867   0.122 -0.6015  0.7035  0.4462
12699TIP3   OH259511   5.570   5.474   6.226 -0.2294 -0.0226  0.6114
12699TIP3    H159512   5.576   5.378   6.229  0.8967 -0.0500 -1.0636
12699TIP3    H259513   5.622   5.503   6.301  1.1214 -0.7316 -0.0016
12700TIP3   OH259514   4.861   2.159   5.866  0.0644 -0.2892  0.0762
12700TIP3    H159515   4.913   2.093   5.821  0.1688 -1.0821  1.3124
12700TIP3    H259516   4.906   2.172   5.950 -0.2310  0.9938  0.0604
12701TIP3   OH259517   1.996   1.600  14.945 -0.1102 -0.1447 -0.6995
12701TIP3    H159518   1.916   1.648  14.922 -0.5814  0.6682  2.2570
12701TIP3    H259519   1.965   1.517  14.982  0.4200  0.0395  0.1772
12702TIP3   OH259520   2.391   6.051   2.744 -0.0493  0.6503 -0.5710
12702TIP3    H159521   2.386   6.093   2.830  1.2699  0.3955 -0.3556
12702TIP3    H259522   2.300   6.030   2.722 -0.3322 -0.2271  1.2441
12703TIP3   OH259523   3.424   3.401  17.243 -0.4695 -0.3756  0.6977
12703TIP3    H159524   3.436   3.343  17.318 -0.1424 -0.4936  0.5558
12703TIP3    H259525   3.477   3.362  17.173  0.5005  0.5723  0.8679
12704TIP3   OH259526   2.091   0.684  14.938  0.4134  0.2449  0.0162
12704TIP3    H159527   2.107   0.777  14.950 -0.3056  0.5373 -1.1845
12704TIP3    H259528   2.175   0.642  14.959 -0.4208  0.5637  5.7555
12705TIP3   OH259529   5.145   4.810  12.880 -0.5045 -0.2185  0.4873
12705TIP3    H159530   5.106   4.778  12.961  1.1789 -0.8956  1.0810
12705TIP3    H259531   5.194   4.888  12.905  0.5452 -0.7868  0.2711
12706TIP3   OH259532   4.475   3.311   4.553  0.5584 -0.3049 -0.4135
12706TIP3    H159533   4.406   3.369   4.585 -0.0477 -1.0503 -0.3126
12706TIP3    H259534   4.438   3.272   4.474  1.9594  1.3607 -1.9673
12707TIP3   OH259535   6.226   1.925   1.631  0.0710 -0.5201  0.4183
12707TIP3    H159536   6.235   2.018   1.651 -2.2705 -0.1900  0.2298
12707TIP3    H259537   6.210   1.884   1.717 -0.2283 -0.5477  0.3500
12708TIP3   OH259538   6.507   1.471  16.820  0.2186  0.2008  0.0474
12708TIP3    H159539   6.417   1.495  16.800 -0.4114  0.2826  2.6592
12708TIP3    H259540   6.555   1.491  16.739 -1.8455  1.4164 -0.9746
12709TIP3   OH259541   4.360   0.737   6.169  0.2888 -0.0661 -0.1901
12709TIP3    H159542   4.346   0.818   6.217  0.0574 -0.2985  0.1321
12709TIP3    H259543   4.451   0.742   6.140  0.6653 -0.2527  0.9002
12710TIP3   OH259544   4.326   5.772   3.991  0.0746 -0.3207 -0.3456
12710TIP3    H159545   4.319   5.865   4.013  1.2421  0.2363 -2.1235
12710TIP3    H259546   4.246   5.753   3.942  0.6807  0.3038 -1.6556
12711TIP3   OH259547   6.134   0.394   6.146  0.2426  0.0585 -0.0806
12711TIP3    H159548   6.197   0.324   6.127 -0.4340 -0.4520 -0.4860
12711TIP3    H259549   6.063   0.350   6.193 -0.0876  0.5207 -0.1437
12712TIP3   OH259550   6.009   1.402  13.836  0.4836 -0.2839 -0.6107
12712TIP3    H159551   5.918   1.376  13.848  0.5338 -0.1866  0.0348
12712TIP3    H259552   6.004   1.484  13.786  0.1724  0.1200  0.0627
12713TIP3   OH259553   3.301   2.099  14.603  1.1059 -0.4863  0.4838
12713TIP3    H159554   3.287   2.060  14.517 -0.2233  0.9240  0.0198
12713TIP3    H259555   3.299   2.193  14.588 -0.6318 -0.1747  2.2388
12714TIP3   OH259556   2.072   3.908  16.237  0.1719 -0.2578  0.4407
12714TIP3    H159557   1.985   3.914  16.276  0.3710 -2.9939  1.5295
12714TIP3    H259558   2.068   3.965  16.160 -2.0833  0.8020  1.2513
12715TIP3   OH259559   5.521   2.711   2.070  0.3063  0.2537  0.1923
12715TIP3    H159560   5.507   2.762   2.150 -0.5536  0.0279  0.1979
12715TIP3    H259561   5.445   2.730   2.016 -0.1717 -1.2022  0.3049
12716TIP3   OH259562   0.521   1.355   1.484 -0.7853  0.0964 -0.1424
12716TIP3    H159563   0.434   1.364   1.444 -0.0924  1.7003 -1.4239
12716TIP3    H259564   0.578   1.330   1.411 -0.1552 -0.9640  0.6935
12717TIP3   OH259565   3.591   1.279   2.298  0.6417 -0.6001  0.4089
12717TIP3    H159566   3.625   1.256   2.212 -1.1587  0.3888 -0.6475
12717TIP3    H259567   3.580   1.195   2.343  2.1116 -1.0870 -0.0852
12718TIP3   OH259568   1.407   5.269  11.503 -0.2402  0.7774 -0.6126
12718TIP3    H159569   1.478   5.301  11.447  0.8872 -1.0433 -0.3170
12718TIP3    H259570   1.407   5.328  11.579 -0.2203  1.8393 -1.4217
12719TIP3   OH259571   5.514   0.270   1.082  0.2862 -0.0545 -0.5110
12719TIP3    H159572   5.481   0.310   1.002  1.8761  1.6891 -0.3547
12719TIP3    H259573   5.473   0.183   1.084 -1.6946  0.7813 -1.9161
12720TIP3   OH259574   5.915   2.086  16.382  0.1593  0.1732 -0.4873
12720TIP3    H159575   5.991   2.143  16.372  0.9824 -0.7687  0.2306
12720TIP3    H259576   5.945   1.999  16.355  0.1893 -0.7969  2.3270
12721TIP3   OH259577   2.841   2.365   1.380 -0.4563 -0.4805  0.3046
12721TIP3    H159578   2.899   2.394   1.310 -1.5968 -0.7320 -0.7662
12721TIP3    H259579   2.896   2.370   1.459  0.7367  0.1644 -0.5235
12722TIP3   OH259580   0.889   3.058  14.257  0.3054  0.5290 -0.4989
12722TIP3    H159581   0.952   3.084  14.189 -0.5370  0.2472 -1.4214
12722TIP3    H259582   0.915   2.969  14.280  0.7029  0.6885 -0.3217
12723TIP3   OH259583   1.770   5.286  12.674 -0.7936 -0.4021 -0.2297
12723TIP3    H159584   1.711   5.361  12.676 -0.0119  0.3485 -2.6185
12723TIP3    H259585   1.835   5.305  12.742 -0.5503  1.1552 -0.8563
12724TIP3   OH259586   2.681   4.106   2.637 -0.1379 -0.5073 -0.1134
12724TIP3    H159587   2.704   4.104   2.544 -0.8402  0.1158 -0.3100
12724TIP3    H259588   2.763   4.089   2.682  0.2397 -0.6651 -0.8438
12725TIP3   OH259589   4.258   1.543   3.412 -0.5511 -0.2429  0.1026
12725TIP3    H159590   4.235   1.457   3.446  1.3607 -0.4320  1.0707
12725TIP3    H259591   4.182   1.598   3.432 -1.3291 -1.4286  0.5291
12726TIP3   OH259592   1.309   1.564   4.367 -0.1838  0.3438 -0.0218
12726TIP3    H159593   1.378   1.534   4.308  0.4820  1.0675  0.3805
12726TIP3    H259594   1.341   1.646   4.403 -1.6976  1.2095 -0.5781
12727TIP3   OH259595   1.914   1.276  16.075 -0.1099  0.2217  0.5233
12727TIP3    H159596   1.991   1.230  16.111 -0.9420 -0.9867  0.8107
12727TIP3    H259597   1.847   1.266  16.143 -1.1100 -0.4041 -0.5218
12728TIP3   OH259598   2.299   6.371   5.483 -0.0923 -0.4195  0.6922
12728TIP3    H159599   2.311   6.290   5.434  3.1196  0.7849 -0.8084
12728TIP3    H259600   2.207   6.395   5.469 -1.1024 -3.6265  1.0862
12729TIP3   OH259601   1.531   0.634   0.286  0.2131 -0.0769  0.6078
12729TIP3    H159602   1.609   0.620   0.232  0.3058  2.3131  0.0333
12729TIP3    H259603   1.560   0.614   0.375  1.2071 -0.1492  0.2867
12730TIP3   OH259604   4.650   5.240   4.448  0.4872  0.5380 -0.0668
12730TIP3    H159605   4.711   5.258   4.520 -1.0107  2.3671  0.8212
12730TIP3    H259606   4.568   5.217   4.491 -0.6122  2.2754 -1.1292
12731TIP3   OH259607   1.379   2.006  17.187 -0.1165 -0.6794 -0.0441
12731TIP3    H159608   1.323   2.030  17.260 -1.0124 -0.9940 -0.6180
12731TIP3    H259609   1.365   2.074  17.122 -0.5483 -1.2551 -0.5625
12732TIP3   OH259610   5.258   2.050  13.518  0.0662  0.3055 -0.3187
12732TIP3    H159611   5.206   2.060  13.598  1.4978 -3.7797  1.3824
12732TIP3    H259612   5.316   2.127  13.517 -1.2357  1.3827  1.5261
12733TIP3   OH259613   2.619   5.056  14.711  0.2342 -0.0359 -0.2594
12733TIP3    H159614   2.622   5.147  14.739 -1.9755 -0.4694  1.7935
12733TIP3    H259615   2.566   5.057  14.631  0.9505  0.5371 -0.7387
12734TIP3   OH259616   3.377   6.115   1.371 -0.6189  0.2087  0.4014
12734TIP3    H159617   3.307   6.181   1.371  0.3187  1.2392  0.1951
12734TIP3    H259618   3.375   6.079   1.282 -2.4901 -1.5862  1.0927
12735TIP3   OH259619   5.797   1.267   1.340  0.2426  0.0464 -0.7247
12735TIP3    H159620   5.786   1.244   1.432 -1.0072  0.2155 -0.8143
12735TIP3    H259621   5.769   1.189   1.292  0.2092  0.2081 -0.9712
12736TIP3   OH259622   4.528   6.464   4.796 -0.0852  0.4770  0.4024
12736TIP3    H159623   4.608   6.496   4.838 -0.5037  2.4787 -0.1863
12736TIP3    H259624   4.460   6.527   4.822 -1.1000 -0.2288 -0.4463
12737TIP3   OH259625   2.453   6.516  11.077  0.4151  0.0022 -0.3750
12737TIP3    H159626   2.385   6.560  11.128 -0.3112 -1.3565 -0.1239
12737TIP3    H259627   2.529   6.574  11.082 -0.2162  0.7513  0.7295
12738TIP3   OH259628   3.406   4.596   0.423 -0.9227  0.4899  0.8192
12738TIP3    H159629   3.329   4.620   0.371 -1.0124 -0.7586  0.3512
12738TIP3    H259630   3.391   4.638   0.508 -2.7402 -0.6699  1.1431
12739TIP3   OH259631   6.519   0.373  16.667 -0.7035  0.2549  0.3409
12739TIP3    H159632   6.465   0.319  16.725 -1.1701 -0.9859 -1.2047
12739TIP3    H259633   6.457   0.433  16.626 -1.2855 -2.0657 -2.4712
12740TIP3   OH259634   2.328   6.322   3.606 -0.0115 -0.3554  0.0053
12740TIP3    H159635   2.268   6.270   3.551 -1.3224 -0.5840  1.5573
12740TIP3    H259636   2.284   6.406   3.616  0.3077 -0.2441  0.5019
12741TIP3   OH259637   2.712   1.455   2.158 -0.1836 -0.1569  0.5147
12741TIP3    H159638   2.708   1.404   2.238 -2.2268  1.3993  1.4847
12741TIP3    H259639   2.648   1.415   2.100 -0.0482 -0.1563  0.3633
12742TIP3   OH259640   2.971   3.727   6.350 -0.3924 -0.3171  0.1600
12742TIP3    H159641   3.042   3.770   6.398  0.4762 -1.6094  0.0969
12742TIP3    H259642   2.929   3.671   6.415  0.8233 -2.1194 -0.4973
12743TIP3   OH259643   3.801   2.061   3.970 -0.1611  0.6674 -0.1542
12743TIP3    H159644   3.845   1.988   3.927 -0.8928 -0.6366  1.2206
12743TIP3    H259645   3.733   2.088   3.909 -0.5357 -0.4951 -0.2700
12744TIP3   OH259646   6.196   4.264  16.927  0.3403 -0.4627  0.2029
12744TIP3    H159647   6.232   4.247  17.014  0.0163  1.4775  0.7630
12744TIP3    H259648   6.263   4.234  16.867  1.5528  0.1904  1.1773
12745TIP3   OH259649   3.179   4.111  11.579  0.0227 -0.2099 -0.3801
12745TIP3    H159650   3.136   4.150  11.503  0.0998  1.0873  0.2153
12745TIP3    H259651   3.260   4.161  11.589 -0.5327  0.4302  1.2304
12746TIP3   OH259652   1.316   3.533  12.989  0.3720  0.1653  0.0080
12746TIP3    H159653   1.235   3.576  12.960 -0.6253 -1.3905  0.3137
12746TIP3    H259654   1.315   3.543  13.084 -0.2179 -1.0119  0.1551
12747TIP3   OH259655   6.032   3.804  12.748  0.2636 -0.5119 -0.3374
12747TIP3    H159656   6.001   3.894  12.760 -1.0189 -0.9277 -0.4111
12747TIP3    H259657   6.067   3.803  12.659  0.4894 -0.0336 -0.2613
12748TIP3   OH259658   1.578   4.731   4.842  0.5378 -0.2169 -0.4843
12748TIP3    H159659   1.575   4.826   4.825 -2.3471  0.5627  3.0917
12748TIP3    H259660   1.509   4.695   4.787 -0.4089  0.2794  0.3578
12749TIP3   OH259661   2.939   3.955   1.012 -0.1268 -0.3462 -0.5750
12749TIP3    H159662   2.933   3.962   1.107 -1.2233 -0.6297 -0.6058
12749TIP3    H259663   2.996   3.879   0.997  1.1439  0.4961 -0.1750
12750TIP3   OH259664   2.971   2.234  14.567 -0.2084  0.1484  0.7203
12750TIP3    H159665   3.025   2.219  14.645  1.7117  1.8810 -0.2090
12750TIP3    H259666   2.946   2.326  14.573  0.3058  0.4143 -0.8950
12751TIP3   OH259667   4.437   5.907   1.196 -0.4491  0.3648 -0.3531
12751TIP3    H159668   4.466   5.828   1.149 -0.8893 -0.4279  0.6554
12751TIP3    H259669   4.400   5.963   1.128 -1.3283 -0.8592 -0.9269
12752TIP3   OH259670   5.850   1.863  17.360  0.5303  0.4939  0.1645
12752TIP3    H159671   5.805   1.884  17.442 -1.1364 -0.4898 -0.4626
12752TIP3    H259672   5.900   1.783  17.379  1.6254  1.2829  0.7065
12753TIP3   OH259673   0.885   1.988  16.467 -0.3821  0.7328  0.1657
12753TIP3    H159674   0.969   2.015  16.430 -0.6417 -0.9817 -1.8547
12753TIP3    H259675   0.844   2.070  16.497  0.1846  2.2096 -2.7386
12754TIP3   OH259676   4.884   6.099   0.008  0.1731 -0.3594 -0.3301
12754TIP3    H159677   4.797   6.070  -0.019  0.5013  0.0548 -1.9236
12754TIP3    H259678   4.936   6.020   0.010 -0.1280 -0.5494  0.2151
12755TIP3   OH259679   5.425   2.120   0.346 -0.0501 -0.4010  0.1455
12755TIP3    H159680   5.504   2.149   0.392 -0.0208 -2.0706  1.2489
12755TIP3    H259681   5.397   2.042   0.394 -1.6663 -0.5660 -0.9911
12756TIP3   OH259682   3.155   1.748   4.897 -0.2805 -0.0741  0.8464
12756TIP3    H159683   3.131   1.680   4.960  3.4248 -0.5626  1.9780
12756TIP3    H259684   3.245   1.727   4.872 -0.2039  2.4507 -1.5534
12757TIP3   OH259685   0.913   1.306   6.285 -0.1621  0.3562  0.0041
12757TIP3    H159686   0.969   1.231   6.304 -1.3051 -0.3652  0.6766
12757TIP3    H259687   0.962   1.381   6.318 -0.1259 -0.3878  1.7956
12758TIP3   OH259688   2.507   6.670   1.363 -0.1241  0.5073  0.4836
12758TIP3    H159689   2.532   6.637   1.276 -3.0594 -3.0778  0.7700
12758TIP3    H259690   2.496   6.764   1.350  1.2121  0.3760 -2.5584
12759TIP3   OH259691   2.410   3.492  15.810 -0.3065 -0.2984 -0.0190
12759TIP3    H159692   2.406   3.587  15.818  1.7303 -0.2037  0.1608
12759TIP3    H259693   2.413   3.476  15.716  0.1796 -0.1474 -0.0292
12760TIP3   OH259694   4.116   4.370   0.585 -0.0994  0.1208 -0.1456
12760TIP3    H159695   4.104   4.351   0.492  0.9692 -0.0460 -0.2621
12760TIP3    H259696   4.195   4.424   0.588 -0.1036  0.0835  0.6697
12761TIP3   OH259697   4.616   3.337  15.774  0.0329 -0.5941  0.0821
12761TIP3    H159698   4.676   3.378  15.712 -0.2904 -2.0975 -1.3021
12761TIP3    H259699   4.587   3.257  15.730 -1.9610 -0.5826  1.2505
12762TIP3   OH259700   6.570   5.238  16.905  0.1653 -0.2479  0.7159
12762TIP3    H159701   6.511   5.230  16.980  0.2604  0.2196  0.8435
12762TIP3    H259702   6.565   5.330  16.880  2.2402  0.2578  1.8792
12763TIP3   OH259703   6.127   3.992  17.221 -0.1535 -0.1890  0.4093
12763TIP3    H159704   6.189   4.054  17.183  0.2796 -0.4870  0.6309
12763TIP3    H259705   6.153   3.907  17.187 -0.7983 -0.2459  0.0435
12764TIP3   OH259706   6.421   5.231  17.143  0.3088 -0.7939  0.3990
12764TIP3    H159707   6.477   5.209  17.217  0.3481 -0.9915  0.3124
12764TIP3    H259708   6.335   5.197  17.167  0.1947 -0.3684  0.5917
12765TIP3   OH259709   4.046   1.626  14.464  0.1324  0.3843  0.3324
12765TIP3    H159710   4.139   1.647  14.468  0.3728 -0.5398 -0.0642
12765TIP3    H259711   4.039   1.539  14.503 -0.7583  0.9648  1.5257
12766TIP3   OH259712   3.404   3.807  15.653 -0.1823 -0.3195  0.1161
12766TIP3    H159713   3.469   3.758  15.704 -0.0821  0.2233  0.5275
12766TIP3    H259714   3.337   3.743  15.631 -0.3823 -0.5161  1.2119
12767TIP3   OH259715   4.199   0.043   0.376  0.5803 -0.4411 -0.2704
12767TIP3    H159716   4.220  -0.031   0.319 -0.6474 -0.0522 -1.2732
12767TIP3    H259717   4.126   0.012   0.429  1.7735 -0.8306  1.2060
12768TIP3   OH259718   5.656   1.150  17.011 -0.8681  0.2642 -0.1984
12768TIP3    H159719   5.704   1.168  17.092 -0.1263 -0.2736 -0.4975
12768TIP3    H259720   5.599   1.225  16.999 -1.2665  0.1694  1.0236
12769TIP3   OH259721   2.678   4.774  11.774 -0.2878  0.1839 -0.4834
12769TIP3    H159722   2.717   4.843  11.720  1.3511  1.6414  2.3140
12769TIP3    H259723   2.751   4.717  11.797 -0.0372  1.6776  3.0205
12770TIP3   OH259724   5.345   4.761   1.542  0.2694  0.6156 -0.2435
12770TIP3    H159725   5.330   4.671   1.571  0.7482  0.4374 -0.5392
12770TIP3    H259726   5.277   4.812   1.587  0.2499  0.1708  0.2432
12771TIP3   OH259727   2.587   5.982  14.957 -0.0236  0.1617 -0.1820
12771TIP3    H159728   2.634   5.989  15.040  2.5479 -0.1987 -1.5241
12771TIP3    H259729   2.584   5.889  14.938  0.8423  0.3370 -1.2492
12772TIP3   OH259730   4.827   2.035  15.227 -0.1602 -0.0071 -0.9818
12772TIP3    H159731   4.836   1.996  15.140  0.8631 -2.0072 -0.0523
12772TIP3    H259732   4.748   1.995  15.263  0.5352 -0.7739 -0.2621
12773TIP3   OH259733   2.421   3.335  15.606  0.1577  0.3610 -0.2616
12773TIP3    H159734   2.395   3.250  15.570  2.6533  0.7262 -3.2906
12773TIP3    H259735   2.472   3.312  15.684 -0.1035 -0.8585 -0.4246
12774TIP3   OH259736   2.582   1.367  14.521 -0.4082  0.0342  0.1610
12774TIP3    H159737   2.521   1.437  14.546 -0.8311 -0.7596  1.4920
12774TIP3    H259738   2.655   1.412  14.479 -0.2292  1.4180  1.8240
12775TIP3   OH259739   6.548   2.912  15.805  1.3273 -0.6013 -0.2014
12775TIP3    H159740   6.581   2.864  15.729  2.2741 -0.7535  0.2967
12775TIP3    H259741   6.618   2.906  15.870  1.5409  1.5810 -0.1643
12776TIP3   OH259742   5.159   3.263  17.336  0.3559 -0.1692 -0.7044
12776TIP3    H159743   5.072   3.265  17.296  0.1527 -1.8344 -0.3727
12776TIP3    H259744   5.146   3.224  17.422  1.1687  1.2271  0.0901
12777TIP3   OH259745   1.142   6.264  16.551 -0.3068 -0.0518  0.1447
12777TIP3    H159746   1.189   6.188  16.518  1.7664  2.4540 -3.4024
12777TIP3    H259747   1.177   6.278  16.639  1.4338 -1.5031 -0.2669
12778TIP3   OH259748   0.922   3.070   5.782  0.2392  0.2345  0.1837
12778TIP3    H159749   0.932   2.987   5.829 -0.9331 -0.7885 -1.2696
12778TIP3    H259750   0.992   3.125   5.816  0.3291 -0.9381  2.0452
12779TIP3   OH259751   5.825   1.363   2.409  0.0837  0.3037  0.0750
12779TIP3    H159752   5.737   1.399   2.400 -0.0758 -0.2129 -0.4728
12779TIP3    H259753   5.834   1.342   2.502 -0.7588 -0.6300 -0.0444
12780TIP3   OH259754   2.031   5.400   0.454  0.4460 -0.0797  0.2194
12780TIP3    H159755   2.045   5.414   0.548 -3.3378  0.5051  0.8650
12780TIP3    H259756   1.984   5.317   0.449 -0.5687  0.5374 -1.0124
12781TIP3   OH259757   2.573   5.309   3.156  0.0256 -0.4497  0.0192
12781TIP3    H159758   2.576   5.391   3.106 -0.2273  0.8989  2.0953
12781TIP3    H259759   2.489   5.269   3.132 -0.9792  1.1342  0.7931
12782TIP3   OH259760   3.800   0.674  15.444  0.4672 -0.3548 -0.4798
12782TIP3    H159761   3.834   0.711  15.363  1.9677 -0.9370 -0.1563
12782TIP3    H259762   3.850   0.717  15.513 -0.2992 -0.3769  0.1018
12783TIP3   OH259763   6.385   4.480   4.303  0.4419 -0.0752 -0.6876
12783TIP3    H159764   6.397   4.518   4.390  0.2847 -0.0254 -0.6865
12783TIP3    H259765   6.293   4.453   4.302  0.7508 -1.2072 -0.3914
12784TIP3   OH259766   2.113   3.484   0.435  0.1730  0.1461 -0.0088
12784TIP3    H159767   2.044   3.419   0.428  0.3057 -0.1628  1.2911
12784TIP3    H259768   2.187   3.436   0.474  0.6961  0.7811 -0.1993
12785TIP3   OH259769   6.349   2.713   1.180 -0.1720  0.0041 -0.4815
12785TIP3    H159770   6.324   2.687   1.091  1.3389  1.1840 -1.2967
12785TIP3    H259771   6.430   2.763   1.168  1.0359 -1.2732  1.7245
12786TIP3   OH259772   1.716   1.785   2.534 -0.5936  0.1638 -0.8833
12786TIP3    H159773   1.739   1.728   2.461 -2.1274 -0.9078 -0.5555
12786TIP3    H259774   1.714   1.728   2.610  2.7561  1.5424  0.4630
12787TIP3   OH259775   4.791   6.378  17.255  0.6154 -0.4292  0.3152
12787TIP3    H159776   4.881   6.351  17.271  0.4224 -1.1502  0.2237
12787TIP3    H259777   4.797   6.446  17.188  1.2489  0.9713  1.7171
12788TIP3   OH259778   4.041   6.015   1.131  0.3413 -0.2752 -0.2179
12788TIP3    H159779   4.017   5.922   1.128  3.0824 -1.1295  0.6884
12788TIP3    H259780   3.981   6.054   1.194  0.4739 -1.9307  1.0038
12789TIP3   OH259781   2.080   2.832   1.063  0.9156 -0.4306  0.1711
12789TIP3    H159782   1.996   2.800   1.097  0.9381  0.6656  1.3392
12789TIP3    H259783   2.146   2.777   1.105  0.9023  0.4445  1.3937
12790TIP3   OH259784   4.713   5.792  15.083  0.6095  0.5496 -1.0186
12790TIP3    H159785   4.737   5.726  15.018  2.4187  0.4432 -0.2990
12790TIP3    H259786   4.645   5.751  15.135  1.0858 -0.4345 -1.1381
12791TIP3   OH259787   2.190   5.867   3.749  0.3226  0.8861 -0.0523
12791TIP3    H159788   2.166   5.904   3.664  1.7445  2.2653  0.1034
12791TIP3    H259789   2.107   5.862   3.797 -0.1868  2.1371 -0.7641
12792TIP3   OH259790   3.036   6.569   1.768  0.3070  0.4299  0.9494
12792TIP3    H159791   3.060   6.505   1.700  0.2394  0.0444  1.2812
12792TIP3    H259792   2.940   6.562   1.774  0.4473 -0.8684  2.3442
12793TIP3   OH259793   5.909   3.703  15.887  0.0462 -0.6354  0.7112
12793TIP3    H159794   5.932   3.795  15.874 -1.2510 -0.5499 -1.5423
12793TIP3    H259795   5.953   3.679  15.968  2.8051  1.1564 -0.0985
12794TIP3   OH259796   5.610   2.859  14.846 -0.0533  0.1110  0.2259
12794TIP3    H159797   5.575   2.843  14.933  0.4665  0.5464  0.5250
12794TIP3    H259798   5.705   2.865  14.859  0.0614 -0.2035 -0.4298
12795TIP3   OH259799   4.153   2.499   6.283 -0.2089  0.2295  0.3902
12795TIP3    H159800   4.237   2.543   6.293 -0.5176  0.7652  0.6185
12795TIP3    H259801   4.089   2.558   6.322 -0.4532 -1.0338  2.0045
12796TIP3   OH259802   1.505   2.088   1.448 -0.1415  0.0386  0.1242
12796TIP3    H159803   1.516   2.064   1.540  0.3932 -0.1152  0.0234
12796TIP3    H259804   1.465   2.011   1.408 -2.4758  0.8689  0.6442
12797TIP3   OH259805   1.410   0.365   6.023  0.1932 -0.1080  0.4934
12797TIP3    H159806   1.473   0.421   5.976 -0.0359  0.6851  1.1122
12797TIP3    H259807   1.439   0.368   6.114  0.0014 -0.7787  0.5822
12798TIP3   OH259808   6.497   3.202  17.157  0.5754  0.4942  0.1481
12798TIP3    H159809   6.441   3.162  17.091 -1.3499 -0.7733  2.3822
12798TIP3    H259810   6.437   3.253  17.211  1.2169 -1.8117  3.3445
12799TIP3   OH259811   1.214   1.640  13.546  0.7589  0.1532 -0.1079
12799TIP3    H159812   1.195   1.546  13.548  1.1527  0.0588  2.5088
12799TIP3    H259813   1.170   1.675  13.624  1.4366  1.9656 -0.5020
12800TIP3   OH259814   4.871   4.874   1.083  0.0953 -0.2674  0.1925
12800TIP3    H159815   4.898   4.951   1.133  1.0794 -0.9027  0.6838
12800TIP3    H259816   4.922   4.802   1.120 -1.7326 -1.4123  0.6153
12801TIP3   OH259817   0.807   6.626   2.343 -0.5964  0.6568 -0.0832
12801TIP3    H159818   0.873   6.611   2.275  0.6594 -0.0352  1.2475
12801TIP3    H259819   0.750   6.549   2.339 -0.4907  0.5889 -0.2932
12802TIP3   OH259820   4.244   6.625   0.161  0.1100 -0.0238  0.0378
12802TIP3    H159821   4.268   6.695   0.101 -1.2453 -0.1711 -0.7100
12802TIP3    H259822   4.289   6.548   0.128  0.8310  0.2739  0.3002
12803TIP3   OH259823   3.326   3.160   3.809 -0.4259 -0.0991  0.7203
12803TIP3    H159824   3.353   3.233   3.865  1.2365  0.5320 -0.8210
12803TIP3    H259825   3.341   3.082   3.862 -0.6286  0.5633  1.7918
12804TIP3   OH259826   4.680   3.683   5.745 -0.0973  0.1520 -0.6158
12804TIP3    H159827   4.602   3.639   5.711 -0.9578  1.9965 -1.1807
12804TIP3    H259828   4.665   3.690   5.839 -0.9801  1.0790 -0.7995
12805TIP3   OH259829   3.189   2.288   0.718 -0.1671  0.4455  0.1410
12805TIP3    H159830   3.253   2.261   0.652  1.8928 -1.0188  2.5233
12805TIP3    H259831   3.123   2.219   0.716  0.0556  0.2328 -0.1667
12806TIP3   OH259832   4.857   6.077  11.302  0.1312  0.3539 -0.1466
12806TIP3    H159833   4.765   6.103  11.302  0.0216 -0.0317 -0.2740
12806TIP3    H259834   4.861   6.001  11.245  0.3565 -0.2723  0.6923
12807TIP3   OH259835   6.071   0.403   1.525  0.0814  0.0167 -0.2648
12807TIP3    H159836   6.045   0.342   1.594  1.1544  0.2728  0.3871
12807TIP3    H259837   6.149   0.363   1.486  0.9941  1.0869  0.3856
12808TIP3   OH259838   0.109   5.043  11.415  0.5059  0.5000  0.1829
12808TIP3    H159839   0.018   5.072  11.412  0.5040  0.4202 -0.6511
12808TIP3    H259840   0.105   4.952  11.444  0.3737  0.7108  0.8382
12809TIP3   OH259841   5.503   3.569   0.760 -0.2318  0.1100  0.2048
12809TIP3    H159842   5.513   3.508   0.686  0.8956 -1.2256  1.4097
12809TIP3    H259843   5.592   3.585   0.790 -0.7614 -0.8105  2.4077
12810TIP3   OH259844   3.460   3.711  15.326  0.1449 -0.0313 -0.3369
12810TIP3    H159845   3.447   3.657  15.248  0.5164  0.1560 -0.5347
12810TIP3    H259846   3.465   3.649  15.398 -0.2390 -0.2045 -0.4567
12811TIP3   OH259847   1.952   1.582  16.193 -0.2536 -0.7796  0.5075
12811TIP3    H159848   1.876   1.558  16.140 -0.3562 -0.3698  0.4662
12811TIP3    H259849   2.027   1.551  16.142 -0.3323 -0.0657 -0.0612
12812TIP3   OH259850   5.283   2.107   2.514 -0.0780  0.6585  0.2033
12812TIP3    H159851   5.307   2.189   2.470 -0.1038  1.2372  1.2525
12812TIP3    H259852   5.367   2.063   2.530 -0.0938  0.1970 -0.8426
12813TIP3   OH259853   5.703   4.345   0.089  0.2055 -0.3505  0.1146
12813TIP3    H159854   5.724   4.417   0.030  1.8302 -1.5465 -0.8602
12813TIP3    H259855   5.764   4.355   0.162 -0.3874 -0.0634  0.5769
12814TIP3   OH259856   2.274   1.151  10.640 -0.0340 -0.4764  0.4383
12814TIP3    H159857   2.236   1.122  10.557 -1.1234  0.2865  0.6462
12814TIP3    H259858   2.256   1.245  10.643  1.7050 -0.1192  0.6572
12815TIP3   OH259859   0.969   2.249   5.462  0.1229 -0.5987  0.5371
12815TIP3    H159860   1.064   2.243   5.458  0.0245 -2.2930 -0.3810
12815TIP3    H259861   0.944   2.184   5.528 -0.4030 -0.0741  0.8673
12816TIP3   OH259862   5.548   2.028   6.452  0.0309 -0.2528  0.1116
12816TIP3    H159863   5.465   2.011   6.496 -1.3252  1.0371 -1.8109
12816TIP3    H259864   5.568   2.119   6.474  0.3758 -0.2230 -0.3313
12817TIP3   OH259865   6.646   5.567   0.744  0.0726 -0.0808 -0.2861
12817TIP3    H159866   6.577   5.511   0.779  1.9322 -0.8645  2.4512
12817TIP3    H259867   6.689   5.513   0.678  0.3933 -1.0849  0.6988
12818TIP3   OH259868   6.684   0.568  14.277 -0.4418  0.5245  0.1561
12818TIP3    H159869   6.675   0.656  14.314 -1.6557  1.3822 -1.9672
12818TIP3    H259870   6.604   0.522  14.302  0.1157  0.0510  1.1198
12819TIP3   OH259871   4.025   1.668   0.743 -0.0514 -0.7067 -0.3237
12819TIP3    H159872   4.081   1.682   0.819 -2.0558 -1.9960  1.5266
12819TIP3    H259873   4.034   1.574   0.724 -0.3945 -0.6108 -0.9689
12820TIP3   OH259874   3.613   3.935   6.569  0.2662  0.4095  1.0320
12820TIP3    H159875   3.662   3.907   6.646  0.3052 -0.0440  0.8477
12820TIP3    H259876   3.521   3.933   6.597  0.3483  1.3422  1.4013
12821TIP3   OH259877   3.949   1.896  13.676 -0.4920  0.5963 -0.2843
12821TIP3    H159878   3.894   1.925  13.603  1.0791 -0.9313 -2.1967
12821TIP3    H259879   3.949   1.801  13.670  0.7753  0.4939  0.8636
12822TIP3   OH259880   1.088   6.441   0.814  0.6842 -0.0164  0.1722
12822TIP3    H159881   1.100   6.412   0.723  0.1929  0.7708 -0.1573
12822TIP3    H259882   1.065   6.533   0.807  0.0228 -0.0929  1.0623
12823TIP3   OH259883   6.692   1.776  15.802  0.1263  0.3810  0.3092
12823TIP3    H159884   6.608   1.785  15.755  0.0722 -0.4499  0.2231
12823TIP3    H259885   6.674   1.711  15.870  0.8012 -0.0941  0.0418
12824TIP3   OH259886   4.577   6.006  16.564 -0.9488 -0.4104  0.2482
12824TIP3    H159887   4.531   6.040  16.487 -0.6276  0.1065  0.2739
12824TIP3    H259888   4.667   5.991  16.533 -0.5660  0.7147  0.7535
12825TIP3   OH259889   1.022   2.113   5.992 -0.1765  0.4926  0.1044
12825TIP3    H159890   1.096   2.165   6.023 -0.4001 -0.1360  1.8080
12825TIP3    H259891   1.062   2.042   5.941  0.2221  1.4049 -0.8929
12826TIP3   OH259892   6.125   5.076  15.114  0.5659  0.1209 -0.2106
12826TIP3    H159893   6.172   5.027  15.181  0.2908  1.0188  0.6571
12826TIP3    H259894   6.124   5.166  15.146  0.5359  0.5989 -1.4832
12827TIP3   OH259895   0.925   0.660  15.413 -0.3642  0.0858 -0.3503
12827TIP3    H159896   0.965   0.589  15.463 -1.8057  0.3449  1.2668
12827TIP3    H259897   0.981   0.670  15.336  0.2327 -2.3550 -0.3054
12828TIP3   OH259898   1.145   6.497   3.793 -0.4959  0.0341 -0.0370
12828TIP3    H159899   1.150   6.495   3.697  0.0921  0.2013 -0.0103
12828TIP3    H259900   1.160   6.407   3.820 -2.2936 -0.3528 -0.1634
12829TIP3   OH259901   2.744   5.164  13.523 -0.2525 -0.4924 -0.1266
12829TIP3    H159902   2.714   5.208  13.602 -0.3292 -1.0225  0.1471
12829TIP3    H259903   2.664   5.144  13.474 -0.1536  0.5780 -0.7495
12830TIP3   OH259904   6.324   6.171  16.351  0.6321 -0.2326  0.2769
12830TIP3    H159905   6.350   6.213  16.433 -0.4816  1.6212 -0.2458
12830TIP3    H259906   6.390   6.199  16.288  0.2161  0.2778  0.0572
12831TIP3   OH259907   0.520   1.907  12.326 -0.6982  0.9916  0.1656
12831TIP3    H159908   0.451   1.872  12.383 -1.1891  0.1070 -0.9345
12831TIP3    H259909   0.503   1.867  12.241  0.0172  2.2862 -0.6141
12832TIP3   OH259910   6.522   1.723  17.371  0.2097 -0.2613  0.0480
12832TIP3    H159911   6.505   1.695  17.281 -0.0059  0.5996 -0.1851
12832TIP3    H259912   6.496   1.647  17.425 -0.7636 -0.3630 -0.5379
12833TIP3   OH259913   1.126   1.178  13.819 -0.2052  0.8518 -0.3869
12833TIP3    H159914   1.173   1.243  13.872  1.4436 -1.6072  1.3971
12833TIP3    H259915   1.049   1.156  13.870  0.1914  0.1416 -0.0740
12834TIP3   OH259916   3.036   3.700  13.405 -0.1323 -1.3136  0.4903
12834TIP3    H159917   2.975   3.770  13.429  2.6903  0.0627  4.9642
12834TIP3    H259918   3.053   3.654  13.487  2.8414 -3.2820 -1.0586
12835TIP3   OH259919   0.643   6.084   4.545  0.1276 -0.5104  0.7213
12835TIP3    H159920   0.625   6.171   4.508 -2.0490 -1.9277 -1.8444
12835TIP3    H259921   0.730   6.061   4.511 -0.5399 -0.5176 -1.0481
12836TIP3   OH259922   2.739   6.293  11.865 -0.2640 -0.4066  0.1633
12836TIP3    H159923   2.783   6.376  11.853 -1.0133 -0.2880 -2.4675
12836TIP3    H259924   2.645   6.315  11.861 -0.5311 -1.1091  1.8278
12837TIP3   OH259925   0.319   0.877   0.674  0.3955 -0.7012 -0.2762
12837TIP3    H159926   0.338   0.896   0.766  2.2126  1.3758 -1.0019
12837TIP3    H259927   0.225   0.895   0.665  0.2871 -0.4831  1.0320
12838TIP3   OH259928   1.184   0.587  11.227 -0.1010  0.6885  0.5090
12838TIP3    H159929   1.106   0.590  11.172 -0.1828  1.3951  0.6497
12838TIP3    H259930   1.243   0.651  11.188 -0.3629  1.5969  1.5320
12839TIP3   OH259931   0.241   4.413  17.156 -0.3976  0.3992  0.0665
12839TIP3    H159932   0.285   4.351  17.098  0.5220  2.8468 -1.9926
12839TIP3    H259933   0.149   4.410  17.129 -0.6100 -0.9440  0.8600
12840TIP3   OH259934   3.461   0.442   5.964  0.2197  0.6353  0.2117
12840TIP3    H159935   3.381   0.421   5.915  0.7513 -1.2487  0.0524
12840TIP3    H259936   3.454   0.535   5.983 -1.7792  0.6213 -0.2275
12841TIP3   OH259937   1.190   1.875   1.600 -0.0652 -0.0856  0.1991
12841TIP3    H159938   1.268   1.848   1.647  0.2777 -1.4603 -1.0542
12841TIP3    H259939   1.223   1.918   1.521 -0.5884  0.5973  0.3465
12842TIP3   OH259940   0.088   1.934   1.502  0.2774 -0.0190  0.4225
12842TIP3    H159941   0.059   1.989   1.574  0.9292  2.0252 -0.8078
12842TIP3    H259942   0.169   1.895   1.533  2.2990  3.3134 -0.1731
12843TIP3   OH259943   3.026   1.312   2.395 -0.9069 -0.2177  0.4937
12843TIP3    H159944   3.084   1.387   2.391 -2.1631  0.7357 -0.7518
12843TIP3    H259945   3.075   1.241   2.354 -1.2007  1.0299 -2.2504
12844TIP3   OH259946   5.853   4.281   5.581 -0.3388 -0.6134  0.4456
12844TIP3    H159947   5.861   4.234   5.497 -1.4490 -0.4851  0.2504
12844TIP3    H259948   5.785   4.347   5.565 -0.5254 -0.5550  1.4349
12845TIP3   OH259949   0.662   5.602  12.742 -0.0715 -0.2253  0.6930
12845TIP3    H159950   0.657   5.563  12.654 -0.4751  0.7495  0.2712
12845TIP3    H259951   0.670   5.527  12.800 -0.0597 -0.9076 -0.1575
12846TIP3   OH259952   2.138   0.771  12.930 -0.8038  0.4312  0.0038
12846TIP3    H159953   2.149   0.747  13.022  0.5219 -0.8152 -0.4414
12846TIP3    H259954   2.056   0.821  12.927 -0.2047  1.6477  2.0587
12847TIP3   OH259955   3.358   0.168  12.865  0.1573  0.1078  0.4918
12847TIP3    H159956   3.310   0.088  12.843  1.8440 -0.6157 -0.8524
12847TIP3    H259957   3.441   0.159  12.818  1.1122  1.8481  1.7346
12848TIP3   OH259958   1.774   1.007   4.663 -0.3342 -0.1416 -0.2544
12848TIP3    H159959   1.772   1.090   4.615  0.6702 -1.3270 -2.5365
12848TIP3    H259960   1.689   1.003   4.707 -1.3285  1.1235 -1.9178
12849TIP3   OH259961   1.579   5.584   0.066  0.2402 -0.6501  0.4611
12849TIP3    H159962   1.615   5.509   0.112  2.3379  1.4374  2.4617
12849TIP3    H259963   1.493   5.597   0.104  0.1538 -1.5848  0.6009
12850TIP3   OH259964   1.200   0.283  16.722  0.1910 -0.4228 -0.7441
12850TIP3    H159965   1.296   0.285  16.717  0.1352  1.8885 -2.4989
12850TIP3    H259966   1.181   0.295  16.815  1.6224  0.6946 -0.5536
12851TIP3   OH259967   0.135   4.345   0.659  0.1674 -0.3547  0.2009
12851TIP3    H159968   0.143   4.434   0.624  1.1489  0.1875  1.7225
12851TIP3    H259969   0.112   4.358   0.751 -0.2607 -1.6967  0.2973
12852TIP3   OH259970   6.454   0.261   0.014  0.8673 -0.1952  0.7149
12852TIP3    H159971   6.497   0.177   0.000 -0.6363 -0.8749 -0.0519
12852TIP3    H259972   6.379   0.241   0.070  0.4868  0.6439  0.5262
12853TIP3   OH259973   0.826   1.845  15.131  0.0730  0.0925 -0.5381
12853TIP3    H159974   0.734   1.836  15.107  0.5552 -0.8726 -2.2761
12853TIP3    H259975   0.825   1.862  15.225 -2.0134  4.0094 -1.0551
12854TIP3   OH259976   6.148   5.965   4.822  0.5244  0.2756  0.0910
12854TIP3    H159977   6.146   6.029   4.751  0.3954 -0.4246 -0.5504
12854TIP3    H259978   6.240   5.962   4.849  0.6753  0.1262 -0.4330
12855TIP3   OH259979   2.657   2.697  13.753  0.1344 -0.0392  0.0782
12855TIP3    H159980   2.680   2.627  13.692 -0.0942 -0.6061  0.6389
12855TIP3    H259981   2.653   2.655  13.839  0.8445  0.8290  0.5541
12856TIP3   OH259982   1.534   0.170   1.788 -0.5203  0.3994 -0.1770
12856TIP3    H159983   1.574   0.152   1.703 -1.1917 -1.7201 -0.1113
12856TIP3    H259984   1.608   0.184   1.847 -0.0430  1.6416 -1.0353
12857TIP3   OH259985   3.958   3.722   0.712 -0.5499 -0.2250  0.3477
12857TIP3    H159986   4.004   3.678   0.784 -0.0786 -0.0330  0.1639
12857TIP3    H259987   3.896   3.656   0.681  1.2995 -1.4154 -1.0403
12858TIP3   OH259988   2.534   1.816   3.173  0.2717  0.2299 -0.0548
12858TIP3    H159989   2.582   1.766   3.239  0.0615  2.6813  2.1711
12858TIP3    H259990   2.547   1.907   3.199 -2.9620  1.1469 -1.1968
12859TIP3   OH259991   5.162   6.365  16.938 -0.0403 -0.1821  0.1579
12859TIP3    H159992   5.155   6.349  16.844  0.7375 -0.0195  0.0666
12859TIP3    H259993   5.077   6.337  16.974  0.3271 -2.0585 -0.3332
12860TIP3   OH259994   5.436   1.035  11.541 -0.1393 -0.2396 -0.0387
12860TIP3    H159995   5.510   1.021  11.600  1.2029 -1.6117 -1.9275
12860TIP3    H259996   5.366   0.980  11.577 -0.1458  0.7356  1.5236
12861TIP3   OH259997   4.963   5.821  16.262  0.5207 -0.2948  0.4171
12861TIP3    H159998   4.889   5.828  16.201 -0.2835 -1.5575  1.1953
12861TIP3    H259999   5.010   5.903  16.252 -0.5980  0.2540 -0.6187
12862TIP3   OH260000   5.569   4.570  13.177  0.1513 -0.4009 -0.2279
12862TIP3    H160001   5.552   4.478  13.196  0.1725 -0.5347 -0.8526
12862TIP3    H260002   5.652   4.570  13.128 -0.0262 -0.0817 -0.5333
12863TIP3   OH260003   1.585   6.187   3.277  0.1958  0.4857  0.5702
12863TIP3    H160004   1.500   6.145   3.284  0.6362 -0.5641 -0.1850
12863TIP3    H260005   1.593   6.238   3.358 -0.4738 -0.6538  1.3860
12864TIP3   OH260006   3.319   3.253   3.189 -0.0924  0.1809  0.4215
12864TIP3    H160007   3.308   3.162   3.161  0.3165 -0.0649  1.0268
12864TIP3    H260008   3.403   3.280   3.150  0.6273 -0.2579  1.6007
12865TIP3   OH260009   3.590   1.297   3.135 -0.0919  0.0828  0.9419
12865TIP3    H160010   3.559   1.245   3.061 -1.6457  0.7224  1.0987
12865TIP3    H260011   3.563   1.246   3.212 -1.2516  0.8772  1.0880
12866TIP3   OH260012   6.467   0.433   0.986 -0.0394 -0.6644 -0.5852
12866TIP3    H160013   6.522   0.355   0.990 -0.5947 -1.1099 -1.3608
12866TIP3    H260014   6.386   0.404   0.945 -0.4167  0.2386 -0.5244
12867TIP3   OH260015   3.360   0.973  14.741 -0.6845  0.1165  0.5445
12867TIP3    H160016   3.303   1.000  14.812 -0.1590  0.4354  0.8538
12867TIP3    H260017   3.374   0.879  14.755 -1.7302 -0.1332  0.0274
12868TIP3   OH260018   5.523   0.837  12.472  0.5102 -0.2845 -0.0029
12868TIP3    H160019   5.495   0.753  12.508 -0.2793  0.8249  2.1981
12868TIP3    H260020   5.555   0.886  12.548 -0.3269  1.8976 -0.9619
12869TIP3   OH260021   3.130   5.671  13.401  0.1178 -0.2998  0.5934
12869TIP3    H160022   3.061   5.678  13.467  0.6831  1.7525  1.0300
12869TIP3    H260023   3.086   5.689  13.318 -0.0424  0.0975  0.7641
12870TIP3   OH260024   2.576   3.739  16.875  0.1448 -0.3756 -0.4144
12870TIP3    H160025   2.627   3.819  16.870  1.7153 -1.1566  1.7068
12870TIP3    H260026   2.487   3.768  16.896  0.9332  0.7918  1.5280
12871TIP3   OH260027   5.477   5.609  17.345  0.5468  0.2857  0.3023
12871TIP3    H160028   5.552   5.562  17.382  0.7380  0.8848  0.6879
12871TIP3    H260029   5.515   5.661  17.273  0.1090 -1.2084 -1.0617
12872TIP3   OH260030   2.802   3.839   4.430 -0.0541  0.6569 -0.1496
12872TIP3    H160031   2.745   3.763   4.445 -1.8442  1.6930 -1.2796
12872TIP3    H260032   2.805   3.883   4.515 -1.0456  0.6299 -0.0849
12873TIP3   OH260033   2.931   0.195   1.882 -0.0408 -0.0495  0.4476
12873TIP3    H160034   2.839   0.219   1.889 -0.0772 -0.4723  1.6130
12873TIP3    H260035   2.972   0.271   1.840 -0.9944 -0.0798 -0.5697
12874TIP3   OH260036   0.295   5.668  15.039 -0.6764  0.1304  0.2328
12874TIP3    H160037   0.285   5.609  14.964 -0.1842 -0.2291  0.4464
12874TIP3    H260038   0.218   5.724  15.035 -0.7297  0.0191 -0.4566
12875TIP3   OH260039   3.071   1.032   2.170 -0.1070 -0.0530 -0.1475
12875TIP3    H160040   2.995   1.079   2.134  0.8150  2.3338  0.8240
12875TIP3    H260041   3.034   0.977   2.239 -1.1049  0.1673 -0.4878
12876TIP3   OH260042   4.959   4.199   0.814 -0.2478 -0.2836  0.0140
12876TIP3    H160043   4.868   4.217   0.837 -0.2320  0.1870 -0.2737
12876TIP3    H260044   4.964   4.217   0.720  0.2297  0.0717  0.0986
12877TIP3   OH260045   2.261   4.501   1.685  0.1037 -0.2326 -0.2991
12877TIP3    H160046   2.303   4.416   1.687 -0.6192 -0.6531  2.7309
12877TIP3    H260047   2.332   4.564   1.700  0.1143 -0.7376  2.1526
12878TIP3   OH260048   5.861   3.178   3.547 -0.2202  0.0046 -0.0160
12878TIP3    H160049   5.941   3.125   3.549 -0.1479  0.1086 -0.1533
12878TIP3    H260050   5.892   3.268   3.547 -0.3439  0.0470  0.1748
12879TIP3   OH260051   5.798   5.367  14.166 -0.1562 -0.2656 -0.3057
12879TIP3    H160052   5.788   5.273  14.151  0.7697 -0.5148  0.5207
12879TIP3    H260053   5.708   5.401  14.167 -0.4257 -0.8374 -2.3542
12880TIP3   OH260054   2.290   3.577   2.067 -0.1156 -0.1934 -0.4370
12880TIP3    H160055   2.364   3.516   2.069  0.1505  0.1412  1.4200
12880TIP3    H260056   2.232   3.547   2.137 -1.2764  0.1461 -1.2184
12881TIP3   OH260057   5.452   1.949  12.848  0.0704  0.2817  0.1729
12881TIP3    H160058   5.497   1.989  12.922 -0.5341  0.9869  0.1754
12881TIP3    H260059   5.365   1.928  12.881  0.3700 -1.0369  0.1607
12882TIP3   OH260060   5.791   6.500   5.624  0.1440 -0.4312 -0.1248
12882TIP3    H160061   5.733   6.425   5.634  0.4856 -0.7469 -0.4673
12882TIP3    H260062   5.879   6.463   5.621  0.2788 -0.0842 -0.9415
12883TIP3   OH260063   0.336   0.408  13.521  0.6034  0.4013 -0.3873
12883TIP3    H160064   0.297   0.339  13.467  1.4663  0.1053 -0.6433
12883TIP3    H260065   0.294   0.398  13.606  0.7741 -0.4971 -0.4006
12884TIP3   OH260066   2.584   6.266  15.122  0.0797 -0.3855  0.0177
12884TIP3    H160067   2.597   6.175  15.094  0.3580  0.6173 -3.6059
12884TIP3    H260068   2.492   6.269  15.150  0.1338 -1.8332  0.4056
12885TIP3   OH260069   5.926   5.207   5.512  0.2963 -0.2389  0.0874
12885TIP3    H160070   5.892   5.163   5.434  0.7329  2.0268 -1.4914
12885TIP3    H260071   5.856   5.268   5.537  0.2761 -0.7454  1.3228
12886TIP3   OH260072   5.605   3.917   5.020  0.3748 -0.2492 -0.3048
12886TIP3    H160073   5.655   3.857   4.965  0.5354 -0.8396  0.4704
12886TIP3    H260074   5.548   3.965   4.959  1.3733 -0.0676 -1.1074
12887TIP3   OH260075   1.864   3.233   3.705 -0.0451 -0.0922  0.5222
12887TIP3    H160076   1.787   3.277   3.742  0.6180  1.4535  0.1405
12887TIP3    H260077   1.863   3.258   3.613  0.7345 -0.3240  0.4454
12888TIP3   OH260078   0.687   0.120  14.413 -0.4049  0.1506  0.5797
12888TIP3    H160079   0.751   0.184  14.443 -1.0642  0.2580  1.8073
12888TIP3    H260080   0.640   0.164  14.343  0.6423  0.1762 -0.1279
12889TIP3   OH260081   1.788   0.683   1.433  0.5792  0.0596  0.9582
12889TIP3    H160082   1.751   0.602   1.396  0.9031  0.8032 -1.1535
12889TIP3    H260083   1.759   0.684   1.524 -0.8350 -1.5971  0.5733
12890TIP3   OH260084   1.818   2.289  12.172 -0.4581  0.0384  0.1888
12890TIP3    H160085   1.802   2.238  12.251 -1.0327  0.3246  0.2624
12890TIP3    H260086   1.756   2.362  12.177 -0.7922 -0.1765 -0.7335
12891TIP3   OH260087   5.792   2.315   0.809 -0.3300  0.0310 -0.3038
12891TIP3    H160088   5.839   2.233   0.792 -0.6009 -0.0151 -0.8535
12891TIP3    H260089   5.821   2.375   0.740 -0.8696  0.0870 -0.4892
12892TIP3   OH260090   4.204   3.135   4.131  0.0693  0.4737  0.0396
12892TIP3    H160091   4.235   3.045   4.142  3.1101  1.2759 -1.0126
12892TIP3    H260092   4.163   3.136   4.045  1.9999  0.4772 -0.9510
12893TIP3   OH260093   6.132   2.858  16.453  0.2840 -0.1246  0.1405
12893TIP3    H160094   6.091   2.944  16.462 -0.2348 -0.4676  1.2292
12893TIP3    H260095   6.063   2.796  16.477  0.7741 -0.8356 -0.2497
12894TIP3   OH260096   5.064   2.712  14.037 -0.4519 -0.3473  0.2248
12894TIP3    H160097   5.125   2.641  14.056 -1.2994 -1.0019  0.5639
12894TIP3    H260098   5.061   2.763  14.118 -0.2450 -0.2237  0.1562
12895TIP3   OH260099   1.452   6.321  15.610  0.2987  0.4438 -0.6129
12895TIP3    H160100   1.443   6.411  15.579 -0.0355 -0.4127 -3.2124
12895TIP3    H260101   1.363   6.290  15.623  0.3611  0.1054 -0.9600
12896TIP3   OH260102   3.418   0.200   2.429 -0.5467 -0.1822 -0.3005
12896TIP3    H160103   3.486   0.180   2.364 -0.0841  2.5153 -0.7495
12896TIP3    H260104   3.342   0.148   2.401  0.9286 -2.3872 -0.4324
12897TIP3   OH260105   0.373   2.471   0.335  0.7011 -0.0665 -1.0023
12897TIP3    H160106   0.454   2.504   0.374 -0.8534 -0.7451  3.3782
12897TIP3    H260107   0.315   2.548   0.331 -0.4876 -0.6389  2.2649
12898TIP3   OH260108   3.588   1.015  16.356  0.2401 -0.0287 -0.0014
12898TIP3    H160109   3.572   1.074  16.430 -1.3126 -2.3831  1.6573
12898TIP3    H260110   3.522   1.040  16.291 -1.2962 -0.7212  1.2298
12899TIP3   OH260111   3.636   3.091   2.272  0.2415  0.2466 -0.3966
12899TIP3    H160112   3.631   3.138   2.189  0.1624 -0.0540 -0.5661
12899TIP3    H260113   3.618   3.000   2.248 -0.7546  0.3016  0.0942
12900TIP3   OH260114   6.430   4.171   0.928  0.0309  0.0292  0.2917
12900TIP3    H160115   6.461   4.260   0.945  1.9441 -0.5388  0.0497
12900TIP3    H260116   6.509   4.117   0.932 -1.1093 -1.7012  0.6186
12901TIP3   OH260117   0.235   5.246   1.760 -0.2721  0.8013 -0.2264
12901TIP3    H160118   0.277   5.248   1.674  0.2158  0.1282 -0.0159
12901TIP3    H260119   0.154   5.295   1.749 -0.3845  0.4199 -1.1640
12902TIP3   OH260120   2.703   6.527   5.905  0.2447  0.5366  0.0717
12902TIP3    H160121   2.684   6.440   5.869  1.8760  0.7256 -1.3761
12902TIP3    H260122   2.618   6.571   5.908 -0.5424 -0.9364  0.3964
12903TIP3   OH260123   4.226   1.150  12.357 -0.2663  0.4350  0.1002
12903TIP3    H160124   4.228   1.183  12.267  0.3698  1.6884  0.5455
12903TIP3    H260125   4.141   1.108  12.366 -0.0833 -0.2750 -1.2740
12904TIP3   OH260126   3.807   6.560   2.348  0.1453  0.4708  0.2329
12904TIP3    H160127   3.785   6.470   2.324  2.3386  0.0942 -0.6127
12904TIP3    H260128   3.829   6.554   2.441 -0.4995  0.3140  0.3831
12905TIP3   OH260129   1.645   5.982   2.182  0.0922  0.4580 -0.1831
12905TIP3    H160130   1.712   5.936   2.232 -0.7233 -0.5325  0.0284
12905TIP3    H260131   1.679   5.984   2.093  1.0274  1.2089  0.1780
12906TIP3   OH260132   2.669   4.003  16.827 -0.2326 -0.2417  0.0439
12906TIP3    H160133   2.746   4.016  16.772  2.2723  0.6888  3.4233
12906TIP3    H260134   2.624   4.088  16.827 -1.3964 -0.7910 -1.9458
12907TIP3   OH260135   1.934   3.472   6.081 -0.0848  0.3235  0.2354
12907TIP3    H160136   1.938   3.544   6.144  0.6467  1.3271 -0.9192
12907TIP3    H260137   1.841   3.467   6.057 -0.8218 -1.5649  2.9889
12908TIP3   OH260138   0.760   1.419  14.594  0.2751  0.4936  0.4019
12908TIP3    H160139   0.726   1.464  14.671  3.9278  0.4571  2.2744
12908TIP3    H260140   0.741   1.479  14.521 -0.2068  2.2368  1.8941
12909TIP3   OH260141   4.363   6.059  16.046  0.3044 -0.0270  0.2652
12909TIP3    H160142   4.276   6.095  16.058  0.2224 -0.3727  0.7296
12909TIP3    H260143   4.407   6.121  15.988 -0.5292 -0.3047 -0.7077
12910TIP3   OH260144   5.289   4.285  16.451 -0.2964 -0.0273  0.2088
12910TIP3    H160145   5.292   4.258  16.542 -1.5841  0.4905  0.4170
12910TIP3    H260146   5.378   4.316  16.432  0.4238 -1.6427  0.7895
12911TIP3   OH260147   0.012   2.063   4.035 -0.4827  0.6047  0.1614
12911TIP3    H160148  -0.041   2.096   3.964 -0.5577  1.4903  0.6188
12911TIP3    H260149  -0.025   2.103   4.114 -0.2360 -0.1442  0.6688
12912TIP3   OH260150   2.015   6.426   2.478  0.1049  0.0749 -0.3635
12912TIP3    H160151   2.010   6.357   2.412 -1.6280  0.3728 -0.5845
12912TIP3    H260152   1.928   6.466   2.478  0.7421  1.5529  0.5257
12913TIP3   OH260153   5.899   0.529   6.370  0.4685  0.6259 -0.4511
12913TIP3    H160154   5.805   0.548   6.377  0.5640  0.5241  1.7736
12913TIP3    H260155   5.902   0.442   6.330 -0.4383  0.3525  0.0168
12914TIP3   OH260156   0.068   3.691  11.443 -0.2383  0.2016  0.1414
12914TIP3    H160157   0.032   3.668  11.528 -0.0851  1.6662  0.6314
12914TIP3    H260158  -0.006   3.730  11.396  0.0140  0.6770  0.1313
12915TIP3   OH260159   5.608   2.520   2.274 -0.2808  0.6445  0.2325
12915TIP3    H160160   5.547   2.554   2.208 -0.2544  1.0856  0.4304
12915TIP3    H260161   5.653   2.598   2.307 -1.6430  0.6793  2.1261
12916TIP3   OH260162   0.899   1.518   2.250  0.3353 -0.3178  0.4093
12916TIP3    H160163   0.881   1.427   2.273  1.3091 -0.6903 -0.2175
12916TIP3    H260164   0.877   1.524   2.157  0.2817  0.0778  0.4484
12917TIP3   OH260165   6.519   4.527   3.274  0.0450  0.0797 -0.3997
12917TIP3    H160166   6.584   4.597   3.275  0.7495 -0.5568 -0.4127
12917TIP3    H260167   6.511   4.499   3.365  1.6377 -1.4699 -0.6645
12918TIP3   OH260168   3.140   4.259   5.050  0.6528  0.2060  0.5169
12918TIP3    H160169   3.199   4.229   4.980  0.3057  2.1186 -0.6771
12918TIP3    H260170   3.199   4.282   5.122  1.0761 -1.1227  0.6120
12919TIP3   OH260171   0.920   0.388  13.448  0.3860 -0.0282 -0.4523
12919TIP3    H160172   0.955   0.347  13.369  0.4167 -1.3085  0.1957
12919TIP3    H260173   0.880   0.469  13.417 -0.5085 -0.9871 -1.9345
12920TIP3   OH260174   2.598   3.513   5.838 -0.0646 -0.6408 -0.0961
12920TIP3    H160175   2.519   3.517   5.783  0.0265 -0.2628 -0.2049
12920TIP3    H260176   2.582   3.440   5.898 -1.0744  0.2243  0.7483
12921TIP3   OH260177   1.585   1.385  11.189  0.5609 -0.1989  0.6849
12921TIP3    H160178   1.538   1.432  11.258 -0.9392  0.8569 -0.9551
12921TIP3    H260179   1.547   1.419  11.108  0.0698 -3.6123 -0.6518
12922TIP3   OH260180   1.774   2.137   0.205 -0.3664  0.1466  0.0471
12922TIP3    H160181   1.865   2.108   0.215 -0.1017  1.0462  0.3324
12922TIP3    H260182   1.722   2.067   0.246  0.1966 -0.3240 -0.0257
12923TIP3   OH260183   1.750   5.329  11.328  0.5130 -0.2891 -0.2436
12923TIP3    H160184   1.791   5.414  11.345  0.9567 -0.9181  2.3155
12923TIP3    H260185   1.799   5.267  11.383 -1.4292 -1.7342 -0.0292
12924TIP3   OH260186   5.262   6.322   4.014 -0.1966  0.4215  0.0745
12924TIP3    H160187   5.243   6.380   4.088  0.2944  1.0634 -0.2926
12924TIP3    H260188   5.340   6.359   3.973 -0.7324  0.3599 -1.0507
12925TIP3   OH260189   6.245   1.471  13.249 -0.3739 -0.7173 -0.1691
12925TIP3    H160190   6.247   1.427  13.164  1.3878 -0.6033 -0.2195
12925TIP3    H260191   6.237   1.564  13.228 -3.1554 -0.8707 -0.0841
12926TIP3   OH260192   2.755   1.671  13.243  0.1748  0.5534 -0.0185
12926TIP3    H160193   2.785   1.624  13.321 -0.6320  0.4054  0.2107
12926TIP3    H260194   2.816   1.745  13.235  0.1942  0.6420  0.8273
12927TIP3   OH260195   2.946   5.433   1.962 -0.9321  0.2063  0.2348
12927TIP3    H160196   3.038   5.407   1.962 -1.0261 -0.1338  0.6579
12927TIP3    H260197   2.923   5.441   1.869 -0.6675 -0.3957  0.1164
12928TIP3   OH260198   6.228   2.788  11.654  1.0180  0.0645  0.2495
12928TIP3    H160199   6.297   2.825  11.599  0.3544  1.4264  0.3147
12928TIP3    H260200   6.170   2.743  11.592  1.5446 -0.4424  0.1130
12929TIP3   OH260201   4.436   6.066  15.239  0.0095 -0.4922  0.0889
12929TIP3    H160202   4.463   5.975  15.249 -0.6479 -0.6305  0.6703
12929TIP3    H260203   4.390   6.069  15.155  2.6326 -0.0377 -1.4661
12930TIP3   OH260204   0.381   3.430  16.448  0.1076  0.1321 -0.4087
12930TIP3    H160205   0.303   3.470  16.488  0.5865  1.2446 -0.5399
12930TIP3    H260206   0.360   3.425  16.355  0.2122  0.5205 -0.4578
12931TIP3   OH260207   2.407   1.842  14.655  0.0268  0.4518 -0.4284
12931TIP3    H160208   2.335   1.804  14.605  1.4134 -2.0479 -0.6922
12931TIP3    H260209   2.467   1.876  14.588 -0.0179  0.8344 -0.2784
12932TIP3   OH260210   6.244   3.952  16.148  0.0656  0.3658  0.3364
12932TIP3    H160211   6.285   3.927  16.231  0.8202  2.4887  0.6604
12932TIP3    H260212   6.317   3.978  16.092 -0.5407  0.2516 -0.5198
12933TIP3   OH260213   2.627   6.108  14.177 -0.1182 -0.0340  0.2940
12933TIP3    H160214   2.601   6.141  14.262  0.1140 -0.5044  0.5531
12933TIP3    H260215   2.594   6.172  14.114  0.4393  0.7626  0.7920
12934TIP3   OH260216   3.052   6.433   4.598  0.0859  0.4371 -0.4106
12934TIP3    H160217   2.959   6.456   4.601 -0.0149 -0.0906  0.6150
12934TIP3    H260218   3.056   6.343   4.627  0.8397  0.1583 -1.3036
12935TIP3   OH260219   4.665   3.114   4.486  0.6839 -0.2726 -0.3168
12935TIP3    H160220   4.601   3.167   4.534 -0.4709 -2.0835  0.2494
12935TIP3    H260221   4.626   3.100   4.400  0.0709 -1.7264  0.1685
12936TIP3   OH260222   4.154   3.240  11.655 -0.1029 -0.4428  0.3044
12936TIP3    H160223   4.204   3.224  11.575  0.6933 -1.9832  1.0555
12936TIP3    H260224   4.084   3.175  11.652  0.5285 -1.2031  1.3075
12937TIP3   OH260225   6.227   4.807   4.066  0.0285  0.6550  0.1307
12937TIP3    H160226   6.314   4.800   4.107  0.5595  0.4898 -0.9947
12937TIP3    H260227   6.214   4.901   4.054  0.6556  0.6263 -0.9135
12938TIP3   OH260228   5.639   3.875   2.314  0.6493  0.1556  0.2288
12938TIP3    H160229   5.706   3.852   2.250  0.7637 -0.0376  0.4147
12938TIP3    H260230   5.565   3.906   2.262  1.8230  2.9931  0.0727
12939TIP3   OH260231   0.573   5.879   0.683 -0.3472  0.5704  0.2615
12939TIP3    H160232   0.637   5.909   0.618  0.2081  0.6415  0.8397
12939TIP3    H260233   0.562   5.954   0.742 -0.8452  0.5042  0.2581
12940TIP3   OH260234   0.646   2.965  13.268 -0.2184  0.2933  0.9037
12940TIP3    H160235   0.649   2.885  13.320  1.0891 -0.7904 -0.7380
12940TIP3    H260236   0.730   3.008  13.284  0.0698  0.1014 -0.0356
12941TIP3   OH260237   4.872   4.208   2.580 -0.3922  0.1274 -0.0072
12941TIP3    H160238   4.962   4.239   2.574 -0.6814  1.0978  0.4154
12941TIP3    H260239   4.853   4.208   2.674 -0.1266 -2.2199  0.0890
12942TIP3   OH260240   3.504   6.196  13.595  0.0071 -0.0911 -0.0370
12942TIP3    H160241   3.519   6.179  13.688  1.9708 -1.0103 -0.4574
12942TIP3    H260242   3.504   6.109  13.554  2.3370  0.3820 -1.2490
12943TIP3   OH260243   0.714   4.039  10.988  0.1452 -0.0122  0.4545
12943TIP3    H160244   0.778   4.058  10.919  0.2655 -2.5698 -0.2477
12943TIP3    H260245   0.629   4.059  10.948  0.2583 -0.8060 -0.2001
12944TIP3   OH260246   4.699   1.569   0.117 -0.7025 -0.4442 -0.0364
12944TIP3    H160247   4.650   1.508   0.062 -1.5160  0.4418 -0.3216
12944TIP3    H260248   4.773   1.595   0.063 -1.1172 -0.1164 -0.4593
12945TIP3   OH260249   4.788   1.520  13.591 -0.4690 -0.7542 -0.1609
12945TIP3    H160250   4.711   1.574  13.606 -0.9673 -1.0118 -1.5702
12945TIP3    H260251   4.787   1.503  13.496  1.6013 -0.3291 -0.3012
12946TIP3   OH260252   5.592   3.900  14.122 -0.8079  0.0594  0.3136
12946TIP3    H160253   5.508   3.924  14.082  0.0845  1.9910 -0.5114
12946TIP3    H260254   5.637   3.849  14.055 -0.3683  1.0764 -0.1788
12947TIP3   OH260255   6.077   4.553   5.546 -0.0393  0.4088 -0.4285
12947TIP3    H160256   6.111   4.578   5.460 -0.8029 -0.8526 -1.1254
12947TIP3    H260257   6.113   4.619   5.605  1.1280  0.8673 -1.5832
12948TIP3   OH260258   1.732   3.455  12.015 -0.2385  0.1374  0.5371
12948TIP3    H160259   1.680   3.376  12.024 -0.5110  0.3464  0.8238
12948TIP3    H260260   1.707   3.491  11.930 -0.7168  0.3422  0.7596
12949TIP3   OH260261   3.351   2.918  15.496  0.3562 -0.2760  0.7169
12949TIP3    H160262   3.367   2.843  15.439  0.3997 -1.0134  1.6604
12949TIP3    H260263   3.390   2.892  15.580  2.5035  1.7446  0.4493
12950TIP3   OH260264   2.185   5.761   1.833  0.1938 -0.1918  0.2151
12950TIP3    H160265   2.182   5.705   1.910 -0.2969  1.2567  1.3020
12950TIP3    H260266   2.232   5.840   1.862  0.3992  0.2011 -1.0991
12951TIP3   OH260267   2.880   1.610  15.791 -0.0328  0.3313 -0.5587
12951TIP3    H160268   2.785   1.624  15.786 -0.1753 -0.0847  0.5829
12951TIP3    H260269   2.916   1.695  15.816  0.0996  0.9279 -2.5984
12952TIP3   OH260270   5.101   4.605  14.846  0.1479 -0.4734  0.7419
12952TIP3    H160271   5.036   4.642  14.906 -0.2956 -1.0385  0.6140
12952TIP3    H260272   5.059   4.610  14.760 -0.0246 -1.5065  0.7525
12953TIP3   OH260273   5.196   5.597  10.852  0.0379  0.1235 -0.4712
12953TIP3    H160274   5.183   5.645  10.933  1.9286 -0.1733  0.0630
12953TIP3    H260275   5.165   5.656  10.783  0.6626  1.3761  0.2885
12954TIP3   OH260276   3.382   5.018   4.512  0.5586 -0.0489 -0.1729
12954TIP3    H160277   3.302   5.071   4.516  0.6964  0.0805  1.8060
12954TIP3    H260278   3.394   4.987   4.602  2.8720  0.1229 -0.3833
12955TIP3   OH260279   3.119   6.723   3.341  0.3043 -0.3257  0.4425
12955TIP3    H160280   3.027   6.698   3.347 -0.1691  1.3789  0.9150
12955TIP3    H260281   3.150   6.680   3.261 -1.5142  0.7942 -0.9553
12956TIP3   OH260282   6.601   0.145  14.049 -0.1259  0.3294  0.0035
12956TIP3    H160283   6.651   0.224  14.070 -0.3841  0.3678  0.4982
12956TIP3    H260284   6.588   0.148  13.954 -0.1669  0.8998  0.0261
12957TIP3   OH260285   0.539   5.947   6.316  0.0195  0.1164  0.5437
12957TIP3    H160286   0.572   5.861   6.341  0.8140  0.2381 -0.0413
12957TIP3    H260287   0.525   5.993   6.399  0.4601 -0.2645  0.8287
12958TIP3   OH260288   0.909   2.685  16.502  0.5815 -0.3538 -0.1494
12958TIP3    H160289   0.893   2.652  16.590 -1.0356 -1.6815 -0.8632
12958TIP3    H260290   1.001   2.666  16.484  0.5862 -1.2700  0.7851
12959TIP3   OH260291   6.513   6.199  14.144 -0.2611 -0.1043 -0.4512
12959TIP3    H160292   6.499   6.275  14.088  1.4267  1.5535  1.2126
12959TIP3    H260293   6.505   6.233  14.233 -0.3723 -2.0926  0.3595
12960TIP3   OH260294   5.896   5.103   5.985 -0.1682 -0.0952  0.3213
12960TIP3    H160295   5.849   5.041   5.930  0.7993 -0.1745 -0.4430
12960TIP3    H260296   5.924   5.052   6.060  0.4757 -0.5570 -0.2203
12961TIP3   OH260297   0.559   3.442   1.217 -0.4283 -0.2899  0.2549
12961TIP3    H160298   0.494   3.420   1.150  0.0230  0.4201 -0.4270
12961TIP3    H260299   0.602   3.521   1.184 -1.9657  1.6976  2.5662
12962TIP3   OH260300   6.337   4.751  16.505  0.2720  0.0741 -0.4935
12962TIP3    H160301   6.425   4.782  16.484 -0.4377  1.5492 -1.5020
12962TIP3    H260302   6.347   4.704  16.588  2.0384 -0.0542 -0.7333
12963TIP3   OH260303   2.920   0.737  11.105  0.5009  0.0436  0.1558
12963TIP3    H160304   2.906   0.795  11.030  1.7818  0.4973  0.2393
12963TIP3    H260305   2.911   0.649  11.070 -0.8060  0.2665 -0.1175
12964TIP3   OH260306   1.372   5.790  14.645  0.0539  0.4674  0.1773
12964TIP3    H160307   1.329   5.795  14.559 -2.1906 -2.7599  0.9365
12964TIP3    H260308   1.464   5.773  14.624 -0.3658  0.1215 -1.6053
12965TIP3   OH260309   2.193   1.557  12.600  0.0527 -0.1519  0.4916
12965TIP3    H160310   2.201   1.647  12.630  3.5669  0.0029 -0.4480
12965TIP3    H260311   2.187   1.505  12.680  0.4217  0.7574  1.1195
12966TIP3   OH260312   0.596   2.182   2.600  0.7669 -0.2456  0.1989
12966TIP3    H160313   0.522   2.228   2.561  1.0086 -1.0785 -1.3351
12966TIP3    H260314   0.558   2.104   2.640  0.8263 -0.9536 -1.0540
12967TIP3   OH260315   2.987   4.119  14.612  0.0707  0.4420  0.0638
12967TIP3    H160316   3.021   4.116  14.522 -1.3189  0.9524 -0.5019
12967TIP3    H260317   2.982   4.027  14.638  0.5412  0.2939 -0.3501
12968TIP3   OH260318   0.259   2.923   1.094  0.4265  0.1772  0.0866
12968TIP3    H160319   0.350   2.900   1.111  0.4809 -0.5488 -1.0737
12968TIP3    H260320   0.261   2.972   1.011 -0.0272  1.9379  1.0646
12969TIP3   OH260321   4.301   5.082   5.740  0.1081  0.0888  0.4952
12969TIP3    H160322   4.329   5.052   5.654 -2.2909  2.0223 -1.1144
12969TIP3    H260323   4.287   5.001   5.790  3.6346 -1.0294 -0.0873
12970TIP3   OH260324   4.034   6.683   1.765  0.4574 -0.0877 -0.0216
12970TIP3    H160325   4.013   6.694   1.858  0.2573 -0.3363 -0.0377
12970TIP3    H260326   3.984   6.752   1.721 -1.0742 -1.2365 -0.1596
12971TIP3   OH260327   6.352   4.237   0.233  0.0441  0.8367 -0.3811
12971TIP3    H160328   6.445   4.246   0.256 -0.4097  1.8066  1.2394
12971TIP3    H260329   6.314   4.322   0.256 -1.2547  0.4404 -0.9975
12972TIP3   OH260330   4.037   4.783  16.980  0.6555  0.0521 -0.6808
12972TIP3    H160331   4.075   4.802  16.894  0.1963 -1.4129 -1.2414
12972TIP3    H260332   4.060   4.858  17.034  1.9632  0.4617 -1.7634
12973TIP3   OH260333   1.379   0.963   5.982  0.5525 -0.2572  0.3918
12973TIP3    H160334   1.407   0.882   5.939  1.8017 -0.2412  1.1178
12973TIP3    H260335   1.358   1.023   5.910  1.3568 -0.6549 -0.1804
12974TIP3   OH260336   1.281   5.993   1.929  0.0734 -0.0004 -0.6955
12974TIP3    H160337   1.205   6.042   1.900  0.6980  0.4047 -1.7087
12974TIP3    H260338   1.291   5.924   1.863  1.0147  0.4164 -1.0083
12975TIP3   OH260339   6.501   5.727  14.850 -0.3446 -0.1430 -0.4454
12975TIP3    H160340   6.417   5.772  14.841 -0.8252 -0.5710  1.3423
12975TIP3    H260341   6.509   5.673  14.772 -1.3794  0.4742 -0.9921
12976TIP3   OH260342   6.100   3.110   0.240 -0.2987  0.2057 -0.3030
12976TIP3    H160343   6.181   3.123   0.289 -1.2456  2.0711  0.8943
12976TIP3    H260344   6.043   3.064   0.301 -0.6994  0.3999 -0.5297
12977TIP3   OH260345   1.004   5.641   0.962  0.4075 -0.0132 -0.0174
12977TIP3    H160346   0.930   5.701   0.954 -0.5799 -1.1250  0.5002
12977TIP3    H260347   1.036   5.654   1.051  2.1074  1.8389 -0.8124
12978TIP3   OH260348   4.019   5.227  10.873 -0.0091  0.0418 -0.0511
12978TIP3    H160349   4.017   5.132  10.860  2.1592 -0.1869  0.8891
12978TIP3    H260350   3.951   5.260  10.814  0.3868 -1.9380 -1.7750
12979TIP3   OH260351   5.881   1.434   3.236  0.2020 -0.4429  0.2291
12979TIP3    H160352   5.892   1.345   3.271  0.2952  0.0494  1.5273
12979TIP3    H260353   5.805   1.468   3.284  0.1570  0.1664 -0.2705
12980TIP3   OH260354   4.605   6.511  15.431 -0.2642 -0.0746  0.3407
12980TIP3    H160355   4.620   6.452  15.358  1.0937  1.0794 -0.3519
12980TIP3    H260356   4.577   6.593  15.391  0.3665  0.5401  1.1193
12981TIP3   OH260357   6.014   6.720   2.592  0.9365  0.3754  0.2126
12981TIP3    H160358   5.949   6.677   2.648 -0.1513  1.5326 -0.0957
12981TIP3    H260359   6.081   6.654   2.578 -0.2560 -0.9348  0.3958
12982TIP3   OH260360   4.112   5.489   3.815 -0.2211 -0.5580 -0.4872
12982TIP3    H160361   4.122   5.414   3.757 -2.5985 -0.5623 -0.9949
12982TIP3    H260362   4.058   5.550   3.766 -2.8646 -0.8207  1.8608
12983TIP3   OH260363   4.080   5.470   4.918  0.5113  0.2581  0.1294
12983TIP3    H160364   4.137   5.474   4.995  0.0381 -3.3442  0.8566
12983TIP3    H260365   4.137   5.441   4.847  0.1645 -0.6138  0.1930
12984TIP3   OH260366   2.750   6.059  11.708 -0.3921  0.2657  0.4988
12984TIP3    H160367   2.758   6.125  11.777  1.2909  1.6994 -0.9447
12984TIP3    H260368   2.814   5.992  11.731  0.7553  1.1419 -0.0225
12985TIP3   OH260369   6.027   6.182   4.612  0.2118 -0.1688 -0.0085
12985TIP3    H160370   6.021   6.137   4.528  0.9419  1.5464 -1.0323
12985TIP3    H260371   6.120   6.180   4.634 -0.0163 -0.9299  0.9777
12986TIP3   OH260372   4.378   1.663  11.724 -0.7760 -0.6104  0.3664
12986TIP3    H160373   4.400   1.744  11.771 -0.7760  0.4705 -1.3829
12986TIP3    H260374   4.302   1.687  11.671  0.1138 -1.3035 -1.3022
12987TIP3   OH260375   1.514   4.980  15.664  0.1738  0.0566  0.1442
12987TIP3    H160376   1.596   4.993  15.617 -0.3529 -0.1972 -0.8765
12987TIP3    H260377   1.510   4.885  15.680  1.2744  0.3255  2.4884
12988TIP3   OH260378   5.299   4.557   2.800  0.2010 -0.1930  0.4986
12988TIP3    H160379   5.357   4.520   2.866  0.9808  1.6925  0.9420
12988TIP3    H260380   5.211   4.537   2.831  0.5858 -0.9270  1.1451
12989TIP3   OH260381   2.067   2.442  16.464  0.3069 -0.0639  0.0016
12989TIP3    H160382   2.131   2.460  16.533  0.0883  0.2120  0.1364
12989TIP3    H260383   2.000   2.388  16.506  0.7820 -0.9042 -0.3118
12990TIP3   OH260384   1.031   1.178   0.522  0.0010 -0.5385  0.1800
12990TIP3    H160385   0.982   1.251   0.558  0.3668 -0.1544 -0.0872
12990TIP3    H260386   1.017   1.106   0.583 -2.0331 -0.8648 -0.5855
12991TIP3   OH260387   4.322   2.719   7.221  0.4355  0.6150  0.0382
12991TIP3    H160388   4.278   2.754   7.143 -0.4675 -0.3554  0.0904
12991TIP3    H260389   4.262   2.652   7.254  1.9252 -0.7202  0.1580
12992TIP3   OH260390   3.377   1.580   4.911 -0.1574 -0.1148 -0.3829
12992TIP3    H160391   3.358   1.539   4.995  1.6075 -0.3846 -0.0726
12992TIP3    H260392   3.472   1.591   4.910 -0.3069  1.5546 -1.5880
12993TIP3   OH260393   4.633   4.741   4.974 -0.6787 -0.0926  0.1226
12993TIP3    H160394   4.569   4.725   4.905 -0.4045 -1.6414  0.1884
12993TIP3    H260395   4.584   4.732   5.056 -1.2414  2.7534  0.2156
12994TIP3   OH260396   2.763   2.573  15.558  0.0008  0.0599  0.5021
12994TIP3    H160397   2.755   2.666  15.582 -1.3843  0.2733 -0.6790
12994TIP3    H260398   2.712   2.527  15.626 -2.1928  0.4959 -0.7416
12995TIP3   OH260399   2.449   1.422   3.298  0.3654 -0.1751 -0.1298
12995TIP3    H160400   2.509   1.382   3.235  0.1886 -0.9902  0.2092
12995TIP3    H260401   2.363   1.390   3.273  0.1149  0.6345 -0.3391
12996TIP3   OH260402   6.640   2.506   2.387  0.8881 -0.5084 -0.2396
12996TIP3    H160403   6.632   2.522   2.481  0.0863 -0.6825 -0.2766
12996TIP3    H260404   6.597   2.422   2.372  0.7706 -0.3551 -0.8017
12997TIP3   OH260405   0.286   6.442  13.430  0.0160 -0.0923  0.9118
12997TIP3    H160406   0.268   6.349  13.449  0.4569  0.0988  2.3254
12997TIP3    H260407   0.300   6.444  13.335  1.0109 -1.6571  0.9817
12998TIP3   OH260408   0.415   3.499   5.651  0.0711  0.1389  0.1380
12998TIP3    H160409   0.406   3.502   5.747 -0.4417  0.9798  0.0738
12998TIP3    H260410   0.397   3.408   5.628  2.1804 -0.5720  1.0235
12999TIP3   OH260411   1.803   3.829   0.269 -0.0433  0.4561  0.0652
12999TIP3    H160412   1.890   3.836   0.307  0.9183 -0.6513 -1.8084
12999TIP3    H260413   1.772   3.742   0.295 -0.9151  1.0866  1.2647
13000TIP3   OH260414   6.401   1.954   0.221 -0.6293  0.6214 -0.1790
13000TIP3    H160415   6.496   1.945   0.217 -0.8720 -2.4393 -1.6910
13000TIP3    H260416   6.375   1.904   0.298 -1.1113  0.1501 -0.6409
13001TIP3   OH260417   5.747   2.499   3.762  0.8041 -0.2949 -0.2470
13001TIP3    H160418   5.749   2.568   3.829 -0.1075 -2.1035  1.7911
13001TIP3    H260419   5.678   2.527   3.702  0.3136  0.4794  0.6361
13002TIP3   OH260420   0.886   3.366   0.223  0.3281  0.1945 -0.3661
13002TIP3    H160421   0.966   3.359   0.276  0.0122  1.2620  0.3001
13002TIP3    H260422   0.854   3.277   0.215  0.2165  0.0161  1.5589
13003TIP3   OH260423   3.207   6.008   0.610  0.2975 -0.2501  0.0602
13003TIP3    H160424   3.165   6.020   0.525 -0.5120 -0.6477  0.3901
13003TIP3    H260425   3.249   5.923   0.604  1.0990  0.1651 -0.2834
13004TIP3   OH260426   4.671   5.829   0.767 -0.1098 -0.0104 -0.6987
13004TIP3    H160427   4.649   5.897   0.831 -0.9435 -0.4448 -0.5161
13004TIP3    H260428   4.733   5.773   0.813 -0.3603 -0.0651 -0.4253
13005TIP3   OH260429   2.772   1.083   4.242 -0.5512  0.1292 -0.8931
13005TIP3    H160430   2.845   1.027   4.218 -0.9415 -0.5458 -0.5398
13005TIP3    H260431   2.695   1.027   4.233 -0.8829  0.3942  0.1364
13006TIP3   OH260432   0.098   6.634  16.666  0.5846  0.1153 -0.7472
13006TIP3    H160433   0.174   6.656  16.719  0.1277  0.8844 -0.3811
13006TIP3    H260434   0.068   6.719  16.631 -1.4738  0.2108  1.0198
13007TIP3   OH260435   2.990   2.670   1.933 -0.4356 -0.6390  0.4670
13007TIP3    H160436   2.905   2.714   1.925 -0.3240 -0.3882  0.6928
13007TIP3    H260437   3.011   2.674   2.026  1.5650  2.5383  0.0138
13008TIP3   OH260438   2.624   5.705  11.342 -0.2414  0.4691  0.0241
13008TIP3    H160439   2.635   5.728  11.250  0.2206 -2.0233 -0.6324
13008TIP3    H260440   2.529   5.701  11.354 -0.3439 -1.1474 -0.9668
13009TIP3   OH260441   3.030   3.233   1.644  0.0471 -0.0503  0.5469
13009TIP3    H160442   3.091   3.291   1.597  0.6495 -1.4898 -0.5081
13009TIP3    H260443   3.015   3.278   1.727  1.2727  1.1471  0.1713
13010TIP3   OH260444   1.792   3.641   6.674 -0.2218 -0.0249  0.4631
13010TIP3    H160445   1.879   3.626   6.709 -0.5968 -0.9119  1.0380
13010TIP3    H260446   1.784   3.581   6.600 -1.0262 -1.3723  1.5947
13011TIP3   OH260447   2.236   4.103  16.856  0.2303  0.3225  0.1285
13011TIP3    H160448   2.179   4.047  16.803 -0.1783 -0.9227  1.7866
13011TIP3    H260449   2.251   4.180  16.802 -1.0726 -0.3814 -1.3247
13012TIP3   OH260450   5.788   5.281   0.760  0.5018 -0.0788  0.0427
13012TIP3    H160451   5.765   5.205   0.814 -1.1821  0.0556 -0.4168
13012TIP3    H260452   5.806   5.351   0.823  0.6060 -0.4632  0.4433
13013TIP3   OH260453   2.218   1.039   3.771  0.1442  0.4984  0.1291
13013TIP3    H160454   2.173   1.063   3.852  1.4655  0.9372  0.7609
13013TIP3    H260455   2.224   1.121   3.722  1.8785  0.8581  0.8874
13014TIP3   OH260456   0.807   4.529  15.620 -1.0760  0.1578 -0.5056
13014TIP3    H160457   0.767   4.461  15.675 -0.0885 -0.8068 -0.9350
13014TIP3    H260458   0.859   4.480  15.555  0.4662  1.3312 -0.2167
13015TIP3   OH260459   4.390   1.795  14.571 -0.0307  0.1692 -0.0133
13015TIP3    H160460   4.348   1.874  14.537 -1.4417 -0.5765 -0.0742
13015TIP3    H260461   4.373   1.728  14.504  0.1727 -0.4626  0.5608
13016TIP3   OH260462   4.625   0.281  17.122 -0.4317 -0.0597 -0.8944
13016TIP3    H160463   4.701   0.332  17.150 -1.2423  1.3638 -1.2299
13016TIP3    H260464   4.650   0.244  17.038  0.3397 -0.6304 -0.4256
13017TIP3   OH260465   5.950   3.258  14.196 -0.3035 -0.2782 -0.4036
13017TIP3    H160466   5.990   3.317  14.261  0.1684  0.2255 -1.1321
13017TIP3    H260467   5.860   3.247  14.227  0.3165 -1.2844  1.1667
13018TIP3   OH260468   3.913   2.418   1.657 -0.8811  0.2612 -0.6511
13018TIP3    H160469   3.859   2.367   1.596  0.5924 -0.3673 -1.4968
13018TIP3    H260470   4.002   2.409   1.622 -0.0179  0.0900  1.4668
13019TIP3   OH260471   4.025   3.820   3.406  0.0689  0.6586  0.3813
13019TIP3    H160472   4.059   3.802   3.494  0.3809  1.5669  0.4548
13019TIP3    H260473   3.935   3.851   3.421 -0.6179 -1.1625  0.2271
13020TIP3   OH260474   5.483   1.722  13.480  0.5889 -0.0664 -0.0121
13020TIP3    H160475   5.527   1.806  13.493  2.1747 -1.1657  2.3464
13020TIP3    H260476   5.401   1.730  13.528  0.2174  0.4503 -0.7001
13021TIP3   OH260477   3.965   3.097  16.422  0.3014  0.2996  0.4633
13021TIP3    H160478   3.949   3.024  16.363  1.5308 -1.5478  2.2900
13021TIP3    H260479   3.917   3.170  16.383  0.4407 -0.9870 -2.3649
13022TIP3   OH260480   3.717   5.935   6.240  1.1041  0.4222 -0.2208
13022TIP3    H160481   3.753   5.848   6.226 -0.5618 -0.4801  0.7850
13022TIP3    H260482   3.733   5.953   6.332 -0.0803  0.4070  0.0073
13023TIP3   OH260483   0.269   1.163  13.857  0.2753  0.0521  0.0160
13023TIP3    H160484   0.187   1.210  13.843 -0.4325 -0.9586  0.6343
13023TIP3    H260485   0.249   1.073  13.830  1.2037 -0.1831  0.1039
13024TIP3   OH260486   0.792   2.288   0.419  0.2249 -0.3609 -0.7949
13024TIP3    H160487   0.697   2.297   0.422  0.0772 -1.8415 -0.0640
13024TIP3    H260488   0.814   2.237   0.498  2.1667  3.8535  1.7710
13025TIP3   OH260489   4.791   0.163  14.520  1.0863  0.1191 -0.3919
13025TIP3    H160490   4.821   0.197  14.436  1.3724 -0.1150 -0.3851
13025TIP3    H260491   4.699   0.140  14.506  0.5445  1.9501 -0.0830
13026TIP3   OH260492   5.878   6.217   5.546  0.1906 -0.1489 -0.6439
13026TIP3    H160493   5.798   6.188   5.590  0.2334 -0.5671 -0.8369
13026TIP3    H260494   5.892   6.153   5.477  0.8455 -0.2338 -0.4395
13027TIP3   OH260495   6.560   3.515   5.052  0.1168  0.5251  0.7817
13027TIP3    H160496   6.509   3.511   5.133  0.0963 -2.6442  0.7616
13027TIP3    H260497   6.651   3.507   5.081  0.1747  0.2961  0.5412
13028TIP3   OH260498   1.577   0.183  11.834 -0.2601  0.4011  0.7798
13028TIP3    H160499   1.624   0.137  11.904  3.2550 -0.1695 -1.6886
13028TIP3    H260500   1.567   0.117  11.765  2.1132  2.3870 -1.6396
13029TIP3   OH260501   1.258   1.615   2.861  0.0695  0.5252 -0.5734
13029TIP3    H160502   1.320   1.588   2.794 -0.5439 -0.8500 -0.6291
13029TIP3    H260503   1.293   1.580   2.943 -0.2184  0.4121 -0.4936
13030TIP3   OH260504   5.970   2.111  15.101  0.3336  0.1063 -0.5583
13030TIP3    H160505   6.051   2.137  15.146 -0.9027  3.6091 -0.0679
13030TIP3    H260506   5.998   2.042  15.041  3.9652  1.8603 -1.2036
13031TIP3   OH260507   1.189   6.499  17.002  0.4508 -0.7644  0.2961
13031TIP3    H160508   1.108   6.549  17.014 -0.3483 -1.5336 -1.4790
13031TIP3    H260509   1.225   6.490  17.090 -0.0248  1.8022  0.8281
13032TIP3   OH260510   6.061   2.570  14.804 -0.0884  0.2288  0.0152
13032TIP3    H160511   5.999   2.541  14.737  1.4787 -2.8837 -0.2896
13032TIP3    H260512   6.020   2.547  14.887 -0.1328 -0.1175 -0.1012
13033TIP3   OH260513   2.726   3.325  12.909  0.4736  0.4306 -0.1616
13033TIP3    H160514   2.817   3.337  12.936  0.7227  0.1996 -0.8904
13033TIP3    H260515   2.679   3.397  12.952  1.2060  1.2955 -0.7722
13034TIP3   OH260516   5.792   6.511  17.216 -0.2496  0.6552 -0.1959
13034TIP3    H160517   5.779   6.433  17.164 -0.4988  0.0192  0.7867
13034TIP3    H260518   5.881   6.539  17.197  0.8957 -1.4901  1.4954
13035TIP3   OH260519   0.589   6.660   0.610  0.3362  0.5271  0.1390
13035TIP3    H160520   0.676   6.694   0.628 -0.2912  1.8860  0.7235
13035TIP3    H260521   0.540   6.735   0.578 -0.9647  0.0791  0.9982
13036TIP3   OH260522   5.438   0.177   5.240  1.2614  0.3633 -0.3055
13036TIP3    H160523   5.363   0.150   5.187  0.3590  2.1886 -0.0523
13036TIP3    H260524   5.406   0.176   5.330  2.1610 -0.7083  0.0314
13037TIP3   OH260525   5.621   1.336   2.785 -0.0453  0.4604 -0.2448
13037TIP3    H160526   5.716   1.327   2.790 -0.2156 -1.9770 -0.4507
13037TIP3    H260527   5.587   1.265   2.840 -1.7553  0.9103 -0.6585
13038TIP3   OH260528   3.425   6.198  11.188  0.0880 -0.1230 -0.5872
13038TIP3    H160529   3.368   6.259  11.141  0.3684 -0.7458 -1.7961
13038TIP3    H260530   3.364   6.141  11.236 -0.1395  2.1730  2.0663
13039TIP3   OH260531   3.770   2.687   2.367  0.0498  0.3081 -0.0006
13039TIP3    H160532   3.829   2.721   2.433  1.6854 -0.7583 -0.8394
13039TIP3    H260533   3.824   2.628   2.314 -1.4906  0.1683 -1.5258
13040TIP3   OH260534   3.050   3.291  16.194  0.4331 -0.3883 -0.2270
13040TIP3    H160535   3.091   3.339  16.265  1.3995 -0.6245 -0.6091
13040TIP3    H260536   3.009   3.215  16.235 -2.2489  1.3554  0.5823
13041TIP3   OH260537   3.306   1.162   2.248 -0.0388  0.5407 -0.2915
13041TIP3    H160538   3.245   1.094   2.218 -0.4223  0.2868  1.0145
13041TIP3    H260539   3.314   1.221   2.173 -1.4576  0.2744 -0.6824
13042TIP3   OH260540   1.915   2.179  14.245  0.8121 -0.0071  0.7296
13042TIP3    H160541   1.986   2.115  14.239 -0.2514 -1.4245  2.5271
13042TIP3    H260542   1.915   2.206  14.337  0.0380  1.2041  0.3967
13043TIP3   OH260543   3.723   3.863  14.032 -0.0667  0.1433  0.1438
13043TIP3    H160544   3.652   3.799  14.024  0.2598 -0.0007 -2.5808
13043TIP3    H260545   3.683   3.945  14.003  0.8239  0.0500 -1.4739
13044TIP3   OH260546   2.213   1.505  16.985 -0.2071 -0.3107  0.1463
13044TIP3    H160547   2.151   1.482  17.054 -0.9497  3.7094  1.0572
13044TIP3    H260548   2.158   1.532  16.911  0.5460 -0.7167 -0.5825
13045TIP3   OH260549   2.020   3.308  15.579  0.2081 -0.6550  0.1028
13045TIP3    H160550   2.064   3.229  15.611  1.1974 -0.4374 -0.6844
13045TIP3    H260551   1.955   3.329  15.647  1.7116 -0.6334  1.5778
13046TIP3   OH260552   0.229   5.830  12.716 -0.2482 -0.1881  0.3460
13046TIP3    H160553   0.245   5.854  12.807 -3.3170 -0.7063  1.1364
13046TIP3    H260554   0.243   5.736  12.713 -1.9456 -0.5018  0.8369
13047TIP3   OH260555   2.185   0.026   0.436 -0.6683 -0.2859  0.5604
13047TIP3    H160556   2.228   0.099   0.480 -1.4893 -0.1631  1.1840
13047TIP3    H260557   2.255  -0.015   0.384 -0.1188  0.7080  0.4867
13048TIP3   OH260558   0.108   6.233  14.056 -0.1595  1.1425 -0.4602
13048TIP3    H160559   0.085   6.325  14.048 -0.8951  1.0247  0.0913
13048TIP3    H260560   0.175   6.230  14.124 -1.0451  1.1555  0.4331
13049TIP3   OH260561   6.084   4.857   2.529 -0.3367  0.3623  0.6567
13049TIP3    H160562   6.022   4.930   2.526  0.8461  1.4969  2.2866
13049TIP3    H260563   6.164   4.892   2.490 -0.1798 -0.5255  0.1682
13050TIP3   OH260564   4.329   6.060  15.676 -0.0791  0.1184  0.2047
13050TIP3    H160565   4.257   6.005  15.707  1.0003 -0.8283  1.1568
13050TIP3    H260566   4.383   6.075  15.754  0.8481  0.6553 -0.5124
13051TIP3   OH260567   0.968   5.504  11.283 -0.0314  0.3315  0.2716
13051TIP3    H160568   1.011   5.419  11.281  1.5847  1.1038  0.2326
13051TIP3    H260569   0.957   5.527  11.191 -0.7778  0.0339  0.2794
13052TIP3   OH260570   5.298   0.753  15.034  0.2056 -0.5553 -0.3763
13052TIP3    H160571   5.203   0.759  15.043 -0.0024 -1.8520 -1.3413
13052TIP3    H260572   5.323   0.833  14.987 -0.4963 -0.5249 -0.7051
13053TIP3   OH260573   2.939   5.534  13.975  0.1877 -0.8261 -0.0085
13053TIP3    H160574   2.882   5.611  13.975 -3.0697 -2.9790  0.6814
13053TIP3    H260575   2.972   5.528  13.885 -1.0713  0.3180 -0.5818
13054TIP3   OH260576   3.960   1.466   0.540 -0.2461  0.4260  0.3111
13054TIP3    H160577   3.998   1.393   0.491 -1.5146 -0.9164  1.2312
13054TIP3    H260578   3.942   1.429   0.627  0.2622  2.2169  1.2346
13055TIP3   OH260579   1.518   4.805  16.964 -0.1331  0.1381  0.3751
13055TIP3    H160580   1.610   4.787  16.982 -0.0339 -0.3968 -0.6177
13055TIP3    H260581   1.480   4.823  17.050  0.8851  0.3363  0.7999
13056TIP3   OH260582   0.632   2.956   5.798  0.3424 -0.4576 -0.1344
13056TIP3    H160583   0.542   2.973   5.770  0.5998  0.1208 -0.6351
13056TIP3    H260584   0.623   2.901   5.877 -0.5065  1.2028  0.9824
13057TIP3   OH260585   1.279   5.375   0.660 -0.2288 -0.5860  0.7686
13057TIP3    H160586   1.251   5.462   0.631 -0.7192 -1.3590 -1.2290
13057TIP3    H260587   1.375   5.378   0.653 -0.2578 -0.2966  0.4618
13058TIP3   OH260588   6.025   3.110  16.504  0.2212 -0.0833 -0.1630
13058TIP3    H160589   6.029   3.196  16.545 -0.4649 -0.1324  0.0208
13058TIP3    H260590   5.941   3.109  16.457 -0.6508 -1.2661  1.2968
13059TIP3   OH260591   4.069   5.014   0.383 -0.0123  0.2195  0.1877
13059TIP3    H160592   4.155   5.002   0.341  1.1630  1.5295  2.0765
13059TIP3    H260593   4.021   4.933   0.362  0.5699  0.5899 -3.2810
13060TIP3   OH260594   3.191   2.107   5.444 -0.3302 -0.7112 -0.1688
13060TIP3    H160595   3.123   2.041   5.436 -0.8359 -0.0640 -1.7194
13060TIP3    H260596   3.144   2.190   5.437  0.4391 -0.2170  0.4276
13061TIP3   OH260597   1.504   4.738  15.777 -0.2343 -0.7338 -0.2495
13061TIP3    H160598   1.535   4.775  15.859  1.0549  0.0694 -1.0532
13061TIP3    H260599   1.512   4.643  15.788 -1.6013 -0.7091  1.1030
13062TIP3   OH260600   1.311   3.450  11.291 -0.0285 -0.2624  0.4046
13062TIP3    H160601   1.262   3.524  11.328  0.5990  0.7503 -0.6938
13062TIP3    H260602   1.290   3.452  11.198  3.2046  1.2145 -0.4366
13063TIP3   OH260603   5.550   5.067   5.104  0.6515 -0.4326 -0.3601
13063TIP3    H160604   5.465   5.109   5.092  0.5470 -0.0290  1.5745
13063TIP3    H260605   5.532   4.974   5.090 -0.0715 -0.3339 -0.1303
13064TIP3   OH260606   4.844   0.315  16.093 -0.6254 -0.5735  0.1233
13064TIP3    H160607   4.777   0.312  16.025 -0.4083  1.2439 -0.2267
13064TIP3    H260608   4.916   0.263  16.057 -1.2385 -1.2537 -0.1657
13065TIP3   OH260609   6.359   1.684   4.484  0.8979  0.6435 -0.2239
13065TIP3    H160610   6.427   1.727   4.536  0.4770  0.4109  0.5298
13065TIP3    H260611   6.291   1.751   4.472  0.0149  0.0832  1.3702
13066TIP3   OH260612   4.879   6.161   0.312  0.3973 -0.1504  0.0966
13066TIP3    H160613   4.867   6.192   0.222 -0.5356  1.6554  0.7729
13066TIP3    H260614   4.973   6.169   0.328  0.8208 -2.0460 -1.1972
13067TIP3   OH260615   5.578   2.594   0.526 -0.0051  0.3550 -0.1227
13067TIP3    H160616   5.543   2.664   0.471 -1.2832  0.9557  1.3815
13067TIP3    H260617   5.502   2.538   0.545  0.1567  0.7484  1.8435
13068TIP3   OH260618   4.285   3.927  12.097 -0.2385 -0.1360 -0.0094
13068TIP3    H160619   4.366   3.877  12.097  1.0841  1.8767 -0.0874
13068TIP3    H260620   4.300   3.996  12.162 -1.2821  1.1661 -1.0965
13069TIP3   OH260621   1.012   1.641   5.450  0.1815 -0.4174 -0.7486
13069TIP3    H160622   0.920   1.617   5.455  0.3603 -0.8503  1.0368
13069TIP3    H260623   1.052   1.601   5.527  1.7657  0.1977 -1.2074
13070TIP3   OH260624   0.123   1.302  16.126  0.2761  0.6551  0.5919
13070TIP3    H160625   0.055   1.257  16.176  0.6826 -0.5557  0.1075
13070TIP3    H260626   0.081   1.324  16.043  0.9905 -2.1072 -0.6351
13071TIP3   OH260627   4.335   1.759  16.142  0.5801 -0.0788  0.7017
13071TIP3    H160628   4.424   1.760  16.106  0.5835 -2.8599  0.4223
13071TIP3    H260629   4.348   1.756  16.237  0.8440 -1.1337  0.6476
13072TIP3   OH260630   1.324   1.988  13.222  0.0811  0.0930  0.2119
13072TIP3    H160631   1.404   1.975  13.274  0.3960 -0.4964 -0.4009
13072TIP3    H260632   1.258   1.936  13.268  0.4491 -0.7334 -0.1584
13073TIP3   OH260633   0.425   2.297   5.425 -0.1231 -0.0814 -0.2244
13073TIP3    H160634   0.458   2.270   5.340 -0.8711  1.2305 -0.9751
13073TIP3    H260635   0.474   2.377   5.446  1.9054 -1.7070  1.8380
13074TIP3   OH260636   2.410   5.140   4.060 -0.1517  0.3792 -0.4194
13074TIP3    H160637   2.357   5.185   3.995 -2.0640  1.1580  1.5222
13074TIP3    H260638   2.441   5.209   4.119 -1.3049 -0.5395  1.3714
13075TIP3   OH260639   6.734   3.445  17.011  0.3731  0.3758  0.2191
13075TIP3    H160640   6.698   3.426  17.098 -2.0420  0.0398 -0.7849
13075TIP3    H260641   6.778   3.363  16.986  0.2006  0.1292  0.6979
13076TIP3   OH260642   1.569   5.760  15.645 -0.0783 -0.4243 -0.0693
13076TIP3    H160643   1.645   5.745  15.701  0.3224  0.9461 -0.2028
13076TIP3    H260644   1.522   5.832  15.686 -0.2291  0.0552 -1.0460
13077TIP3   OH260645   2.606   5.893   4.952 -0.4152 -0.1541  0.5205
13077TIP3    H160646   2.701   5.900   4.953 -0.4552  0.3146  1.5493
13077TIP3    H260647   2.582   5.910   4.861  0.4538  0.0917  0.3300
13078TIP3   OH260648   6.625   5.346  14.975  0.2012 -0.4388  0.0675
13078TIP3    H160649   6.652   5.438  14.977 -0.6158 -0.1959  0.5665
13078TIP3    H260650   6.541   5.347  14.929  0.3586 -0.9903 -0.2442
13079TIP3   OH260651   1.957   4.543   2.723 -0.0101 -0.9184  0.1270
13079TIP3    H160652   2.013   4.560   2.647  0.7187 -2.2236  0.3342
13079TIP3    H260653   1.870   4.529   2.686  0.1344 -0.5467 -0.3694
13080TIP3   OH260654   1.012   2.592  13.385 -0.0313  0.3570 -0.9192
13080TIP3    H160655   1.085   2.531  13.393  0.2615  0.7633 -0.4170
13080TIP3    H260656   1.053   2.678  13.385 -0.5471  0.6103 -0.1218
13081TIP3   OH260657   6.243   0.271  14.720 -0.0623 -0.4897 -0.1952
13081TIP3    H160658   6.227   0.183  14.685  1.0331 -0.9374  0.3715
13081TIP3    H260659   6.338   0.280  14.719 -0.1924  0.9661 -0.8639
13082TIP3   OH260660   3.734   3.301   2.417 -0.5280  0.4338 -0.1290
13082TIP3    H160661   3.713   3.216   2.378  3.0010 -1.0247  0.7493
13082TIP3    H260662   3.743   3.360   2.343 -0.5331 -0.6085 -0.9865
13083TIP3   OH260663   6.713   4.630  16.740  0.0061  0.3949  0.4072
13083TIP3    H160664   6.640   4.572  16.717 -2.1190  2.5122  1.3561
13083TIP3    H260665   6.706   4.703  16.678  0.6759  1.1192  1.1527
13084TIP3   OH260666   1.562   3.355  16.869 -0.2161  0.1404  0.3611
13084TIP3    H160667   1.580   3.404  16.788  1.5023 -0.8512  0.1005
13084TIP3    H260668   1.477   3.313  16.853 -0.6907  1.2849 -0.2517
13085TIP3   OH260669   6.240   1.643   3.862 -0.1743 -0.0649 -0.0500
13085TIP3    H160670   6.240   1.593   3.781  2.9887 -1.4820  0.6982
13085TIP3    H260671   6.332   1.662   3.880 -0.8127  0.9590  2.7672
13086TIP3   OH260672   5.185   2.646   4.036 -0.1181 -0.0099  0.7035
13086TIP3    H160673   5.162   2.710   4.104 -1.4265 -1.1414  1.3803
13086TIP3    H260674   5.103   2.600   4.018  0.3295 -0.1178 -1.2744
13087TIP3   OH260675   1.421   3.492   4.668 -0.2659 -0.2635  0.0315
13087TIP3    H160676   1.343   3.438   4.653 -0.9393  0.9433 -0.9541
13087TIP3    H260677   1.445   3.473   4.759 -2.2151 -0.0536  0.6596
13088TIP3   OH260678   4.533   1.776  12.219  0.0524  0.3577  0.6875
13088TIP3    H160679   4.461   1.787  12.157 -0.4452  1.5412  1.4302
13088TIP3    H260680   4.563   1.865  12.237  0.6950 -0.0182  1.5504
13089TIP3   OH260681   6.492   1.512  13.359 -0.1169 -0.0778 -0.1962
13089TIP3    H160682   6.547   1.511  13.281  0.1582  0.3294 -0.0122
13089TIP3    H260683   6.404   1.495  13.327  0.1090 -0.7399 -0.4970
13090TIP3   OH260684   2.814   2.949  13.096  0.7055 -0.4269 -0.7790
13090TIP3    H160685   2.892   2.989  13.056 -0.8243  0.6474 -2.8880
13090TIP3    H260686   2.779   2.893  13.027 -1.8808  1.2363 -0.9388
13091TIP3   OH260687   5.228   1.791   1.446 -0.2222 -0.1488 -0.4442
13091TIP3    H160688   5.216   1.707   1.402  2.2484 -1.3631  0.9891
13091TIP3    H260689   5.234   1.855   1.375 -1.5469 -1.2506 -1.5889
13092TIP3   OH260690   4.535   2.005   2.416 -0.3057 -0.2369  0.0722
13092TIP3    H160691   4.617   2.049   2.392 -0.4142 -0.5035 -0.8096
13092TIP3    H260692   4.468   2.072   2.407 -0.0045  0.4930  2.4966
13093TIP3   OH260693   6.753   4.379  16.387  0.1929  0.2853  0.3006
13093TIP3    H160694   6.832   4.408  16.342  0.1297  1.0361  0.6631
13093TIP3    H260695   6.783   4.313  16.450  0.7817  1.7297  1.5954
13094TIP3   OH260696   2.209   1.401   0.719  0.1228  0.0064  0.0763
13094TIP3    H160697   2.157   1.416   0.640  0.3297 -2.3408 -0.5979
13094TIP3    H260698   2.295   1.373   0.687  0.0301 -1.5709  1.0742
13095TIP3   OH260699   3.116   1.146   3.804  0.1352 -0.1457 -0.1755
13095TIP3    H160700   3.183   1.197   3.851 -0.2380 -0.0394  0.2433
13095TIP3    H260701   3.056   1.117   3.872 -0.4960  0.1338 -0.6052
13096TIP3   OH260702   6.647   6.746  16.402 -0.3384  0.6449 -0.1995
13096TIP3    H160703   6.647   6.841  16.411 -1.8099  0.4533  3.0532
13096TIP3    H260704   6.555   6.721  16.410  0.1657 -1.1237  0.4721
13097TIP3   OH260705   3.477   3.793  14.289  0.2509 -0.3924  0.0820
13097TIP3    H160706   3.555   3.847  14.299  0.6470 -1.0526  0.6452
13097TIP3    H260707   3.409   3.838  14.340  0.3535  0.0011 -0.1258
13098TIP3   OH260708   5.856   1.963   0.541 -0.0277 -0.3354 -0.1783
13098TIP3    H160709   5.795   1.964   0.615  1.2153 -0.0895  0.8701
13098TIP3    H260710   5.939   1.995   0.577  0.9166 -1.2847 -1.4056
13099TIP3   OH260711   4.161   4.138  14.318  0.2856  0.3471 -0.1844
13099TIP3    H160712   4.158   4.233  14.306 -0.5950  0.3627  0.1040
13099TIP3    H260713   4.138   4.124  14.409 -1.0037 -0.2103 -0.5767
13100TIP3   OH260714   4.198   6.415   3.988  0.4720 -0.2612 -0.2199
13100TIP3    H160715   4.185   6.329   3.948  1.7256 -0.3192 -0.5452
13100TIP3    H260716   4.190   6.400   4.082 -0.4089 -0.5157 -0.3296
13101TIP3   OH260717   1.290   4.068   0.127  0.1635 -0.1689  0.9043
13101TIP3    H160718   1.288   4.012   0.205  2.3895 -0.8054  0.5593
13101TIP3    H260719   1.382   4.073   0.102  0.1645  3.8565  0.9984
13102TIP3   OH260720   3.938   4.532   1.353  0.3477  0.4426  0.1731
13102TIP3    H160721   3.973   4.615   1.321  0.5418  0.6482  0.8998
13102TIP3    H260722   3.904   4.552   1.439 -2.0202  0.3479 -0.6745
13103TIP3   OH260723   0.974   0.907   1.288 -0.2576  0.1423  0.5584
13103TIP3    H160724   0.978   0.984   1.232 -0.6497 -1.1989 -1.4304
13103TIP3    H260725   1.064   0.896   1.320  0.4262  0.0072 -1.2377
13104TIP3   OH260726   1.847   0.325   4.906 -0.2499  0.3878 -0.7753
13104TIP3    H160727   1.758   0.359   4.900 -0.7870 -1.2584 -3.1941
13104TIP3    H260728   1.888   0.378   4.975 -3.3116  0.5907  1.0578
13105TIP3   OH260729   5.984   5.805   1.586  0.0905  0.5112 -0.5992
13105TIP3    H160730   5.989   5.741   1.514 -0.1838  1.4684 -1.4848
13105TIP3    H260731   5.988   5.751   1.665  0.8928 -0.5409 -1.3135
13106TIP3   OH260732   3.666   1.913  13.866  0.0000 -0.6507 -0.2923
13106TIP3    H160733   3.619   1.970  13.926 -0.7194  0.5048 -1.8889
13106TIP3    H260734   3.600   1.884  13.803  0.7617 -1.6671 -0.6427
13107TIP3   OH260735   1.656   3.195   0.968 -0.7422 -0.5460 -0.5786
13107TIP3    H160736   1.656   3.255   1.042 -1.0878 -0.2767 -0.7888
13107TIP3    H260737   1.743   3.155   0.968 -0.4279  0.1326 -0.5779
13108TIP3   OH260738   5.523   4.791  17.219 -0.5701  0.0805 -0.0589
13108TIP3    H160739   5.447   4.765  17.269 -1.4549  1.3245 -0.6944
13108TIP3    H260740   5.541   4.717  17.161 -1.2487 -0.2528  0.1480
13109TIP3   OH260741   6.386   1.059   1.944  0.0002  0.2626  0.2365
13109TIP3    H160742   6.405   1.152   1.961  2.3397  0.6403 -3.3387
13109TIP3    H260743   6.468   1.025   1.908 -0.7942 -3.2714  1.4398
13110TIP3   OH260744   4.998   2.967  13.508 -0.3651 -0.1223 -0.2483
13110TIP3    H160745   4.913   2.988  13.471  0.5036  0.8549 -1.7886
13110TIP3    H260746   4.989   2.988  13.601 -2.3100 -1.7166 -0.0261
13111TIP3   OH260747   1.527   5.320  15.367 -0.7368  0.8828  0.9254
13111TIP3    H160748   1.589   5.248  15.361 -0.2121  1.4366 -0.7356
13111TIP3    H260749   1.441   5.280  15.352 -0.2783  0.8337 -2.3146
13112TIP3   OH260750   5.300   1.593  17.337 -0.2833  0.1434  0.5209
13112TIP3    H160751   5.391   1.608  17.363 -0.8240 -0.0359  2.7045
13112TIP3    H260752   5.255   1.675  17.358 -0.5516  0.4695 -1.1629
13113TIP3   OH260753   4.722   6.654   5.594 -0.5677 -0.6199 -0.0368
13113TIP3    H160754   4.664   6.617   5.661 -1.1947 -1.7295 -1.1464
13113TIP3    H260755   4.806   6.663   5.638 -0.1474 -4.1415  0.1324
13114TIP3   OH260756   5.842   5.892  16.670  0.0204  0.5647  0.0117
13114TIP3    H160757   5.792   5.974  16.667 -0.5197  0.2549  0.3588
13114TIP3    H260758   5.808   5.846  16.746 -1.2380 -0.9695 -1.4035
13115TIP3   OH260759   6.238   4.121  11.232 -0.0228  0.3327  0.5660
13115TIP3    H160760   6.233   4.149  11.141  0.7719  1.0663  0.7394
13115TIP3    H260761   6.319   4.159  11.265 -0.8537  1.0306  1.9118
13116TIP3   OH260762   4.767   0.917  14.860  0.1543  0.0892  0.5312
13116TIP3    H160763   4.677   0.924  14.892 -0.0031  0.4212  0.0261
13116TIP3    H260764   4.801   0.838  14.900 -0.4942 -0.2520  0.4119
13117TIP3   OH260765   4.112   1.049   5.813  0.0821  0.2613 -0.1063
13117TIP3    H160766   4.147   1.087   5.893  1.1675  0.1875 -0.5335
13117TIP3    H260767   4.069   1.123   5.769 -0.4639  0.3148  0.4971
13118TIP3   OH260768   1.919   3.081   2.309  0.4457  0.3850 -0.0627
13118TIP3    H160769   1.843   3.135   2.330  0.8052  0.3441  1.4698
13118TIP3    H260770   1.948   3.047   2.393  4.2493  3.1963  0.0439
13119TIP3   OH260771   2.694   5.342   1.112 -0.4723 -0.0703  0.0991
13119TIP3    H160772   2.751   5.267   1.131  0.1670  0.3003 -0.3261
13119TIP3    H260773   2.609   5.303   1.092 -0.1876 -0.6710  0.0408
13120TIP3   OH260774   4.992   6.289   2.198 -0.5018 -0.4339  0.0243
13120TIP3    H160775   4.974   6.317   2.109 -1.7887 -0.0302  0.4036
13120TIP3    H260776   4.916   6.237   2.223  0.0230 -0.8730  0.7570
13121TIP3   OH260777   4.094   1.076  11.654  0.1707  0.5943  0.0347
13121TIP3    H160778   4.050   1.009  11.603  1.6625  0.8970 -1.7512
13121TIP3    H260779   4.182   1.041  11.669 -0.2949  0.3926  2.7261
13122TIP3   OH260780   5.367   6.401  17.111 -1.0983 -0.3903 -0.4091
13122TIP3    H160781   5.368   6.494  17.130 -1.2597 -0.2552 -1.0377
13122TIP3    H260782   5.300   6.391  17.043 -0.9211 -0.9275 -0.5093
13123TIP3   OH260783   0.773   3.485   4.985  0.0204  0.3464 -0.1979
13123TIP3    H160784   0.726   3.521   5.061 -1.1430  0.3676 -0.9019
13123TIP3    H260785   0.819   3.409   5.019  0.6039  1.1211  0.8153
13124TIP3   OH260786   2.234   4.480   3.187  0.2372 -0.0836  0.0256
13124TIP3    H160787   2.314   4.497   3.236  1.0965 -1.2916 -0.8871
13124TIP3    H260788   2.227   4.553   3.126  1.7295 -0.8749 -1.1837
13125TIP3   OH260789   5.611   6.518   0.604 -0.7007  0.1753 -0.5279
13125TIP3    H160790   5.547   6.518   0.675 -0.6087 -0.0694 -0.4422
13125TIP3    H260791   5.620   6.610   0.580  0.6074  0.5034  1.0037
13126TIP3   OH260792   0.478   6.575   5.065  0.5500 -0.2228  0.2345
13126TIP3    H160793   0.424   6.644   5.025 -0.1537 -0.4970  0.6906
13126TIP3    H260794   0.567   6.593   5.033  0.4530  1.1249  0.6312
13127TIP3   OH260795   5.355   4.703   0.738 -0.6222 -0.0714  0.8251
13127TIP3    H160796   5.336   4.780   0.790 -0.0498  0.7478 -0.1497
13127TIP3    H260797   5.365   4.632   0.802 -2.5417  0.3278  1.6558
13128TIP3   OH260798   0.873   0.555  11.554  0.3550  0.0599  0.2135
13128TIP3    H160799   0.799   0.511  11.596  1.0097 -2.6466 -1.2859
13128TIP3    H260800   0.842   0.576  11.466  1.3138 -1.0185 -0.3984
13129TIP3   OH260801   6.190   2.197  13.639  0.2159  0.0227 -0.5824
13129TIP3    H160802   6.144   2.170  13.560 -1.3363 -0.1742  0.3445
13129TIP3    H260803   6.170   2.290  13.648 -1.4320 -0.4213  0.7100
13130TIP3   OH260804   4.820   4.186   0.156 -0.4534 -0.8526  0.4589
13130TIP3    H160805   4.801   4.253   0.222 -1.2461 -1.4178  0.8254
13130TIP3    H260806   4.885   4.226   0.098 -0.9130  0.2297  0.6759
13131TIP3   OH260807   5.137   6.060  14.110  0.2802 -0.1899  0.0430
13131TIP3    H160808   5.230   6.082  14.120  0.0105  0.6509  0.8170
13131TIP3    H260809   5.095   6.095  14.188 -0.7983  0.0755 -0.6299
13132TIP3   OH260810   1.444   5.139  14.526  0.3744  0.5050 -0.3872
13132TIP3    H160811   1.483   5.100  14.604 -0.3668  0.0450 -0.2295
13132TIP3    H260812   1.517   5.175  14.477  0.8077  1.2671  0.7801
13133TIP3   OH260813   6.076   4.888   1.921  0.1978 -0.3534  0.0258
13133TIP3    H160814   6.128   4.869   2.000 -0.2722 -0.6543  0.2696
13133TIP3    H260815   5.987   4.900   1.953  0.1911  0.6415 -0.3352
13134TIP3   OH260816   2.611   6.441  16.757 -0.4444 -0.6095 -0.2225
13134TIP3    H160817   2.560   6.413  16.833 -0.0166 -0.1072  0.2547
13134TIP3    H260818   2.669   6.368  16.738 -2.0684 -1.6750 -1.4710
13135TIP3   OH260819   2.124   3.839   2.981  0.2335  0.1862  0.2146
13135TIP3    H160820   2.103   3.895   3.056 -0.9519  2.2156 -1.5115
13135TIP3    H260821   2.144   3.901   2.910 -0.2191 -1.5985 -1.5598
13136TIP3   OH260822   0.207   4.066   4.757  0.2855 -0.4325 -0.0500
13136TIP3    H160823   0.246   4.153   4.757 -0.5874 -0.0173  1.1617
13136TIP3    H260824   0.282   4.007   4.753  0.8963  0.3671 -0.6556
13137TIP3   OH260825   6.094   2.210   6.099 -0.0816  0.5218 -0.5225
13137TIP3    H160826   6.113   2.259   6.019  0.4294  0.6040 -0.3539
13137TIP3    H260827   6.165   2.146   6.106 -0.5963 -0.0613 -0.5951
13138TIP3   OH260828   5.912   6.391   0.730  0.2887  0.0829  0.5454
13138TIP3    H160829   5.957   6.344   0.800 -0.9525  1.8526  2.6579
13138TIP3    H260830   5.904   6.480   0.762 -0.0953  1.0630 -2.0216
13139TIP3   OH260831   4.576   1.704   0.792 -0.4696 -0.7719  0.5002
13139TIP3    H160832   4.645   1.770   0.799 -2.7723  1.6990  1.4157
13139TIP3    H260833   4.575   1.662   0.878  0.0865 -1.0649  0.3720
13140TIP3   OH260834   2.815   6.618  15.003  0.1531  0.4115  0.3723
13140TIP3    H160835   2.788   6.679  14.934 -0.3360  1.2763  1.2937
13140TIP3    H260836   2.811   6.532  14.962 -1.0362  0.8161 -0.4187
13141TIP3   OH260837   1.447   1.509  12.430  0.6258 -0.0836  0.3035
13141TIP3    H160838   1.466   1.571  12.360 -2.4194  0.4499 -0.2090
13141TIP3    H260839   1.475   1.424  12.395 -0.0612  0.2891 -1.2421
13142TIP3   OH260840   5.529   4.461  13.721 -0.2510 -0.2580 -0.0234
13142TIP3    H160841   5.580   4.542  13.724  0.2812 -0.5672 -0.4899
13142TIP3    H260842   5.503   4.452  13.629 -0.2750 -0.6371  0.0199
13143TIP3   OH260843   4.595   5.801   5.709 -0.5067 -0.6801 -0.4694
13143TIP3    H160844   4.665   5.757   5.661 -0.6857 -4.4285  2.2071
13143TIP3    H260845   4.514   5.774   5.665 -0.4722  0.0011 -0.9583
13144TIP3   OH260846   1.272   6.701   3.589  0.3013  0.0570  0.1173
13144TIP3    H160847   1.234   6.675   3.505  1.9823  0.1747 -0.7208
13144TIP3    H260848   1.280   6.797   3.582  1.5065 -0.0466 -0.0792
13145TIP3   OH260849   1.140   3.257  12.836 -0.8746 -0.3342  0.2730
13145TIP3    H160850   1.103   3.344  12.852  1.2738  0.6683  0.1356
13145TIP3    H260851   1.143   3.216  12.922  0.1915  0.6351  0.7187
13146TIP3   OH260852   3.865   1.213   4.822  0.7855 -0.2451 -0.4287
13146TIP3    H160853   3.829   1.183   4.738  0.8903 -0.7198 -0.3050
13146TIP3    H260854   3.914   1.138   4.856  0.8146 -0.0276  0.0183
13147TIP3   OH260855   3.271   2.869   0.794  0.6294  0.0025  0.1784
13147TIP3    H160856   3.322   2.801   0.837  0.7732  0.4800  0.7885
13147TIP3    H260857   3.300   2.950   0.835 -0.0197  0.3632 -0.0536
13148TIP3   OH260858   3.663   5.141  15.060  0.2024  0.2467  0.0114
13148TIP3    H160859   3.640   5.048  15.062 -1.7959  0.6954  0.0626
13148TIP3    H260860   3.673   5.160  14.966 -1.1301  0.3402 -0.1322
13149TIP3   OH260861   3.135   5.161  16.890 -0.3014  0.5222  0.6962
13149TIP3    H160862   3.060   5.210  16.857 -0.5307  0.2306  0.7800
13149TIP3    H260863   3.189   5.227  16.936  0.1019  0.9614 -0.3699
13150TIP3   OH260864   5.947   1.370  15.288  0.1622  0.1171 -0.0469
13150TIP3    H160865   6.016   1.382  15.223 -0.0668  1.7957 -0.0090
13150TIP3    H260866   5.899   1.292  15.258  1.1726 -0.2070 -0.8648
13151TIP3   OH260867   0.360   2.123   0.141  0.0647  0.4920 -0.0304
13151TIP3    H160868   0.446   2.162   0.130  0.5120 -0.6924 -0.9824
13151TIP3    H260869   0.371   2.061   0.214  0.4476 -0.7254 -1.0798
13152TIP3   OH260870   4.221   0.097  14.363 -0.2066  0.2446 -0.3644
13152TIP3    H160871   4.288   0.101  14.431 -2.1217  1.9770  1.5404
13152TIP3    H260872   4.240   0.171  14.306 -1.5797  2.0301  1.3610
13153TIP3   OH260873   3.226   1.112  14.923 -0.0285  0.2853 -0.3168
13153TIP3    H160874   3.151   1.057  14.902  0.8097 -1.1215  0.2619
13153TIP3    H260875   3.194   1.170  14.992 -0.2499 -1.1843  0.8577
13154TIP3   OH260876   6.457   2.384   5.935 -0.2523  0.0052 -0.1857
13154TIP3    H160877   6.545   2.415   5.915  0.8768 -1.7380  1.6251
13154TIP3    H260878   6.402   2.462   5.929  1.8557  1.7185  1.2154
13155TIP3   OH260879   2.797   4.213  17.002  0.4377  0.2630 -0.2316
13155TIP3    H160880   2.892   4.224  16.990  0.4219  1.8918  0.7940
13155TIP3    H260881   2.759   4.245  16.921  0.7058  2.0562  0.2972
13156TIP3   OH260882   2.533   2.777   0.316  0.1857 -0.3857  0.1306
13156TIP3    H160883   2.537   2.797   0.222  2.7276 -0.4279  0.1671
13156TIP3    H260884   2.507   2.860   0.356 -2.2692 -0.6942 -0.6225
13157TIP3   OH260885   0.560   2.593  13.646 -0.5585 -0.4608 -0.5738
13157TIP3    H160886   0.582   2.587  13.739 -1.2693  3.0162 -0.0538
13157TIP3    H260887   0.465   2.588  13.643 -1.0441  4.2747 -0.3351
13158TIP3   OH260888   6.150   1.331  11.099  0.1367 -0.0883  0.2339
13158TIP3    H160889   6.105   1.247  11.097 -0.8122  0.1986  3.4685
13158TIP3    H260890   6.220   1.319  11.164  0.9669  1.1921 -0.3784
13159TIP3   OH260891   2.795   5.778   0.704  0.5520 -0.3984  0.6883
13159TIP3    H160892   2.854   5.778   0.779  2.9864 -0.4790 -1.1332
13159TIP3    H260893   2.720   5.726   0.733  0.0474  1.8270  3.9880
13160TIP3   OH260894   3.168   5.155  11.450 -0.1710  0.2357  0.3033
13160TIP3    H160895   3.183   5.061  11.441  0.4353  0.3684 -0.2176
13160TIP3    H260896   3.126   5.181  11.368  1.6947  0.7752 -0.5605
13161TIP3   OH260897   4.991   4.892  14.313  0.1632  0.7594  0.0710
13161TIP3    H160898   4.965   4.973  14.357 -1.6626  1.1569 -1.5944
13161TIP3    H260899   5.084   4.903  14.293 -0.1691  2.6879 -0.5810
13162TIP3   OH260900   4.102   3.340  16.115 -0.6616  0.1070  0.1047
13162TIP3    H160901   4.176   3.379  16.069 -0.8018  1.3539  0.8936
13162TIP3    H260902   4.075   3.267  16.060  0.8251 -0.0503 -0.4523
13163TIP3   OH260903   4.908   5.421   3.388  0.0274 -0.4172 -0.2005
13163TIP3    H160904   4.924   5.415   3.294 -0.3624 -1.4409 -0.2109
13163TIP3    H260905   4.952   5.502   3.414  1.5025 -0.9212 -0.9850
13164TIP3   OH260906   1.062   6.591   4.120 -0.3056  0.0748  0.3905
13164TIP3    H160907   1.138   6.643   4.147 -0.6879  2.5201 -2.6349
13164TIP3    H260908   1.095   6.537   4.048 -0.7977 -1.1262  1.0456
13165TIP3   OH260909   6.232   0.552  13.086  0.0731  0.1242 -0.2699
13165TIP3    H160910   6.202   0.545  13.176 -0.2017 -0.4378 -0.3986
13165TIP3    H260911   6.315   0.504  13.084 -0.8836 -1.6313 -0.7332
13166TIP3   OH260912   1.918   2.390   1.100  0.1812 -0.0228  0.0841
13166TIP3    H160913   1.917   2.426   1.189  2.5197  0.1659  0.1081
13166TIP3    H260914   1.958   2.459   1.047  1.0704 -1.0404 -0.6142
13167TIP3   OH260915   5.480   6.482   3.936 -0.3223  0.4034  0.0892
13167TIP3    H160916   5.424   6.559   3.932  0.9831  1.3501 -1.0753
13167TIP3    H260917   5.569   6.517   3.931  0.4255 -1.0258  2.2776
13168TIP3   OH260918   2.760   1.080   2.673 -0.7630  0.5041 -0.0280
13168TIP3    H160919   2.800   1.010   2.725  0.8258 -0.6950 -2.6149
13168TIP3    H260920   2.670   1.085   2.705 -0.3322 -1.2234  1.7131
13169TIP3   OH260921   2.619   1.993  11.999 -0.1267  0.1211  0.2698
13169TIP3    H160922   2.608   1.911  12.049 -0.1320 -0.7510 -1.1182
13169TIP3    H260923   2.714   2.007  11.998  0.2206 -1.6682 -2.1709
13170TIP3   OH260924   5.580   1.525   3.109  0.1914 -0.3212  0.0048
13170TIP3    H160925   5.578   1.430   3.104 -2.9145 -0.3053 -1.2961
13170TIP3    H260926   5.534   1.545   3.190  1.4073  0.1079  0.6103
13171TIP3   OH260927   4.237   4.434  13.054 -0.1190  0.8203 -0.1713
13171TIP3    H160928   4.300   4.381  13.103 -1.6360  0.7259  1.7958
13171TIP3    H260929   4.220   4.383  12.974  0.2729 -0.4642  0.5329
13172TIP3   OH260930   0.282   0.994  14.939 -0.6202 -0.2846 -0.1134
13172TIP3    H160931   0.254   0.967  14.851 -0.2374 -0.4694 -0.1836
13172TIP3    H260932   0.210   1.046  14.973 -0.3186  0.7151 -0.9655
13173TIP3   OH260933   4.991   5.629  16.619  0.4205 -0.3202  0.0023
13173TIP3    H160934   4.935   5.706  16.610 -0.3878 -0.7603  1.0331
13173TIP3    H260935   5.021   5.631  16.709  1.2677 -0.6366 -0.2647
13174TIP3   OH260936   3.650   1.010   2.600  0.3020  0.0277  0.0498
13174TIP3    H160937   3.624   0.918   2.604 -0.0503  0.1487  2.6949
13174TIP3    H260938   3.569   1.057   2.580  0.4535 -0.2049 -1.1614
13175TIP3   OH260939   0.997   4.466   3.983  0.6857 -0.0662 -0.0709
13175TIP3    H160940   1.019   4.390   4.037  0.6325 -0.5389 -0.6931
13175TIP3    H260941   0.947   4.429   3.910 -0.4320  0.7323  0.2670
13176TIP3   OH260942   1.856   3.281  15.802  0.2619 -0.3309  0.4799
13176TIP3    H160943   1.825   3.352  15.858  0.5798 -0.1869  0.4773
13176TIP3    H260944   1.904   3.223  15.861  0.0850 -0.4923  0.4652
13177TIP3   OH260945   6.388   5.381   3.188  0.8051 -0.4488  0.0050
13177TIP3    H160946   6.434   5.298   3.172  1.3897 -0.5505  1.9556
13177TIP3    H260947   6.340   5.367   3.269  0.2533  0.8768 -0.0657
13178TIP3   OH260948   0.706   3.378   2.225 -0.6745  0.0216  0.0361
13178TIP3    H160949   0.613   3.354   2.234 -0.5644 -0.9986 -1.3267
13178TIP3    H260950   0.705   3.455   2.169 -0.6387 -0.7407 -1.0329
13179TIP3   OH260951   3.650   5.190  13.427 -0.5342  0.6355 -0.2491
13179TIP3    H160952   3.584   5.157  13.367  1.5825 -0.3020 -2.2187
13179TIP3    H260953   3.708   5.242  13.372  0.3137  1.5193  1.4230
13180TIP3   OH260954   5.183   4.474   5.752  0.1267 -0.0012 -0.0166
13180TIP3    H160955   5.173   4.419   5.830 -1.6066 -0.0485 -0.2477
13180TIP3    H260956   5.262   4.439   5.710 -0.0167 -1.2643  0.6798
13181TIP3   OH260957   2.943   5.399  13.217  0.2150 -0.2759 -0.3900
13181TIP3    H160958   2.934   5.313  13.177  1.6953 -0.3061 -0.7331
13181TIP3    H260959   2.889   5.457  13.163 -1.1602 -1.0443  0.1197
13182TIP3   OH260960   1.109   6.050   4.768 -0.7539  0.4328 -0.2204
13182TIP3    H160961   1.014   6.062   4.769 -0.8439  0.3024  3.4506
13182TIP3    H260962   1.144   6.138   4.785 -0.1497  0.4637 -1.4640
13183TIP3   OH260963   6.688   0.413   3.413 -0.3383 -0.9326 -0.2658
13183TIP3    H160964   6.604   0.426   3.369 -0.7749  0.9792  1.0030
13183TIP3    H260965   6.668   0.351   3.483 -1.0448  0.4630  0.8172
13184TIP3   OH260966   3.842   5.333  10.700  0.4409  0.0447  0.0335
13184TIP3    H160967   3.771   5.376  10.653 -0.1070  0.1164  0.9106
13184TIP3    H260968   3.895   5.405  10.735 -0.6640  0.0547  1.7871
13185TIP3   OH260969   5.479   3.998  11.829 -0.3149  0.1607  0.0954
13185TIP3    H160970   5.442   4.087  11.837 -0.1048  0.0882  3.3792
13185TIP3    H260971   5.550   4.007  11.766 -1.1170  2.0172 -0.6335
13186TIP3   OH260972   6.550   1.871  13.261 -0.0643  0.2674 -0.2267
13186TIP3    H160973   6.636   1.914  13.255  1.4549 -2.2856  1.4046
13186TIP3    H260974   6.539   1.829  13.176  0.1101  0.9084 -0.5764
13187TIP3   OH260975   5.685   2.452  14.942 -0.1570  0.3431 -0.1275
13187TIP3    H160976   5.778   2.467  14.959 -0.4193 -0.0481  2.0663
13187TIP3    H260977   5.668   2.494  14.858  2.0073  0.3320 -0.6339
13188TIP3   OH260978   0.957   4.077   3.486  0.2490 -0.1259  0.4568
13188TIP3    H160979   1.042   4.083   3.531  0.2398  0.8552  0.3747
13188TIP3    H260980   0.903   4.144   3.528  0.2188  0.7690 -0.9429
13189TIP3   OH260981   0.380   6.206   5.309 -0.4772 -0.1942 -0.3165
13189TIP3    H160982   0.333   6.124   5.327  1.8616 -1.1595  1.9544
13189TIP3    H260983   0.413   6.195   5.220 -1.3980 -1.0618 -0.5848
13190TIP3   OH260984   1.527   1.529   4.196 -0.0823  0.1848 -0.1474
13190TIP3    H160985   1.561   1.535   4.106  1.7334  0.3749  0.5051
13190TIP3    H260986   1.577   1.594   4.245 -0.9790  0.0228  1.0352
13191TIP3   OH260987   5.996   4.728  14.763 -0.2058  0.0294 -0.2123
13191TIP3    H160988   5.912   4.699  14.799 -0.3921  0.7343 -0.0819
13191TIP3    H260989   5.996   4.694  14.673 -0.0368 -1.1339  0.2037
13192TIP3   OH260990   5.455   3.252  12.748 -0.3756  0.2438  0.5138
13192TIP3    H160991   5.470   3.340  12.782  0.8233  0.5502 -0.6709
13192TIP3    H260992   5.399   3.266  12.671 -0.7075 -0.1074  0.6904
13193TIP3   OH260993   6.753   3.624   0.811  0.3665 -0.1755 -0.2257
13193TIP3    H160994   6.687   3.604   0.744  1.2767 -1.3243 -0.8363
13193TIP3    H260995   6.750   3.548   0.869  1.4150 -0.4305 -0.4959
13194TIP3   OH260996   2.217   2.595   3.916 -0.3375 -0.0721 -0.6279
13194TIP3    H160997   2.137   2.623   3.871 -0.4280 -0.2680 -0.5870
13194TIP3    H260998   2.218   2.500   3.907 -0.3708 -0.1144 -0.1922
13195TIP3   OH260999   5.814   2.999  12.317 -0.3580 -0.2597 -0.0558
13195TIP3    H161000   5.872   2.951  12.258  0.6656 -1.1007  1.5694
13195TIP3    H261001   5.798   2.938  12.389 -2.7906  0.1805 -0.1527
13196TIP3   OH261002   6.280   6.253   5.036 -0.0997  0.5744  0.3192
13196TIP3    H161003   6.294   6.159   5.042 -1.5074  0.3417  0.2104
13196TIP3    H261004   6.279   6.283   5.127 -0.7200  0.3011  0.4100
13197TIP3   OH261005   6.173   2.555   2.236 -0.0847 -0.7366  0.6695
13197TIP3    H161006   6.103   2.575   2.174  2.0661  0.9608 -1.4091
13197TIP3    H261007   6.177   2.459   2.237 -1.0064 -0.8201 -0.8521
13198TIP3   OH261008   3.430   4.924   4.026 -0.0772 -0.3122  0.1539
13198TIP3    H161009   3.345   4.884   4.046  0.6626 -0.9028  2.4790
13198TIP3    H261010   3.491   4.881   4.087  1.5717  1.2728 -0.2996
13199TIP3   OH261011   0.636   0.453   3.085 -0.3159  0.3673 -0.1890
13199TIP3    H161012   0.673   0.540   3.097 -0.7038  0.2330  3.2774
13199TIP3    H261013   0.541   0.468   3.079 -0.4399  0.2201  1.0542
13200TIP3   OH261014   6.421   4.936  11.117 -0.0006 -0.4443 -0.3967
13200TIP3    H161015   6.339   4.916  11.072  0.0867  0.3273 -0.9179
13200TIP3    H261016   6.420   5.031  11.128  0.4868 -0.5077  0.2611
13201TIP3   OH261017   3.070   5.940   0.018 -0.2869 -0.0030  0.7668
13201TIP3    H161018   3.065   5.979   0.106  0.7602  1.1869  0.3383
13201TIP3    H261019   3.126   5.864   0.029  0.0028  0.2540  1.0917
13202TIP3   OH261020   3.991   0.662  14.121 -0.5734 -0.0234 -0.0454
13202TIP3    H161021   3.989   0.756  14.101  1.8974 -0.4475 -2.9428
13202TIP3    H261022   4.079   0.647  14.156 -1.2314 -1.1869  1.2311
13203TIP3   OH261023   1.129   2.813   2.200 -0.0241 -0.1258  0.3467
13203TIP3    H161024   1.174   2.892   2.170  3.1669 -1.6955  0.6410
13203TIP3    H261025   1.055   2.846   2.252 -0.0520  2.6073 -1.2351
13204TIP3   OH261026   6.331   4.427   2.361  0.2704  0.1465  0.0940
13204TIP3    H161027   6.290   4.408   2.446 -0.9795 -1.7767 -0.8757
13204TIP3    H261028   6.302   4.356   2.304  2.4569  0.4655 -1.5170
13205TIP3   OH261029   0.671   4.076  13.982 -0.1436 -0.0174 -0.5670
13205TIP3    H161030   0.698   4.029  13.903  3.2531 -0.7000  0.8195
13205TIP3    H261031   0.645   4.006  14.043 -0.3628  0.3170 -0.2718
13206TIP3   OH261032   4.352   6.386  15.192  0.1090  0.6208 -0.2970
13206TIP3    H161033   4.339   6.299  15.154  0.2018  0.8876 -0.9493
13206TIP3    H261034   4.445   6.389  15.212  0.0433  0.4458  0.0417
13207TIP3   OH261035   4.740   4.074  13.739 -0.2522 -0.7169  0.1507
13207TIP3    H161036   4.706   4.084  13.650 -0.4984  0.7228  0.3770
13207TIP3    H261037   4.795   4.151  13.753  1.4636 -1.9383  0.5504
13208TIP3   OH261038   0.685   1.466  13.018 -0.2087  0.5133  0.3542
13208TIP3    H161039   0.768   1.422  13.033  0.0860  0.0981 -2.1005
13208TIP3    H261040   0.673   1.465  12.923 -3.0006  0.6118  0.6019
13209TIP3   OH261041   2.575   3.135   1.618  0.5725  0.4478  0.2291
13209TIP3    H161042   2.495   3.163   1.661  1.3147  0.3472  1.7560
13209TIP3    H261043   2.548   3.061   1.563 -0.6372  1.4381 -0.5612
13210TIP3   OH261044   2.004   4.885  16.754  0.5839  0.4163  0.2238
13210TIP3    H161045   2.037   4.855  16.838  0.1717 -2.4128 -0.5386
13210TIP3    H261046   2.083   4.909  16.705  1.0502 -0.6722  0.4277
13211TIP3   OH261047   2.708   1.303  15.750  0.4982  0.2929 -0.3002
13211TIP3    H161048   2.632   1.359  15.762 -0.9969 -1.8711  1.1215
13211TIP3    H261049   2.749   1.298  15.836 -0.1189 -1.6667 -0.0579
13212TIP3   OH261050   0.774   5.653   3.618 -0.4179 -0.1940  0.0776
13212TIP3    H161051   0.724   5.734   3.620 -0.6755 -0.2643 -1.8211
13212TIP3    H261052   0.737   5.603   3.545  0.6486 -1.4169  0.3318
13213TIP3   OH261053   0.053   2.198   0.827  0.4097 -0.1868 -0.3419
13213TIP3    H161054   0.035   2.246   0.907 -1.9140 -0.3644 -0.6851
13213TIP3    H261055   0.001   2.242   0.760  1.8997 -0.3512 -1.6825
13214TIP3   OH261056   5.130   3.522  15.800  0.3147  0.6031 -0.4615
13214TIP3    H161057   5.140   3.468  15.878 -1.7214 -0.1850 -0.6797
13214TIP3    H261058   5.039   3.551  15.803  0.2902  0.8196 -2.3717
13215TIP3   OH261059   1.129   0.312   0.809  0.1277 -0.4797 -0.3094
13215TIP3    H161060   1.157   0.245   0.746  2.4235  1.0580 -1.0551
13215TIP3    H261061   1.069   0.367   0.760 -0.0587 -0.7435 -0.3767
13216TIP3   OH261062   0.791   3.490  15.677 -0.2909 -0.0210 -0.1034
13216TIP3    H161063   0.808   3.572  15.630 -1.7827  0.2812 -0.1888
13216TIP3    H261064   0.700   3.469  15.656 -0.5934 -0.5814  1.5862
13217TIP3   OH261065   3.342   1.327  12.408 -0.1917 -0.0665 -0.0278
13217TIP3    H161066   3.430   1.364  12.415 -0.1989  0.1076 -0.7591
13217TIP3    H261067   3.356   1.232  12.408 -0.0065 -0.0403 -0.1286
13218TIP3   OH261068   0.991   4.526   0.902  0.4785 -0.4341 -0.4966
13218TIP3    H161069   1.016   4.463   0.833 -0.1871 -1.5443  0.2407
13218TIP3    H261070   1.031   4.490   0.981 -0.5761 -0.3539  0.0777
13219TIP3   OH261071   1.765   6.531   2.466 -0.1474 -0.2136  0.3473
13219TIP3    H161072   1.714   6.515   2.387  1.2162 -0.6830 -0.4833
13219TIP3    H261073   1.704   6.574   2.526 -1.5973 -1.0781 -0.4447
13220TIP3   OH261074   5.740   5.088   4.049  0.0179  0.0891  0.1766
13220TIP3    H161075   5.772   5.120   3.965 -0.1666 -0.2935 -0.0448
13220TIP3    H261076   5.657   5.133   4.062 -0.4571 -0.5979 -0.3438
13221TIP3   OH261077   0.929   0.044  16.545  0.1983 -0.4142 -0.0005
13221TIP3    H161078   0.919   0.101  16.621 -0.6442 -0.7966  0.1946
13221TIP3    H261079   1.008  -0.006  16.563  0.4001  0.0030  0.2875
13222TIP3   OH261080   0.737   1.828  14.599 -0.4035 -0.5727  0.5868
13222TIP3    H161081   0.788   1.790  14.670  0.2993  0.5059  0.6703
13222TIP3    H261082   0.700   1.752  14.553  1.1973 -1.3727  0.5637
13223TIP3   OH261083   1.462   3.554  14.252 -0.3546  0.9733 -0.4558
13223TIP3    H161084   1.472   3.536  14.158  0.7919  1.0437 -0.3634
13223TIP3    H261085   1.431   3.644  14.256  1.3524  1.6126 -0.7450
13224TIP3   OH261086   5.827   3.695  12.339  0.1052 -0.1943  0.7242
13224TIP3    H161087   5.901   3.746  12.372 -0.0879  1.1021 -0.7190
13224TIP3    H261088   5.750   3.746  12.363 -0.0979  0.2060 -0.7054
13225TIP3   OH261089   0.813   1.141  12.706  0.4052  0.1639  0.4030
13225TIP3    H161090   0.788   1.148  12.798  1.3591 -0.3193  0.7194
13225TIP3    H261091   0.779   1.056  12.678 -3.0130  1.7603 -0.7572
13226TIP3   OH261092   4.967   1.638   5.933 -0.1249 -0.2180  0.5567
13226TIP3    H161093   5.042   1.694   5.915 -1.0409  0.4894 -1.3091
13226TIP3    H261094   4.998   1.576   5.999  2.1173 -0.0042 -0.2385
13227TIP3   OH261095   0.378   0.842   4.518  0.0521  0.1668 -0.0530
13227TIP3    H161096   0.309   0.789   4.479 -0.0411 -0.2314  0.6408
13227TIP3    H261097   0.440   0.779   4.555  1.0741  0.4970 -1.1115
13228TIP3   OH261098   4.771   4.653   3.654 -0.5457  0.4214  0.4497
13228TIP3    H161099   4.740   4.743   3.656 -0.0489  0.5796  1.2429
13228TIP3    H261100   4.696   4.601   3.684 -1.5354  0.3301 -1.9269
13229TIP3   OH261101   0.905   5.113  13.082 -0.5481  0.2034 -0.6053
13229TIP3    H161102   0.819   5.100  13.121 -0.6978  0.4995 -0.8302
13229TIP3    H261103   0.959   5.149  13.153 -0.4533 -0.5015 -0.3114
13230TIP3   OH261104   5.694   0.511   5.679 -0.2375 -0.4842  0.1657
13230TIP3    H161105   5.666   0.432   5.726 -0.7392  0.0565  0.7952
13230TIP3    H261106   5.674   0.493   5.587  0.5651 -1.4768  0.1627
13231TIP3   OH261107   3.224   3.582   3.405  0.2641 -0.5171  0.5660
13231TIP3    H161108   3.243   3.498   3.447 -1.6392 -0.8570  0.8119
13231TIP3    H261109   3.305   3.604   3.358  0.9070 -2.3165  0.7656
13232TIP3   OH261110   5.651   1.808  15.123  0.1322  0.5535 -0.2224
13232TIP3    H161111   5.711   1.828  15.050 -0.5198  3.6116 -0.0874
13232TIP3    H261112   5.564   1.825  15.087 -0.4036 -0.4433  0.5724
13233TIP3   OH261113   5.979   1.381   0.186  0.1342  0.5242 -0.3623
13233TIP3    H161114   6.013   1.432   0.259  1.2420  1.6077 -1.5884
13233TIP3    H261115   6.056   1.349   0.140 -0.5315 -1.6830 -0.0717
13234TIP3   OH261116   0.692   0.921   0.672 -0.0227  0.6469  0.2539
13234TIP3    H161117   0.735   0.842   0.703 -1.5488 -1.2060 -2.0141
13234TIP3    H261118   0.692   0.913   0.576 -4.2246  1.0331  0.0123
13235TIP3   OH261119   0.201   5.028   5.599  0.2606 -0.3536  0.4458
13235TIP3    H161120   0.247   5.091   5.544  0.4832 -0.1941  0.8096
13235TIP3    H261121   0.183   5.076   5.680  0.9052 -0.9175  0.9331
13236TIP3   OH261122   5.211   1.261  14.816 -0.6291  0.1984  0.1073
13236TIP3    H161123   5.191   1.326  14.883 -0.4732  0.5988 -0.2332
13236TIP3    H261124   5.128   1.248  14.770 -0.5276  0.5557 -0.1732
13237TIP3   OH261125   2.677   4.125  15.915  0.0625 -0.5094  0.4603
13237TIP3    H161126   2.742   4.121  15.845  0.0452  2.4049  0.1542
13237TIP3    H261127   2.623   4.201  15.894 -2.8898 -2.1754  1.2484
13238TIP3   OH261128   1.775   4.035  14.835 -0.0607  0.3990  0.1705
13238TIP3    H161129   1.696   4.012  14.885 -0.0798 -0.3292 -0.1735
13238TIP3    H261130   1.763   3.994  14.750 -0.8204  3.0925 -1.1128
13239TIP3   OH261131   3.408   0.692  12.703 -0.6236  0.3330  0.3396
13239TIP3    H161132   3.337   0.704  12.766  0.1795  2.6172  0.9133
13239TIP3    H261133   3.422   0.778  12.665  0.4164 -0.5205 -1.3685
13240TIP3   OH261134   1.282   2.798   1.134 -0.3152  0.0230  0.1140
13240TIP3    H161135   1.276   2.855   1.057  1.2397 -2.1417 -1.7669
13240TIP3    H261136   1.248   2.714   1.103  1.0556 -1.1115  1.5639
13241TIP3   OH261137   1.640   0.287   2.677 -0.0890 -0.3023  0.0966
13241TIP3    H161138   1.629   0.334   2.759 -0.0665  0.0177 -0.0817
13241TIP3    H261139   1.734   0.278   2.667  0.0536  1.8764 -1.1205
13242TIP3   OH261140   6.444   3.165   3.757 -0.0262  0.4481  0.9400
13242TIP3    H161141   6.395   3.179   3.676  0.4166 -0.0250  0.5828
13242TIP3    H261142   6.444   3.250   3.800 -0.7596  0.5680  0.7272
13243TIP3   OH261143   2.491   1.261  16.002  0.2892  0.2709 -0.4113
13243TIP3    H161144   2.557   1.193  16.009  2.2217  1.9388 -1.4299
13243TIP3    H261145   2.524   1.333  16.055 -2.2873  0.0932  1.6366
13244TIP3   OH261146   5.166   5.812  14.298  0.1984 -0.5122 -0.4226
13244TIP3    H161147   5.100   5.787  14.362  1.0916 -0.9986  0.3475
13244TIP3    H261148   5.225   5.736  14.294  1.6462  0.5242  0.1897
13245TIP3   OH261149   2.005   2.332   4.623  0.1456  0.0953 -0.3011
13245TIP3    H161150   2.025   2.400   4.559 -2.9301 -0.4600 -2.0284
13245TIP3    H261151   2.011   2.250   4.573  2.9667 -0.9617  1.5344
13246TIP3   OH261152   4.951   4.565  14.327 -0.3024  0.0226  0.3257
13246TIP3    H161153   5.022   4.547  14.265 -0.0602  0.0853  0.5815
13246TIP3    H261154   4.971   4.652  14.362 -0.3234 -0.0926  0.6358
13247TIP3   OH261155   2.156   0.548  13.426 -0.5824  0.1767 -0.1980
13247TIP3    H161156   2.126   0.460  13.448  0.0110 -0.1340 -0.5986
13247TIP3    H261157   2.130   0.602  13.501  0.4962 -0.6646  0.8270
13248TIP3   OH261158   2.849   6.032  14.841  0.2509  0.1638 -0.7106
13248TIP3    H161159   2.773   6.024  14.899 -0.3407  0.2273 -1.4655
13248TIP3    H261160   2.914   5.974  14.880 -0.3139 -0.1837 -0.2565
13249TIP3   OH261161   2.939   2.730   4.408 -0.7126  0.2120  0.1596
13249TIP3    H161162   2.988   2.687   4.478 -0.4524  1.1990  0.6111
13249TIP3    H261163   2.953   2.824   4.424  0.6020  0.4773 -2.0864
13250TIP3   OH261164   1.301   3.507   5.630 -0.9805 -0.1461  0.0748
13250TIP3    H161165   1.243   3.560   5.685 -1.9625 -0.9620 -0.1399
13250TIP3    H261166   1.243   3.443   5.589  0.1440 -1.2600  0.1703
13251TIP3   OH261167   5.294   5.394   0.726  0.3888  0.7026 -0.8546
13251TIP3    H161168   5.246   5.312   0.736  1.9619 -0.0598  1.2721
13251TIP3    H261169   5.251   5.455   0.785  1.0396  0.4821 -0.1372
13252TIP3   OH261170   3.415   2.826  11.252  0.8248  0.1821 -0.0454
13252TIP3    H161171   3.338   2.837  11.309 -0.4294 -0.8758 -1.4496
13252TIP3    H261172   3.479   2.782  11.307 -0.1589 -0.3545  0.7114
13253TIP3   OH261173   1.149   1.014  12.910  0.0987 -0.5065  0.2659
13253TIP3    H161174   1.244   1.014  12.918  0.1804  0.5691 -0.5776
13253TIP3    H261175   1.131   1.054  12.825 -1.1551  2.0945  1.6062
13254TIP3   OH261176   3.920   1.947  11.686  0.2541  0.5432 -0.2587
13254TIP3    H161177   3.949   1.866  11.645 -0.4160  0.3888 -0.4338
13254TIP3    H261178   3.934   2.014  11.618 -2.1032  0.0883 -1.2806
13255TIP3   OH261179   1.253   2.070  14.809  0.2316 -0.1663  0.5594
13255TIP3    H161180   1.337   2.059  14.766 -0.4874 -0.4308 -0.8612
13255TIP3    H261181   1.236   1.985  14.851 -0.7838 -1.3337 -1.9811
13256TIP3   OH261182   2.690   3.982  12.733  0.3707 -0.5279  0.2427
13256TIP3    H161183   2.757   3.914  12.723 -0.5600 -1.4295  0.0296
13256TIP3    H261184   2.686   3.997  12.827  1.1143 -0.2062  0.2338
13257TIP3   OH261185   1.362   0.843  16.171  0.0216 -0.0982  0.1741
13257TIP3    H161186   1.279   0.890  16.170  0.6764  1.5337 -4.6821
13257TIP3    H261187   1.344   0.763  16.220 -3.8668  0.9008  0.7225
13258TIP3   OH261188   2.935   2.797   1.372  0.0716 -0.3260 -0.4300
13258TIP3    H161189   3.028   2.773   1.373  0.1800  0.1032  0.4796
13258TIP3    H261190   2.928   2.860   1.301  0.7056  0.4989  0.2210
13259TIP3   OH261191   1.063   3.298   2.265 -0.2779 -0.3217  0.1392
13259TIP3    H161192   1.076   3.264   2.354 -0.4409 -0.5547  0.0726
13259TIP3    H261193   0.968   3.303   2.255 -0.2708 -0.9376 -0.2681
13260TIP3   OH261194   3.709   1.284   6.885 -0.1388 -0.1516  0.4524
13260TIP3    H161195   3.792   1.245   6.912  1.2789  0.3891 -2.5992
13260TIP3    H261196   3.675   1.223   6.819 -1.6024  0.1978  0.8563
13261TIP3   OH261197   3.619   3.532  16.179  0.0010 -0.0713 -0.8941
13261TIP3    H161198   3.533   3.573  16.188 -1.3298 -2.3254 -2.2232
13261TIP3    H261199   3.603   3.454  16.125  3.2526  0.4896 -2.9650
13262TIP3   OH261200   1.235   2.360  16.641  0.5939  0.1392  0.3918
13262TIP3    H161201   1.205   2.434  16.694  2.3561 -0.3729  2.2477
13262TIP3    H261202   1.320   2.389  16.606  0.3013 -0.2371 -0.6732
13263TIP3   OH261203   6.267   2.588  15.553 -0.4509  0.8249  0.0599
13263TIP3    H161204   6.184   2.634  15.545 -1.2809 -0.4849  0.8257
13263TIP3    H261205   6.310   2.601  15.468 -1.2014  1.9363 -0.1620
13264TIP3   OH261206   1.047   1.641  13.206 -0.3564 -0.6008 -0.5348
13264TIP3    H161207   0.959   1.677  13.199 -0.5777 -0.6189  1.6576
13264TIP3    H261208   1.091   1.697  13.270  0.7516 -1.5051 -0.4812
13265TIP3   OH261209   4.691   3.003   4.785  0.1436  0.1412 -0.1052
13265TIP3    H161210   4.719   3.002   4.693  0.4138 -1.6026 -0.0290
13265TIP3    H261211   4.773   3.011   4.834  0.0282  0.7093 -0.0013
13266TIP3   OH261212   6.697   2.337  12.415 -0.4086 -0.0010  0.0577
13266TIP3    H161213   6.720   2.426  12.441 -1.8921  0.3599  0.2685
13266TIP3    H261214   6.610   2.323  12.453 -1.6844 -0.2876 -2.7020
13267TIP3   OH261215   4.921   6.629  16.643 -0.0138 -0.4808  0.3289
13267TIP3    H161216   4.939   6.712  16.686 -0.2520  0.8233 -1.9366
13267TIP3    H261217   5.005   6.600  16.608 -0.4614  0.6242 -1.8303
13268TIP3   OH261218   0.083   6.319   4.114  0.4078 -0.1475  0.0514
13268TIP3    H161219   0.059   6.392   4.172  1.6536  1.7449 -1.6537
13268TIP3    H261220   0.084   6.358   4.026 -2.4727 -3.1364 -1.4842
13269TIP3   OH261221   4.955   3.112   1.680 -0.1325 -0.0436 -0.3481
13269TIP3    H161222   4.924   3.103   1.771  1.7459  5.9546  1.3110
13269TIP3    H261223   4.874   3.114   1.628 -1.4517 -0.6533  1.5520
13270TIP3   OH261224   1.194   5.110  11.465 -0.5814  0.3740 -0.3021
13270TIP3    H161225   1.221   5.052  11.393 -0.5294  0.7457 -0.5890
13270TIP3    H261226   1.275   5.155  11.491 -0.2372 -1.0124  1.1733
13271TIP3   OH261227   6.746   1.827  10.785 -0.3669 -0.4281  0.0878
13271TIP3    H161228   6.766   1.762  10.718  2.0476  0.1439  0.1554
13271TIP3    H261229   6.770   1.786  10.867 -1.4564 -0.4085  0.4372
13272TIP3   OH261230   2.546   0.765   3.133 -0.2264 -0.1850  0.0448
13272TIP3    H161231   2.467   0.749   3.083  0.1049 -0.1023 -0.5088
13272TIP3    H261232   2.617   0.733   3.078  0.1229 -0.3455  0.5751
13273TIP3   OH261233   3.629   2.941   3.364 -0.3852  0.6242  0.3098
13273TIP3    H161234   3.622   2.869   3.426 -2.2283  0.2263 -0.2752
13273TIP3    H261235   3.570   3.008   3.398 -1.4809  0.3706 -0.9738
13274TIP3   OH261236   6.128   1.603  12.555  0.6120  0.5499 -0.5716
13274TIP3    H161237   6.197   1.571  12.496  1.8799  2.1291 -0.0307
13274TIP3    H261238   6.050   1.553  12.531  1.3971  0.2707 -2.7502
13275TIP3   OH261239   6.429   5.237  16.119 -0.3071  0.2869  0.3582
13275TIP3    H161240   6.369   5.185  16.172 -1.2376 -0.7311 -1.5761
13275TIP3    H261241   6.515   5.200  16.139 -0.3157  1.3969  2.7426
13276TIP3   OH261242   0.552   0.363   0.836  0.1933  0.4039 -0.0198
13276TIP3    H161243   0.461   0.386   0.815  0.4378 -0.3063 -2.1444
13276TIP3    H261244   0.598   0.371   0.752  1.8679 -0.3365  0.7838
13277TIP3   OH261245   5.280   4.849  17.084 -0.4691  0.4874  0.4459
13277TIP3    H161246   5.338   4.905  17.137 -1.6302 -0.0216  2.3651
13277TIP3    H261247   5.336   4.776  17.058  0.8582  2.0797 -1.4529
13278TIP3   OH261248   5.637   3.834   4.684  0.5272 -0.5193  0.3082
13278TIP3    H161249   5.591   3.842   4.601  0.5903  1.6514  0.4389
13278TIP3    H261250   5.730   3.831   4.661  0.6138  1.2247  0.3064
13279TIP3   OH261251   5.539   2.246   0.914 -0.4390  0.0488 -0.1887
13279TIP3    H161252   5.522   2.340   0.920 -0.7882  0.0338 -0.8891
13279TIP3    H261253   5.617   2.239   0.860 -0.2328 -0.0537  0.1192
13280TIP3   OH261254   5.817   3.721  11.790  0.1126 -0.1999 -0.2022
13280TIP3    H161255   5.809   3.817  11.794 -0.7118 -0.2135 -1.2259
13280TIP3    H261256   5.910   3.706  11.773  0.0447  0.4772 -1.2581
13281TIP3   OH261257   0.430   5.763   3.922  0.0671 -0.2630 -0.0867
13281TIP3    H161258   0.400   5.713   3.846  0.8173  0.6644 -1.0087
13281TIP3    H261259   0.374   5.841   3.923 -0.5902 -0.7142  0.9071
13282TIP3   OH261260   2.643   4.701  12.133 -0.3681 -0.2889  0.0776
13282TIP3    H161261   2.727   4.738  12.105 -1.3751  0.6865 -1.8481
13282TIP3    H261262   2.625   4.631  12.069 -1.4882  0.1957 -0.1596
13283TIP3   OH261263   2.929   3.926   5.634  0.2168  0.2994 -0.4399
13283TIP3    H161264   2.909   3.850   5.581  0.2656 -0.0356  0.0130
13283TIP3    H261265   3.002   3.898   5.690  0.2152  0.6646 -0.2518
13284TIP3   OH261266   3.738   4.938   1.522 -0.6943  0.3205  0.0814
13284TIP3    H161267   3.791   4.896   1.455  1.6655  1.7571  0.9431
13284TIP3    H261268   3.667   4.980   1.474  0.1806  0.1824 -1.3767
13285TIP3   OH261269   5.422   6.188   6.645  0.1547 -0.3311 -0.5592
13285TIP3    H161270   5.396   6.101   6.616 -1.4786  0.3157 -1.1009
13285TIP3    H261271   5.508   6.201   6.604 -0.0699 -1.2442 -1.3783
13286TIP3   OH261272   0.768   5.257   1.591  0.0625 -0.0447  0.2336
13286TIP3    H161273   0.832   5.189   1.572 -0.4396 -0.6236  0.5784
13286TIP3    H261274   0.702   5.214   1.645 -1.1488  0.2560 -0.9361
13287TIP3   OH261275   3.714   5.467  16.416 -0.0673 -0.2244  0.3003
13287TIP3    H161276   3.688   5.558  16.400 -0.5803 -0.3849  0.2033
13287TIP3    H261277   3.636   5.416  16.395  0.1033 -0.6589  0.7151
13288TIP3   OH261278   0.731   2.159  11.739  0.0857  0.4857  0.1915
13288TIP3    H161279   0.694   2.230  11.686  0.6698  1.0826  0.5699
13288TIP3    H261280   0.655   2.114  11.776 -0.4225 -0.7429 -2.1215
13289TIP3   OH261281   6.104   4.499   2.159 -0.1081 -0.0314  0.3332
13289TIP3    H161282   6.188   4.528   2.196 -1.1032  1.7248  1.3325
13289TIP3    H261283   6.128   4.455   2.078  2.0720 -2.8113  2.2852
13290TIP3   OH261284   5.969   6.492  14.267 -0.5773  0.0216  0.4244
13290TIP3    H161285   6.017   6.573  14.248 -0.3318 -0.6509 -2.2527
13290TIP3    H261286   5.892   6.496  14.211 -1.1195 -1.1427  1.0484
13291TIP3   OH261287   1.863   1.276   3.535  0.2862  0.0782  0.1421
13291TIP3    H161288   1.884   1.364   3.566  0.1100  0.3626 -0.5280
13291TIP3    H261289   1.808   1.238   3.604 -1.5919  1.3450 -0.5928
13292TIP3   OH261290   2.244   0.832  16.195 -0.3502 -0.0089  0.7617
13292TIP3    H161291   2.255   0.749  16.241  0.2420 -0.0027  0.6355
13292TIP3    H261292   2.269   0.899  16.259 -0.3730  0.0508  0.7090
13293TIP3   OH261293   5.164   0.230   0.129  0.2306  0.0809  0.3181
13293TIP3    H161294   5.181   0.321   0.102  1.6564  0.1240  1.2769
13293TIP3    H261295   5.178   0.179   0.049  0.5703  0.5943  0.0394
13294TIP3   OH261296   1.920   0.302  16.686 -0.2009  0.0988 -0.2453
13294TIP3    H161297   1.990   0.320  16.624 -0.1138  0.6697  0.0117
13294TIP3    H261298   1.878   0.222  16.653  1.6924 -1.3061  0.5954
13295TIP3   OH261299   3.407   4.347   3.242 -0.2777 -0.6371  0.1241
13295TIP3    H161300   3.485   4.344   3.186  1.7657 -0.4412  2.7271
13295TIP3    H261301   3.398   4.258   3.276 -0.0957 -0.2749  1.1680
13296TIP3   OH261302   4.176   4.428   2.644 -0.0413 -0.3188 -0.4608
13296TIP3    H161303   4.172   4.382   2.728 -0.6613  0.7986  0.1477
13296TIP3    H261304   4.261   4.403   2.607  0.2967 -0.7252  0.5493
13297TIP3   OH261305   3.881   0.934  10.984  0.4677 -0.2627  0.7071
13297TIP3    H161306   3.940   1.002  10.952 -0.7115  1.3418  1.7938
13297TIP3    H261307   3.821   0.917  10.911  0.1528  0.6081  0.7558
13298TIP3   OH261308   1.882   2.194   2.364  0.0604 -0.3767 -0.3485
13298TIP3    H161309   1.799   2.147   2.369 -0.8577  1.1013 -0.9147
13298TIP3    H261310   1.910   2.205   2.455 -0.8712 -0.0386 -0.0986
13299TIP3   OH261311   6.170   4.752   5.711 -0.4041  0.2128  0.0136
13299TIP3    H161312   6.137   4.827   5.662  0.9564 -0.2083 -1.6478
13299TIP3    H261313   6.210   4.791   5.789  1.8547  1.5088 -1.6492
13300TIP3   OH261314   4.150   0.937  13.139 -0.1580 -0.0533 -0.3016
13300TIP3    H161315   4.241   0.956  13.164 -0.2180 -0.1936  0.0203
13300TIP3    H261316   4.125   1.012  13.084 -0.4514  0.9313  1.1225
13301TIP3   OH261317   4.251   4.356  16.941  0.9322  0.1054  0.6245
13301TIP3    H161318   4.255   4.382  16.849 -2.5557  0.6931  0.5032
13301TIP3    H261319   4.244   4.260  16.939 -2.2072  0.2378 -0.0692
13302TIP3   OH261320   0.991   3.227   4.791 -0.6020 -0.1635  0.4324
13302TIP3    H161321   0.945   3.145   4.774 -0.0271 -0.5158  0.5404
13302TIP3    H261322   0.924   3.294   4.784 -0.9639 -0.5831 -0.2672
13303TIP3   OH261323   3.809   5.754   4.332  0.1617 -0.3319  0.6929
13303TIP3    H161324   3.793   5.730   4.423 -0.6593 -1.2170  0.3431
13303TIP3    H261325   3.785   5.846   4.326 -0.0603 -0.3490  1.3069
13304TIP3   OH261326   3.593   5.505  11.849 -0.0631 -0.4672 -0.0306
13304TIP3    H161327   3.676   5.457  11.846  0.3520  0.2594 -1.0789
13304TIP3    H261328   3.529   5.445  11.810  0.0231 -0.9253  0.5231
13305TIP3   OH261329   2.751   2.680   4.766 -0.1499 -0.0601  0.6270
13305TIP3    H161330   2.713   2.731   4.695 -2.1288 -1.4524  0.5718
13305TIP3    H261331   2.773   2.745   4.833 -0.7687  1.0335 -0.1899
13306TIP3   OH261332   4.502   4.561   0.807 -0.1715  0.1803 -0.4203
13306TIP3    H161333   4.529   4.503   0.878 -0.1829 -2.0134 -2.1055
13306TIP3    H261334   4.559   4.539   0.734 -0.9006  1.5564 -1.4736
13307TIP3   OH261335   6.091   3.657  14.813 -0.5781 -0.0292 -0.3219
13307TIP3    H161336   6.111   3.565  14.793  1.8853  0.0490  1.3155
13307TIP3    H261337   6.100   3.663  14.908  2.7158  2.5140 -0.6235
13308TIP3   OH261338   1.521   3.961   3.043 -0.2615 -0.5434 -0.0474
13308TIP3    H161339   1.602   4.011   3.038 -1.4341  1.4805 -0.1113
13308TIP3    H261340   1.548   3.874   3.070  1.7660  0.5259  1.6923
13309TIP3   OH261341   1.398   1.278   0.878 -0.0774  0.2724 -0.3952
13309TIP3    H161342   1.410   1.233   0.795 -0.0742  0.0041 -0.2510
13309TIP3    H261343   1.456   1.354   0.873  0.0044  0.1978 -0.5912
13310TIP3   OH261344   0.485   3.107   0.488  0.1602 -0.3522  0.4262
13310TIP3    H161345   0.521   3.191   0.458 -0.2145  0.1037  1.2155
13310TIP3    H261346   0.540   3.083   0.563 -1.3102  0.5085  1.8443
13311TIP3   OH261347   0.086   5.038   0.624  0.0708  0.0375  0.2766
13311TIP3    H161348   0.108   4.969   0.685 -0.6094 -1.2193 -0.8518
13311TIP3    H261349  -0.010   5.039   0.621  0.0840  0.3941 -0.4150
13312TIP3   OH261350   2.436   1.355  16.950  0.6534 -0.0642  1.1096
13312TIP3    H161351   2.354   1.405  16.951  1.4778  1.3351  1.3469
13312TIP3    H261352   2.500   1.415  16.911  1.3807 -1.4562  0.0822
13313TIP3   OH261353   3.063   4.172  12.595  1.2594  0.6596  0.1511
13313TIP3    H161354   3.017   4.205  12.672  2.7274 -0.7077  1.7097
13313TIP3    H261355   3.021   4.216  12.521 -1.6227  0.4728  1.5385
13314TIP3   OH261356   2.053   3.254  11.915  0.2502  0.1134 -0.0584
13314TIP3    H161357   2.016   3.259  12.003  0.6939  0.9376  0.0928
13314TIP3    H261358   2.093   3.167  11.911 -0.4309 -0.2275  0.2750
13315TIP3   OH261359   0.979   6.466  13.375 -0.5245  0.0787 -0.2146
13315TIP3    H161360   1.022   6.502  13.452  1.2383  1.7893 -1.8842
13315TIP3    H261361   0.980   6.538  13.311 -2.0963 -1.1952 -1.7805
13316TIP3   OH261362   3.375   5.357   2.412  0.2497 -0.1216 -0.2574
13316TIP3    H161363   3.391   5.301   2.336 -0.8343  1.8899 -2.0862
13316TIP3    H261364   3.297   5.408   2.388 -0.1143  0.6128  2.2177
13317TIP3   OH261365   3.584   2.466   5.515  0.2707 -0.3609  0.2606
13317TIP3    H161366   3.531   2.451   5.437  1.6717 -0.3853 -0.7215
13317TIP3    H261367   3.671   2.489   5.481  0.6083  0.7998  1.7962
13318TIP3   OH261368   6.541   4.967   1.633  0.0601  0.8101 -0.1905
13318TIP3    H161369   6.487   5.004   1.563  0.0691  0.0453 -0.6211
13318TIP3    H261370   6.608   4.917   1.586  2.1477  3.0179  0.2469
13319TIP3   OH261371   0.855   5.995  12.796  0.6351  0.3394 -0.3502
13319TIP3    H161372   0.794   5.982  12.723 -1.3031  0.4176  1.1519
13319TIP3    H261373   0.888   6.084  12.784  0.7772  0.1584 -1.4126
13320TIP3   OH261374   4.196   5.560  12.839 -0.8203  0.4189 -0.1848
13320TIP3    H161375   4.267   5.529  12.895 -0.9256  0.4079 -0.0577
13320TIP3    H261376   4.210   5.654  12.832 -1.2286  0.5334  0.4590
13321TIP3   OH261377   3.131   1.288  11.020 -0.0684  0.1671 -0.2397
13321TIP3    H161378   3.062   1.249  10.966 -0.5647  1.1451 -0.3365
13321TIP3    H261379   3.191   1.328  10.957  0.5531 -0.6048 -0.1527
13322TIP3   OH261380   6.068   5.214   1.163 -0.1731  0.0015 -0.1300
13322TIP3    H161381   6.057   5.122   1.189 -2.2519  0.3134  0.2777
13322TIP3    H261382   5.982   5.253   1.176  0.8999  2.2819  0.6200
13323TIP3   OH261383   2.515   0.990   5.253 -0.5396  0.0359  0.3517
13323TIP3    H161384   2.437   1.040   5.230 -1.3389 -1.1807  0.3491
13323TIP3    H261385   2.504   0.968   5.345  0.3722  0.8305  0.6704
13324TIP3   OH261386   1.599   2.695  13.973  0.1006  0.2474  0.8825
13324TIP3    H161387   1.504   2.689  13.986 -0.1282 -2.1444 -1.1733
13324TIP3    H261388   1.612   2.778  13.927 -0.8827  0.9540  1.8495
13325TIP3   OH261389   2.972   2.101  11.495 -0.8591 -0.3618  0.3369
13325TIP3    H161390   2.977   2.170  11.429 -0.7010 -0.7316 -0.0418
13325TIP3    H261391   2.894   2.123  11.547  0.4816  1.3995  1.7151
13326TIP3   OH261392   2.701   0.397   3.329 -0.6653 -0.1679  0.0417
13326TIP3    H161393   2.796   0.382   3.324  0.0814  3.0361  1.8985
13326TIP3    H261394   2.670   0.330   3.390  0.4306 -1.0654 -0.3394
13327TIP3   OH261395   3.732   5.472   2.212 -0.1870 -0.6173 -0.3170
13327TIP3    H161396   3.683   5.510   2.285 -1.4444  1.3680 -2.0849
13327TIP3    H261397   3.797   5.415   2.254 -1.0736  0.1611  2.3083
13328TIP3   OH261398   3.282   5.748  14.781  0.4871 -0.0590  0.4800
13328TIP3    H161399   3.343   5.822  14.781  1.0721 -0.5206 -0.1462
13328TIP3    H261400   3.337   5.673  14.758 -0.3958 -0.4329 -0.4430
13329TIP3   OH261401   3.213   3.392   6.737  0.6050 -0.2615  0.0900
13329TIP3    H161402   3.220   3.348   6.652 -2.7367  0.2613 -0.5873
13329TIP3    H261403   3.261   3.474   6.725  0.8027 -0.5168 -1.0392
13330TIP3   OH261404   5.135   0.892  11.120  0.5650 -0.6163 -0.2763
13330TIP3    H161405   5.070   0.939  11.067  1.1186  0.4078 -0.0747
13330TIP3    H261406   5.217   0.940  11.106  0.9102 -0.8500  0.8202
13331TIP3   OH261407   4.020   6.715   5.485 -0.6697 -0.2566  0.1148
13331TIP3    H161408   4.013   6.624   5.513  0.6482 -0.8454 -1.2881
13331TIP3    H261409   4.114   6.727   5.468 -0.8344  1.3494  0.1911
13332TIP3   OH261410   4.500   1.247   5.903  0.1664  0.4438  0.9604
13332TIP3    H161411   4.530   1.270   5.991  1.1197  1.8731  0.3111
13332TIP3    H261412   4.425   1.305   5.887 -0.1169  0.0615  0.8959
13333TIP3   OH261413   2.400   5.999  16.533 -0.1405  0.5031  0.1953
13333TIP3    H161414   2.474   5.961  16.486  0.6616  0.4851  1.4309
13333TIP3    H261415   2.370   6.071  16.476 -0.5603 -0.8098 -1.3186
13334TIP3   OH261416   3.788   4.172   4.483 -0.1089 -0.5054  0.2556
13334TIP3    H161417   3.793   4.100   4.546  0.9638 -2.9620 -2.4265
13334TIP3    H261418   3.728   4.141   4.416 -2.1172  2.4929  0.4669
13335TIP3   OH261419   2.895   5.677   4.442  0.4789  0.2313  0.0646
13335TIP3    H161420   2.990   5.666   4.438  0.5871  0.6293  1.2663
13335TIP3    H261421   2.871   5.708   4.354  1.6505  1.5741  0.1970
13336TIP3   OH261422   3.148   1.348   3.611 -0.8111 -0.5769 -0.2120
13336TIP3    H161423   3.151   1.413   3.681  3.7561 -1.2852  0.5920
13336TIP3    H261424   3.139   1.264   3.657  2.4939 -1.0693 -0.2342
13337TIP3   OH261425   0.774   4.190  11.750  0.3152 -0.5037 -0.1470
13337TIP3    H161426   0.831   4.249  11.701  0.8599 -0.9602 -0.0749
13337TIP3    H261427   0.816   4.182  11.836  0.3166 -1.0872 -0.1975
13338TIP3   OH261428   3.629   2.181   2.062  0.0098  0.1121  0.3183
13338TIP3    H161429   3.713   2.136   2.060 -0.3960 -0.6792 -1.7373
13338TIP3    H261430   3.651   2.274   2.072  0.9056 -0.3417  3.4125
13339TIP3   OH261431   2.077   5.179   1.309  0.6086 -0.2109 -0.2052
13339TIP3    H161432   2.073   5.097   1.358  1.4662  0.0453  0.3090
13339TIP3    H261433   2.034   5.159   1.226  0.2071 -0.9886  0.1759
13340TIP3   OH261434   0.027   3.543  16.690  0.5974  0.0011 -0.0266
13340TIP3    H161435  -0.018   3.609  16.743 -0.8122  0.2492 -1.4457
13340TIP3    H261436   0.090   3.593  16.639  1.1308 -0.0790  0.5447
13341TIP3   OH261437   3.703   3.354   0.826  0.0541 -0.0627  0.0209
13341TIP3    H161438   3.788   3.364   0.784 -0.7780 -1.0921 -2.0066
13341TIP3    H261439   3.660   3.283   0.779 -2.1809  0.8138  0.5789
13342TIP3   OH261440   0.760   3.295  14.113 -1.0984 -0.1196  0.6626
13342TIP3    H161441   0.810   3.227  14.067  0.5788  1.3700  0.1798
13342TIP3    H261442   0.790   3.289  14.204 -0.2975  0.5091  0.4517
13343TIP3   OH261443   0.246   0.099   1.274 -0.3918  0.0414 -0.3004
13343TIP3    H161444   0.305   0.051   1.333 -0.9701  0.3059  0.5067
13343TIP3    H261445   0.301   0.168   1.238 -0.5469  1.2648  1.6529
13344TIP3   OH261446   3.332   0.510  14.524  0.1050  0.3907  0.1431
13344TIP3    H161447   3.358   0.594  14.485  1.3199  0.0769  0.2336
13344TIP3    H261448   3.397   0.495  14.593  0.1735 -0.8405 -0.1719
13345TIP3   OH261449   6.708   6.315  12.384 -0.0760  0.0182  0.3045
13345TIP3    H161450   6.666   6.244  12.432 -1.1984  0.6633  0.3094
13345TIP3    H261451   6.693   6.295  12.292  1.1974 -0.6892  0.2333
13346TIP3   OH261452   3.626   1.675  11.639  0.2350  0.4925  0.1171
13346TIP3    H161453   3.682   1.621  11.582 -0.3945  0.5265 -0.5480
13346TIP3    H261454   3.631   1.763  11.602  2.2246  1.2262  1.9045
13347TIP3   OH261455   5.685   6.174  16.754 -0.0859 -0.4065 -0.3956
13347TIP3    H161456   5.695   6.216  16.839 -0.8329  0.2014 -0.5960
13347TIP3    H261457   5.703   6.243  16.690  1.3420 -1.0696 -0.7623
13348TIP3   OH261458   2.249   2.769   2.492  0.3484 -0.0012  0.6854
13348TIP3    H161459   2.263   2.677   2.517  0.1773  0.1088  1.1938
13348TIP3    H261460   2.335   2.810   2.502  0.4256 -0.1074  0.4549
13349TIP3   OH261461   5.468   1.152   1.338 -0.1082 -0.1902  0.3549
13349TIP3    H161462   5.507   1.211   1.274 -2.1292 -0.6124 -1.3616
13349TIP3    H261463   5.436   1.078   1.286 -0.4391 -1.3035  2.0669
13350TIP3   OH261464   5.367   5.515   2.156  0.4395  0.0172 -0.1246
13350TIP3    H161465   5.457   5.496   2.182  0.7080 -1.1894 -1.7830
13350TIP3    H261466   5.314   5.485   2.230  1.3079 -0.8758  0.1538
13351TIP3   OH261467   6.082   2.458  13.771  0.3376 -0.4333  1.3378
13351TIP3    H161468   6.076   2.550  13.797 -0.0767 -0.1279  0.2360
13351TIP3    H261469   6.126   2.415  13.845 -0.3994  0.4463  2.3212
13352TIP3   OH261470   2.958   2.848  14.684  0.5277 -0.2082 -0.0226
13352TIP3    H161471   3.044   2.845  14.726  0.1114  1.1674  1.0257
13352TIP3    H261472   2.916   2.925  14.722 -1.3292 -1.0715 -0.2122
13353TIP3   OH261473   2.339   0.434  13.003  0.3518 -0.5958 -0.6581
13353TIP3    H161474   2.243   0.438  13.005  0.3733  0.6719 -1.3159
13353TIP3    H261475   2.359   0.341  12.994 -0.7958 -0.9359  0.0871
13354TIP3   OH261476   2.086   6.145   2.062  0.6648 -0.3780  0.2975
13354TIP3    H161477   2.144   6.135   2.137  0.7627 -1.3934  0.0980
13354TIP3    H261478   2.144   6.145   1.986  0.4456 -0.8550  0.1281
13355TIP3   OH261479   0.278   6.737   1.755 -0.4676 -0.3886 -0.5495
13355TIP3    H161480   0.276   6.709   1.664  1.7099 -1.0840 -0.4481
13355TIP3    H261481   0.366   6.774   1.766 -0.5870 -0.5840  1.3305
13356TIP3   OH261482   2.515   2.842  16.139 -0.4840  0.5146 -0.1426
13356TIP3    H161483   2.430   2.816  16.174 -1.4037  1.2295 -1.7309
13356TIP3    H261484   2.499   2.854  16.046  1.4751  0.2722 -0.5349
13357TIP3   OH261485   3.961   6.124   3.722 -0.2165  0.3278 -0.2338
13357TIP3    H161486   3.889   6.187   3.718 -0.9150 -0.5299 -1.7319
13357TIP3    H261487   3.919   6.039   3.729  0.7214 -0.0350  2.0968
13358TIP3   OH261488   4.579   0.052   4.488  0.0323  0.5941  0.1815
13358TIP3    H161489   4.552  -0.002   4.413 -1.2475  1.1018  0.2502
13358TIP3    H261490   4.621  -0.010   4.548  0.3021  0.0238 -0.5782
13359TIP3   OH261491   5.131   0.337  15.266 -0.0297  0.5020  0.1246
13359TIP3    H161492   5.134   0.294  15.181 -0.0130  1.3405 -0.3156
13359TIP3    H261493   5.150   0.429  15.247  2.0729  0.3589  1.3130
13360TIP3   OH261494   1.838   5.336  14.646 -0.1310  0.2495 -0.3212
13360TIP3    H161495   1.850   5.272  14.717 -1.8734  0.7286  0.4561
13360TIP3    H261496   1.905   5.402  14.662  0.4829 -0.4269 -0.0379
13361TIP3   OH261497   0.307   3.807  11.274  0.1112  0.0566  0.6638
13361TIP3    H161498   0.263   3.799  11.190 -0.3759  0.0996  0.9159
13361TIP3    H261499   0.237   3.811  11.339  0.4882 -0.3617  1.1106
13362TIP3   OH261500   4.066   5.682   1.393  0.3231  0.6190 -0.1363
13362TIP3    H161501   4.058   5.601   1.343  1.6713  1.7516 -2.3401
13362TIP3    H261502   3.977   5.716   1.397 -0.0684 -0.3576 -0.2252
13363TIP3   OH261503   3.702   2.157   0.602  0.1558 -0.5271 -0.3479
13363TIP3    H161504   3.648   2.171   0.524  0.7321 -0.8261 -0.8098
13363TIP3    H261505   3.772   2.222   0.594 -0.3408  0.1294  0.4544
13364TIP3   OH261506   3.863   4.153   1.220  0.1304 -0.0705 -0.1701
13364TIP3    H161507   3.927   4.214   1.184 -0.8140  0.6521 -0.6626
13364TIP3    H261508   3.882   4.069   1.177  0.4726  0.2380 -0.6254
13365TIP3   OH261509   4.388   3.865   3.467  0.2733  0.0720  0.0293
13365TIP3    H161510   4.467   3.888   3.420  0.8624  2.1182  1.8778
13365TIP3    H261511   4.342   3.948   3.480 -1.0611 -0.7647  0.9167
13366TIP3   OH261512   4.106   5.576  13.791 -0.0319  0.2740  0.3734
13366TIP3    H161513   4.198   5.578  13.816  0.1478 -1.9900  0.1503
13366TIP3    H261514   4.071   5.660  13.820  1.7348  0.5473  1.9003
13367TIP3   OH261515   4.261   1.403   4.784  0.3196 -0.3884  0.4477
13367TIP3    H161516   4.215   1.392   4.867 -0.8702  0.1459 -0.1100
13367TIP3    H261517   4.276   1.497   4.777 -1.9576 -0.0621 -1.1022
13368TIP3   OH261518   1.759   5.789  15.844 -0.1284  0.6535  0.7126
13368TIP3    H161519   1.769   5.880  15.817  0.6392  1.0987  2.3962
13368TIP3    H261520   1.742   5.793  15.938 -1.5301 -0.8848  0.5640
13369TIP3   OH261521   1.441   1.476   5.501 -0.4955 -0.2955  0.5552
13369TIP3    H161522   1.360   1.528   5.506 -0.2968 -0.0884  2.0904
13369TIP3    H261523   1.509   1.535   5.533  0.7397  0.3079 -2.7781
13370TIP3   OH261524   4.208   3.714  17.054  0.0663 -0.4408  0.2508
13370TIP3    H161525   4.227   3.670  17.136 -2.2810 -0.9119  0.5904
13370TIP3    H261526   4.145   3.783  17.077  0.9209  0.7722 -0.8484
13371TIP3   OH261527   4.273   4.151  13.226 -0.0557 -0.0560  0.1508
13371TIP3    H161528   4.254   4.086  13.294 -0.9317  0.6093  0.5651
13371TIP3    H261529   4.320   4.102  13.158 -0.5058 -1.0713  0.5493
13372TIP3   OH261530   6.181   2.164  11.269 -0.5706 -0.1695  0.5070
13372TIP3    H161531   6.170   2.174  11.363 -0.0336 -0.5630  0.6195
13372TIP3    H261532   6.176   2.253  11.234 -0.8780 -0.0334  0.8936
13373TIP3   OH261533   1.333   3.218  16.789 -0.7224 -0.4865 -0.0365
13373TIP3    H161534   1.288   3.216  16.705 -2.2853  0.9140  0.6929
13373TIP3    H261535   1.265   3.246  16.851  0.8235  0.2698  1.3779
13374TIP3   OH261536   6.168   4.697   5.303 -0.0340  0.6042  0.0830
13374TIP3    H161537   6.105   4.766   5.282  0.4460  1.1241  0.2997
13374TIP3    H261538   6.190   4.658   5.219 -1.5899 -0.4409  0.1309
13375TIP3   OH261539   1.492   5.995  15.769  0.2518 -0.2153  0.3977
13375TIP3    H161540   1.414   6.049  15.765 -0.1711 -0.8747 -0.7381
13375TIP3    H261541   1.514   5.990  15.862 -1.8927 -1.1771  0.9072
13376TIP3   OH261542   3.249   6.319  14.466 -0.7176  0.2969  0.1744
13376TIP3    H161543   3.305   6.309  14.389 -1.1917  0.5837 -0.2173
13376TIP3    H261544   3.220   6.230  14.486  0.1093  0.1039  0.5695
13377TIP3   OH261545   0.934   1.406   1.840 -0.3430 -0.0453 -0.4469
13377TIP3    H161546   0.999   1.370   1.900 -2.4369 -2.6998  0.4803
13377TIP3    H261547   0.873   1.454   1.896 -0.7994 -0.1505 -0.8401
13378TIP3   OH261548   4.761   1.073   1.386 -0.0295 -0.0832  0.2466
13378TIP3    H161549   4.722   1.160   1.398 -1.2770 -0.2655 -1.9025
13378TIP3    H261550   4.693   1.023   1.341  1.1407 -1.7915  0.2888
13379TIP3   OH261551   4.976   5.029  11.562  0.1097  0.3436 -0.0574
13379TIP3    H161552   5.056   5.061  11.519  0.5046 -2.1381 -1.3542
13379TIP3    H261553   5.006   4.992  11.645  0.4621 -1.1027 -0.7947
13380TIP3   OH261554   3.461   3.479  15.493  0.2699  0.1384 -0.5825
13380TIP3    H161555   3.536   3.487  15.552  0.1126 -0.7344 -0.2476
13380TIP3    H261556   3.455   3.385  15.475  0.6017  0.4299 -2.3587
13381TIP3   OH261557   0.317   0.678  14.172 -0.2902 -0.3595  0.0971
13381TIP3    H161558   0.358   0.632  14.245 -0.2939  0.8073  0.8613
13381TIP3    H261559   0.309   0.768  14.202 -1.1432 -0.0477 -0.9995
13382TIP3   OH261560   2.660   3.173  15.174 -0.3311 -0.1921 -0.1832
13382TIP3    H161561   2.707   3.092  15.153 -1.1137 -0.8621  0.5552
13382TIP3    H261562   2.646   3.215  15.090  0.7171 -0.4648 -0.5105
13383TIP3   OH261563   6.615   6.254   6.600 -0.2087  0.5610 -0.1585
13383TIP3    H161564   6.580   6.173   6.563  0.3984  0.8031 -1.2901
13383TIP3    H261565   6.677   6.224   6.668 -2.2754  0.1262  1.6582
13384TIP3   OH261566   3.736   6.255  11.267 -0.0515 -0.5063  0.0124
13384TIP3    H161567   3.686   6.174  11.281  0.3803 -1.0705 -1.5394
13384TIP3    H261568   3.701   6.292  11.186  2.5492 -1.3862 -1.6361
13385TIP3   OH261569   3.300   4.478   2.475  0.1204 -0.0087  0.4703
13385TIP3    H161570   3.276   4.570   2.482  0.3333 -0.0572  2.7075
13385TIP3    H261571   3.395   4.479   2.457 -0.2700  0.1568 -1.9027
13386TIP3   OH261572   3.529   1.965  15.600  0.0051 -0.1385 -0.4672
13386TIP3    H161573   3.624   1.965  15.589  0.4298 -2.4869  2.0768
13386TIP3    H261574   3.496   1.912  15.528  0.8019 -0.6027 -0.5015
13387TIP3   OH261575   3.265   0.417   3.654  0.2865  0.6963  0.2373
13387TIP3    H161576   3.276   0.397   3.747 -2.1097  0.5714  0.5409
13387TIP3    H261577   3.207   0.349   3.621  1.6132  0.3570 -1.5452
13388TIP3   OH261578   0.119   5.350  13.426 -0.2070  0.1330  0.0148
13388TIP3    H161579   0.171   5.431  13.425  0.5819 -0.3699 -0.9463
13388TIP3    H261580   0.181   5.283  13.455 -0.4331 -0.4026 -0.7376
13389TIP3   OH261581   1.842   0.285   2.242 -0.1467 -0.2524 -0.0199
13389TIP3    H161582   1.901   0.303   2.168 -0.4792 -0.7959 -0.4263
13389TIP3    H261583   1.754   0.292   2.205 -0.3659  0.9500  0.6790
13390TIP3   OH261584   4.393   2.109  15.977 -0.1954 -0.2508  0.3934
13390TIP3    H161585   4.381   2.192  15.932 -1.8130 -0.5689  0.1790
13390TIP3    H261586   4.427   2.133  16.063 -2.8653  0.8895  1.2346
13391TIP3   OH261587   4.657   5.502   3.497 -0.2404  0.2127 -0.1081
13391TIP3    H161588   4.743   5.477   3.462 -0.4784  0.3576 -0.8118
13391TIP3    H261589   4.627   5.426   3.546 -0.8101 -0.7722 -1.9310
13392TIP3   OH261590   6.177   2.571   4.982  0.0928  0.3489 -0.0188
13392TIP3    H161591   6.140   2.485   4.961  2.0785 -1.3964  2.9065
13392TIP3    H261592   6.103   2.624   5.011 -0.8535 -1.2592  0.5973
13393TIP3   OH261593   1.131   0.051   1.995  0.2124  0.0022  0.1888
13393TIP3    H161594   1.044   0.082   1.967  0.3173  0.5446  0.4500
13393TIP3    H261595   1.115  -0.038   2.026 -0.8104  1.0075  2.8715
13394TIP3   OH261596   1.670   1.178  16.904  0.0980 -0.3728 -0.0709
13394TIP3    H161597   1.579   1.148  16.899 -0.0666  0.0360  0.4504
13394TIP3    H261598   1.689   1.211  16.817 -0.7213  0.8885  0.2117
13395TIP3   OH261599   5.946   1.598  13.183 -0.0403  0.1493  0.1756
13395TIP3    H161600   5.957   1.656  13.258  0.5126  0.8147 -0.4169
13395TIP3    H261601   5.859   1.618  13.150 -0.7937 -1.0014  1.3433
13396TIP3   OH261602   1.140   3.062  13.597  0.2428 -0.2480 -0.1363
13396TIP3    H161603   1.161   3.035  13.687  0.7075  0.2453 -0.0869
13396TIP3    H261604   1.199   3.011  13.542 -0.9003 -1.4823 -0.2731
13397TIP3   OH261605   1.956   5.693  13.873 -0.0947  0.1372 -0.5144
13397TIP3    H161606   2.019   5.752  13.915 -0.1828  0.3712 -0.7068
13397TIP3    H261607   1.995   5.607  13.882  0.4558  0.3271 -0.9808
13398TIP3   OH261608   6.138   1.993  11.543  0.3441 -0.3106 -0.2370
13398TIP3    H161609   6.055   2.022  11.580 -0.0279 -0.7387 -0.7334
13398TIP3    H261610   6.181   2.074  11.516  0.3607 -0.0373  0.5648
13399TIP3   OH261611   6.237   6.450  13.442 -0.0772 -0.6252 -0.1130
13399TIP3    H161612   6.204   6.539  13.454 -0.0735 -0.8426  1.8138
13399TIP3    H261613   6.287   6.453  13.360 -0.0632  1.1451 -0.0599
13400TIP3   OH261614   1.610   2.193   6.042 -0.2689  0.1604 -0.0875
13400TIP3    H161615   1.560   2.114   6.022  0.9917 -1.1457  1.6170
13400TIP3    H261616   1.699   2.162   6.057 -0.0018  1.7042  1.9284
13401TIP3   OH261617   2.298   1.821  11.128 -0.4235 -0.0773 -0.4967
13401TIP3    H161618   2.328   1.911  11.126  0.9114 -0.5026 -0.4664
13401TIP3    H261619   2.333   1.786  11.211 -1.7657 -0.3527 -0.0209
13402TIP3   OH261620   1.041   5.814   0.555 -0.4900  0.3320  0.2281
13402TIP3    H161621   0.993   5.751   0.608 -1.5678  0.6478 -0.3478
13402TIP3    H261622   1.133   5.791   0.567 -0.8742 -1.9800 -0.7351
13403TIP3   OH261623   6.419   2.793  17.323 -0.1133  0.2796 -0.6326
13403TIP3    H161624   6.400   2.858  17.391 -1.1513 -2.7509  2.2015
13403TIP3    H261625   6.512   2.804  17.305 -0.0760  1.9695  0.3706
13404TIP3   OH261626   2.613   1.680  15.604  0.1990  0.6178 -0.4561
13404TIP3    H161627   2.673   1.605  15.598  0.6691  0.7435  1.7112
13404TIP3    H261628   2.548   1.664  15.536  1.5036 -0.6324 -1.4790
13405TIP3   OH261629   3.738   2.034  16.372 -0.0009 -0.0288 -0.5117
13405TIP3    H161630   3.768   1.943  16.379  0.6832  0.1667 -0.8756
13405TIP3    H261631   3.786   2.080  16.440 -1.1465 -0.1276  0.4038
13406TIP3   OH261632   5.371   5.595   5.310  0.1767 -0.2746 -0.3025
13406TIP3    H161633   5.411   5.682   5.322 -0.0313  0.1406 -2.2399
13406TIP3    H261634   5.278   5.614   5.292 -0.2372 -1.0288  0.9220
13407TIP3   OH261635   1.921   3.442   3.485 -0.1432 -0.3451 -0.3227
13407TIP3    H161636   2.001   3.476   3.525 -0.8064 -0.3319  1.0443
13407TIP3    H261637   1.931   3.461   3.391 -0.1649  2.9810  0.2436
13408TIP3   OH261638   0.511   3.325  13.059 -0.3671 -0.4335 -0.8926
13408TIP3    H161639   0.577   3.300  12.995  0.6352 -2.2061  0.7003
13408TIP3    H261640   0.542   3.408  13.095 -0.7484  0.3833 -2.3624
13409TIP3   OH261641   6.153   0.684   0.685 -0.5883 -0.5562  0.7995
13409TIP3    H161642   6.162   0.775   0.714 -0.5039 -0.3214  0.0509
13409TIP3    H261643   6.202   0.633   0.749 -0.4600 -0.0517  1.1023
13410TIP3   OH261644   1.151   1.845  13.377  0.1892  0.2153 -0.1325
13410TIP3    H161645   1.165   1.773  13.440 -0.2757 -1.4610 -1.8417
13410TIP3    H261646   1.056   1.852  13.370  0.2305  1.0976  0.0933
13411TIP3   OH261647   6.347   6.735  17.055  0.3916  0.0915  0.4001
13411TIP3    H161648   6.298   6.748  17.136  1.0665 -1.2711  1.0723
13411TIP3    H261649   6.383   6.821  17.034 -0.3243  0.5971  1.1872
13412TIP3   OH261650   2.237   1.351   4.473  0.3460  0.0595  0.3508
13412TIP3    H161651   2.184   1.425   4.444  2.2789  0.8589 -1.2896
13412TIP3    H261652   2.320   1.389   4.501  1.0547 -1.4044  0.3335
13413TIP3   OH261653   2.067   3.959   6.461  0.7631 -0.5925  0.0193
13413TIP3    H161654   2.072   4.005   6.545  0.3391 -0.0642 -0.2400
13413TIP3    H261655   2.070   3.866   6.484  3.4894 -0.4763  0.4550
13414TIP3   OH261656   6.636   2.704   5.059  0.0283  0.0828 -0.3378
13414TIP3    H161657   6.666   2.783   5.015 -1.1743  0.4604 -0.5249
13414TIP3    H261658   6.659   2.633   5.000 -2.1578  0.6265 -1.9894
13415TIP3   OH261659   0.131   6.090  11.901 -0.1749 -0.2831  0.2163
13415TIP3    H161660   0.085   6.164  11.861  0.6859  0.2567  0.2022
13415TIP3    H261661   0.101   6.089  11.992 -1.1816 -0.7404 -0.0980
13416TIP3   OH261662   0.008   5.375  15.876 -0.0407  0.4307  0.5207
13416TIP3    H161663   0.053   5.304  15.921  1.6570  0.7993 -0.5189
13416TIP3    H261664  -0.019   5.435  15.946  0.6126 -0.0742  1.2091
13417TIP3   OH261665   1.970   3.915   6.018 -0.0606 -0.4497 -0.7208
13417TIP3    H161666   1.878   3.889   6.011  0.1154 -0.8503 -1.7192
13417TIP3    H261667   2.018   3.832   6.026  0.2112 -0.2395 -0.1390
13418TIP3   OH261668   1.456   3.174  14.305  0.1081  0.0614  0.2643
13418TIP3    H161669   1.387   3.240  14.307 -0.1791 -0.1120  4.5938
13418TIP3    H261670   1.535   3.223  14.281 -0.7701  1.0813 -0.6603
13419TIP3   OH261671   5.400   3.406  13.043 -0.6185 -0.0196  0.6533
13419TIP3    H161672   5.320   3.393  12.993 -0.3830 -0.0593  0.2851
13419TIP3    H261673   5.419   3.500  13.034 -0.1741 -0.1605  0.0497
13420TIP3   OH261674   1.450   3.755   0.971 -0.8457 -0.5328  0.1213
13420TIP3    H161675   1.424   3.816   1.041  0.9751 -0.8469  1.1355
13420TIP3    H261676   1.371   3.703   0.955 -2.4859  2.0511 -0.8170
13421TIP3   OH261677   6.169   1.250   2.821 -0.0358  0.0038  0.2271
13421TIP3    H161678   6.258   1.264   2.788  0.1131 -0.4948  0.4182
13421TIP3    H261679   6.149   1.159   2.799 -0.9503  0.4443 -0.8739
13422TIP3   OH261680   0.344   5.858   4.638 -0.2711  0.0778 -0.5092
13422TIP3    H161681   0.295   5.784   4.602  0.4519 -0.1556 -1.0284
13422TIP3    H261682   0.304   5.935   4.599 -1.8976  0.0886  1.0269
13423TIP3   OH261683   3.876   4.137  14.544  0.0952 -0.7096 -0.2374
13423TIP3    H161684   3.872   4.046  14.515  0.7712 -0.5173 -0.9707
13423TIP3    H261685   3.968   4.151  14.567  0.1079 -0.0725 -0.6328
13424TIP3   OH261686   3.301   0.127  16.919  0.3235  0.1201 -0.1505
13424TIP3    H161687   3.381   0.116  16.868  0.8899  1.4001  0.4298
13424TIP3    H261688   3.330   0.129  17.010 -0.7265 -2.6273  0.3441
13425TIP3   OH261689   0.427   4.939  11.071  0.1077 -0.4280 -0.1662
13425TIP3    H161690   0.517   4.968  11.090  0.6101 -2.5366  0.9328
13425TIP3    H261691   0.437   4.850  11.038 -1.5291 -0.2645 -1.1889
13426TIP3   OH261692   0.255   6.027  12.346 -0.3876 -0.2557 -0.0882
13426TIP3    H161693   0.341   6.035  12.387  0.0726 -0.2411 -1.0304
13426TIP3    H261694   0.198   5.995  12.416  0.2169  0.4479  0.7435
13427TIP3   OH261695   5.412   2.847  14.380  0.7023 -0.1706 -0.3473
13427TIP3    H161696   5.342   2.793  14.418 -0.9923  0.5910 -2.2217
13427TIP3    H261697   5.492   2.799  14.400 -0.5303 -2.1649  0.1100
13428TIP3   OH261698   4.054   0.569   0.378  0.2641 -1.0217  0.0844
13428TIP3    H161699   4.035   0.505   0.310 -0.6957 -0.5763 -0.0746
13428TIP3    H261700   4.128   0.620   0.343 -0.1880 -0.8285 -0.6079
13429TIP3   OH261701   4.221   6.378   2.415 -0.9106  0.1100  0.1188
13429TIP3    H161702   4.172   6.333   2.484 -1.4002 -0.2772 -0.4729
13429TIP3    H261703   4.313   6.361   2.437 -1.0578  0.0466  0.7097
13430TIP3   OH261704   1.136   4.951  15.228  0.4468  0.4106 -0.1814
13430TIP3    H161705   1.157   5.036  15.266  0.7448  0.1577  0.2344
13430TIP3    H261706   1.124   4.968  15.134  0.9953  0.8274 -0.1795
13431TIP3   OH261707   5.878   2.637  14.282 -0.0420  0.0526 -0.1492
13431TIP3    H161708   5.973   2.642  14.294 -0.0547  0.2459 -0.1148
13431TIP3    H261709   5.847   2.724  14.307 -0.1812  0.1262 -0.5695
13432TIP3   OH261710   6.574   5.431  12.353  0.2936  0.7478 -0.0152
13432TIP3    H161711   6.640   5.364  12.373 -0.3361 -0.1087 -0.7083
13432TIP3    H261712   6.511   5.386  12.297 -0.3273  1.8436 -0.2233
13433TIP3   OH261713   6.365   3.196   0.601 -0.0211 -0.3030  0.1642
13433TIP3    H161714   6.274   3.198   0.629 -0.2829 -1.4097 -0.5245
13433TIP3    H261715   6.385   3.103   0.591  1.0232 -0.0575 -0.1889
13434TIP3   OH261716   2.457   6.383   5.704 -0.5833  0.0252  0.2256
13434TIP3    H161717   2.399   6.381   5.628  0.4808 -0.5424 -0.6156
13434TIP3    H261718   2.450   6.472   5.738  0.0222  0.7705 -1.4582
13435TIP3   OH261719   1.620   5.052  12.071 -0.2996  0.3972 -0.0949
13435TIP3    H161720   1.534   5.055  12.031 -0.7047  0.7380  0.7774
13435TIP3    H261721   1.618   4.975  12.128  2.0777 -3.5520 -4.5900
13436TIP3   OH261722   3.570   0.330  11.804 -0.1480 -0.5240  0.2995
13436TIP3    H161723   3.490   0.280  11.789 -0.2809  0.2649 -2.1027
13436TIP3    H261724   3.631   0.267  11.842 -1.4549 -1.4931  0.8801
13437TIP3   OH261725   3.929   4.298  16.496  0.4308 -0.1276  0.0990
13437TIP3    H161726   3.861   4.356  16.532  1.6464  0.8431  0.9302
13437TIP3    H261727   3.956   4.245  16.571  2.1545  1.0906  0.3989
13438TIP3   OH261728   1.939   4.379  11.929  0.1168  0.1702 -0.3096
13438TIP3    H161729   1.992   4.457  11.946 -0.2261 -0.0968  2.3327
13438TIP3    H261730   1.990   4.307  11.964 -0.9893 -0.3721  0.2406
13439TIP3   OH261731   2.890   2.500  14.667 -0.1785 -0.5694  0.4991
13439TIP3    H161732   2.969   2.554  14.671 -0.8465  0.3706  1.1321
13439TIP3    H261733   2.841   2.522  14.746 -0.3853 -2.2441  0.8727
13440TIP3   OH261734   5.706   4.303  13.035 -0.5197 -0.2312 -0.2432
13440TIP3    H161735   5.708   4.208  13.039  0.9966 -0.2669 -0.9047
13440TIP3    H261736   5.798   4.329  13.046 -0.7554  1.0838 -1.1094
13441TIP3   OH261737   4.727   6.441  14.703 -0.4162 -0.3328  0.1696
13441TIP3    H161738   4.768   6.375  14.759 -1.0768 -1.7387 -0.9395
13441TIP3    H261739   4.757   6.420  14.615 -1.1956  0.4174 -0.2951
13442TIP3   OH261740   3.389   4.801  13.885  0.0340 -0.5142 -0.1423
13442TIP3    H161741   3.339   4.837  13.812 -0.5232 -1.0598 -0.0401
13442TIP3    H261742   3.324   4.757  13.939  0.3029  0.6124  1.1528
13443TIP3   OH261743   6.125   2.520   1.851 -0.0122  0.1297  1.0298
13443TIP3    H161744   6.220   2.528   1.858  0.2244 -1.5192  0.0018
13443TIP3    H261745   6.106   2.429   1.875 -1.0620 -0.2737 -1.0975
13444TIP3   OH261746   4.490   5.331  17.284  0.0845  0.1067  0.4307
13444TIP3    H161747   4.493   5.253  17.229 -0.8868  0.6763 -0.4606
13444TIP3    H261748   4.403   5.328  17.325 -0.1355  0.9306  0.0500
13445TIP3   OH261749   3.855   3.169  15.188  0.1003  0.1431 -0.1115
13445TIP3    H161750   3.923   3.105  15.209  1.0630  0.5203 -1.8461
13445TIP3    H261751   3.774   3.130  15.220  0.7464 -1.6540 -0.5461
13446TIP3   OH261752   0.483   6.631   0.882 -0.0754  0.3625 -0.4356
13446TIP3    H161753   0.487   6.725   0.900 -2.7054  0.8838 -1.9825
13446TIP3    H261754   0.502   6.624   0.788  4.2116 -1.2372  0.2887
13447TIP3   OH261755   2.263   5.404  15.855  0.3969  0.1011 -0.0865
13447TIP3    H161756   2.330   5.430  15.792  0.6300 -0.2086  0.0304
13447TIP3    H261757   2.310   5.350  15.919  0.4937  1.6429  1.2173
13448TIP3   OH261758   4.700   3.059   1.620 -0.1699 -0.2896 -0.3749
13448TIP3    H161759   4.668   3.125   1.559  0.1020 -0.1311 -0.3458
13448TIP3    H261760   4.640   2.985   1.610 -1.0407  0.3191  0.2785
13449TIP3   OH261761   2.584   5.503   4.456  0.1234 -0.2248 -0.0954
13449TIP3    H161762   2.526   5.438   4.496 -1.5239  1.0590 -0.2919
13449TIP3    H261763   2.562   5.585   4.500  1.2638  0.4502 -0.7330
13450TIP3   OH261764   3.868   5.204  12.211 -0.2377 -0.1665 -0.3308
13450TIP3    H161765   3.876   5.174  12.120 -1.1934 -3.3944  0.5276
13450TIP3    H261766   3.851   5.298  12.203  0.2824 -0.2108 -3.4463
13451TIP3   OH261767   6.674   1.628  16.060 -0.1545 -0.1650 -0.4205
13451TIP3    H161768   6.595   1.577  16.040 -0.9635  0.5639  0.7575
13451TIP3    H261769   6.649   1.681  16.136  1.6613 -0.3051  0.3098
13452TIP3   OH261770   6.409   4.479   6.159  0.6603  0.5501  0.5006
13452TIP3    H161771   6.341   4.415   6.135 -1.2939  2.8870 -0.6280
13452TIP3    H261772   6.481   4.425   6.192 -0.5366 -2.2881 -1.0713
13453TIP3   OH261773   2.871   1.991   0.377 -0.1294 -0.0961  0.2808
13453TIP3    H161774   2.965   1.994   0.397 -0.3710  0.7774  1.4026
13453TIP3    H261775   2.867   1.970   0.283  1.2586  1.8222 -0.2811
13454TIP3   OH261776   6.485   1.377  11.575  0.0040 -0.3602 -0.0761
13454TIP3    H161777   6.427   1.306  11.601  1.0785 -0.9374  0.8571
13454TIP3    H261778   6.554   1.377  11.642  0.6195  0.8376 -0.6802
13455TIP3   OH261779   1.779   5.416   2.673  0.6129  0.2722 -0.2297
13455TIP3    H161780   1.772   5.346   2.739 -0.2082 -0.5798 -1.1794
13455TIP3    H261781   1.730   5.489   2.711 -0.8540 -0.5971 -0.3426
13456TIP3   OH261782   4.521   1.882  15.914 -0.2055 -0.3193  0.4019
13456TIP3    H161783   4.609   1.911  15.890 -0.1327 -1.1628 -0.4145
13456TIP3    H261784   4.471   1.963  15.924  0.5652  0.1573  0.5166
13457TIP3   OH261785   1.629   0.616   0.539 -0.1112  0.4972 -0.0890
13457TIP3    H161786   1.705   0.674   0.548  1.4543 -1.4201 -0.2266
13457TIP3    H261787   1.666   0.532   0.510 -2.2147 -0.6974  0.4429
13458TIP3   OH261788   6.648   2.043  14.749  0.0919 -0.1710  0.1166
13458TIP3    H161789   6.719   2.107  14.743  1.0995 -1.1976  0.8191
13458TIP3    H261790   6.668   1.992  14.827 -1.6128 -0.2786  0.5208
13459TIP3   OH261791   1.491   3.967  16.270 -0.1125  0.0964 -0.5581
13459TIP3    H161792   1.426   3.908  16.308  0.8156 -1.9778 -1.9944
13459TIP3    H261793   1.508   4.031  16.338 -3.3059  0.4933  0.0454
13460TIP3   OH261794   0.774   0.183  14.742 -0.4897 -0.3704  0.1245
13460TIP3    H161795   0.679   0.184  14.732 -0.5553  0.1486  0.7258
13460TIP3    H261796   0.803   0.268  14.710 -0.1603 -0.7567 -0.6177
13461TIP3   OH261797   5.927   3.239  11.625 -0.3773  0.5378  0.2089
13461TIP3    H161798   5.841   3.198  11.634 -0.3164  0.5341  0.7911
13461TIP3    H261799   5.931   3.266  11.533 -1.9838  2.7464  0.7125
13462TIP3   OH261800   5.126   1.805  15.223 -0.5327 -0.1395 -0.0756
13462TIP3    H161801   5.191   1.738  15.202  0.5037  1.0059 -0.6524
13462TIP3    H261802   5.094   1.833  15.137 -0.9350  0.1214  0.1644
13463TIP3   OH261803   1.851   1.762   2.026  0.9663  0.0051  0.1333
13463TIP3    H161804   1.909   1.715   2.086  3.1357  1.3371 -0.7685
13463TIP3    H261805   1.764   1.726   2.042  2.0083 -2.0008  1.6854
13464TIP3   OH261806   1.031   3.108  16.968 -0.4941  0.4329  0.4280
13464TIP3    H161807   0.969   3.108  17.041 -0.7498  2.3298  0.2821
13464TIP3    H261808   1.072   3.195  16.972  2.9002 -1.0435  1.0917
13465TIP3   OH261809   1.104   1.139   0.259  0.2606  0.1974  0.2498
13465TIP3    H161810   1.016   1.129   0.222  0.1287 -1.5111  0.9084
13465TIP3    H261811   1.089   1.165   0.350  0.3423 -1.2307  0.7094
13466TIP3   OH261812   2.242   6.250   2.884  0.1125  0.5286 -0.1761
13466TIP3    H161813   2.211   6.321   2.940  1.9809  1.9349 -0.8549
13466TIP3    H261814   2.171   6.237   2.821 -0.1110  2.0371 -0.2573
13467TIP3   OH261815   2.923   0.580   4.996 -0.2991 -0.1889 -0.1266
13467TIP3    H161816   2.841   0.628   5.010  0.0562  0.4271 -0.1476
13467TIP3    H261817   2.989   0.648   4.987  0.0378 -0.6577 -1.2597
13468TIP3   OH261818   0.124   0.956  13.742  0.3645 -0.5781  0.4296
13468TIP3    H161819   0.049   0.899  13.759  1.0653 -1.5881  0.2178
13468TIP3    H261820   0.126   0.966  13.647 -1.4379  2.1690  0.5801
13469TIP3   OH261821   2.413   1.276   3.643 -0.5784 -0.1365 -0.1683
13469TIP3    H161822   2.343   1.306   3.585  0.6259 -0.6477 -1.9829
13469TIP3    H261823   2.480   1.241   3.584  1.3398  0.5896  1.4483
13470TIP3   OH261824   2.461   4.704  16.851  0.0647 -0.6351 -0.1604
13470TIP3    H161825   2.455   4.795  16.880 -1.1127  0.0478 -2.3276
13470TIP3    H261826   2.389   4.661  16.897 -1.1837  0.2112 -1.2489
13471TIP3   OH261827   1.074   4.134  16.342  0.0919  0.9455  0.1214
13471TIP3    H161828   1.047   4.171  16.258  0.4741 -0.6986 -0.7627
13471TIP3    H261829   1.167   4.158  16.349  0.6345 -0.6843 -0.9715
13472TIP3   OH261830   0.397   5.451  16.168 -0.5108 -0.0338  0.1683
13472TIP3    H161831   0.455   5.508  16.219 -0.3891  0.0212 -0.0348
13472TIP3    H261832   0.408   5.480  16.078 -0.4190 -0.4067  0.0601
13473TIP3   OH261833   2.748   1.070  17.013  0.1791  0.2460 -0.3296
13473TIP3    H161834   2.812   1.141  17.006 -0.0713  0.6305  0.9246
13473TIP3    H261835   2.722   1.051  16.923 -1.4353  3.3148 -0.6401
13474TIP3   OH261836   0.997   4.967  17.287  0.3223 -0.1057 -0.4259
13474TIP3    H161837   0.970   5.021  17.212  1.2067  0.6873 -0.2013
13474TIP3    H261838   1.031   4.887  17.248  0.2117  0.0471 -0.8456
13475TIP3   OH261839   1.167   3.335  11.557 -0.0073  0.3208  0.6087
13475TIP3    H161840   1.127   3.381  11.630 -0.0667 -1.1853  1.5818
13475TIP3    H261841   1.209   3.403  11.505 -2.0003  1.6927  0.7136
13476TIP3   OH261842   0.844   0.530   4.515 -0.2871  0.4025 -0.2773
13476TIP3    H161843   0.875   0.491   4.433  0.5850 -0.1126  0.2736
13476TIP3    H261844   0.924   0.548   4.565 -0.8016  0.7267  0.4544
13477TIP3   OH261845   2.946   6.465  11.979  0.0421  0.1717 -0.0519
13477TIP3    H161846   2.985   6.414  12.050 -0.7286 -1.1370 -0.5524
13477TIP3    H261847   2.998   6.444  11.902 -0.6708 -0.3925 -0.3959
13478TIP3   OH261848   3.084   0.666   1.298  0.3778  0.1725 -0.5551
13478TIP3    H161849   3.083   0.748   1.247 -0.9387 -0.6098 -1.8524
13478TIP3    H261850   2.995   0.658   1.331  0.5553 -0.6479 -0.2773
13479TIP3   OH261851   1.229   0.975   1.607  0.5115 -0.3099 -0.0993
13479TIP3    H161852   1.173   0.951   1.681 -0.3707 -1.1902 -1.0184
13479TIP3    H261853   1.200   1.062   1.582  0.7858 -0.0246  0.5454
13480TIP3   OH261854   2.998   3.043  17.150 -0.2706 -0.2913 -0.3941
13480TIP3    H161855   3.081   3.010  17.113 -0.2848 -0.9631  0.1453
13480TIP3    H261856   3.010   3.138  17.154  1.7141 -0.5121  2.4580
13481TIP3   OH261857   5.127   4.071   2.436  0.1703  0.0488  0.2119
13481TIP3    H161858   5.174   3.997   2.398 -1.5543 -0.6891 -0.5606
13481TIP3    H261859   5.047   4.034   2.472  0.8764  0.9978  3.0629
13482TIP3   OH261860   3.546   1.982   3.499  0.6465  0.0452 -0.2751
13482TIP3    H161861   3.503   1.897   3.512  3.0808 -0.9218  2.9110
13482TIP3    H261862   3.478   2.039   3.464 -2.4117 -2.0525  1.7933
13483TIP3   OH261863   0.721   1.499   5.655  0.0224 -0.0694  0.2293
13483TIP3    H161864   0.652   1.452   5.700  0.3743 -0.5654  0.2637
13483TIP3    H261865   0.683   1.523   5.570  0.2145 -1.4665 -0.2701
13484TIP3   OH261866   4.261   2.058   3.830  0.1438 -0.1047 -0.5561
13484TIP3    H161867   4.305   2.102   3.903 -0.8810  0.8694 -0.4922
13484TIP3    H261868   4.252   1.967   3.858  1.2282 -0.1080 -0.1713
13485TIP3   OH261869   1.356   0.365  12.865  0.0096 -0.0884 -0.1446
13485TIP3    H161870   1.275   0.354  12.816 -0.5157 -0.4160  0.7563
13485TIP3    H261871   1.423   0.382  12.799 -0.5258 -1.2627 -1.0193
13486TIP3   OH261872   0.515   4.328   6.268  0.3503  0.2913 -0.1146
13486TIP3    H161873   0.475   4.367   6.346  0.4373  0.9710 -0.3980
13486TIP3    H261874   0.586   4.388   6.246 -1.0574  1.3754 -2.0253
13487TIP3   OH261875   5.128   4.579  14.103  0.0781 -0.1482 -0.4461
13487TIP3    H161876   5.079   4.606  14.024  1.5062 -0.3136 -1.4232
13487TIP3    H261877   5.219   4.573  14.074  0.7128  0.2269  1.3455
13488TIP3   OH261878   1.209   2.540   6.057  0.1409  0.7134  0.1237
13488TIP3    H161879   1.237   2.601   5.989 -0.9381  2.3121  1.0534
13488TIP3    H261880   1.290   2.508   6.095  0.7490  1.9959 -0.0347
13489TIP3   OH261881   4.063   1.037  15.794  0.1656  0.1278 -0.3679
13489TIP3    H161882   4.089   1.086  15.872  1.8784 -1.2617 -0.0091
13489TIP3    H261883   4.075   0.945  15.818 -0.8922 -0.4022 -1.7320
13490TIP3   OH261884   3.289   0.131   0.761 -0.8265 -0.1398 -0.1965
13490TIP3    H161885   3.256   0.042   0.767 -1.6341 -0.0095 -2.1197
13490TIP3    H261886   3.226   0.184   0.809 -0.4777 -0.5491  0.7350
13491TIP3   OH261887   5.785   4.727  12.152 -0.2347  0.0318  0.0079
13491TIP3    H161888   5.845   4.755  12.082  0.4444 -0.6074  0.3245
13491TIP3    H261889   5.843   4.693  12.221 -0.9453 -0.2322  0.4800
13492TIP3   OH261890   2.333   3.371   3.672 -0.4130 -0.5857  0.1079
13492TIP3    H161891   2.317   3.459   3.708 -0.7439 -0.3327 -0.6252
13492TIP3    H261892   2.352   3.387   3.579 -0.6217 -1.3055 -0.0613
13493TIP3   OH261893   0.849   0.243   5.298 -0.7574  0.0000 -0.0180
13493TIP3    H161894   0.852   0.290   5.382 -1.2020  0.5994 -0.3286
13493TIP3    H261895   0.759   0.252   5.269 -0.3119  0.9594 -1.2021
13494TIP3   OH261896   3.622   6.740  11.330 -0.1675 -0.3016 -0.2773
13494TIP3    H161897   3.532   6.723  11.355 -0.1092 -2.6462 -1.4073
13494TIP3    H261898   3.670   6.743  11.413 -1.0061 -0.9807  0.2472
13495TIP3   OH261899   3.627   1.519  14.569 -0.2941  0.1651 -0.2592
13495TIP3    H161900   3.537   1.552  14.575 -0.8240 -1.3625  0.7623
13495TIP3    H261901   3.680   1.587  14.612 -1.2270  0.2203  0.8623
13496TIP3   OH261902   4.755   1.687  16.814 -0.0190 -0.1641 -0.1405
13496TIP3    H161903   4.824   1.743  16.848 -0.5516  0.3366  0.1311
13496TIP3    H261904   4.673   1.727  16.844 -0.4705 -0.2307 -1.2099
13497TIP3   OH261905   2.132   2.214   2.575 -0.6923  0.2763 -0.0945
13497TIP3    H161906   2.129   2.193   2.668  1.3019  1.1530  0.2010
13497TIP3    H261907   2.137   2.129   2.531  2.0351 -0.1093  0.8137
13498TIP3   OH261908   0.081   2.919   3.476  0.1123 -0.0287 -0.1394
13498TIP3    H161909   0.134   2.994   3.448  0.6740 -1.1140 -2.2176
13498TIP3    H261910  -0.009   2.946   3.458 -0.0433  1.3637  2.2811
13499TIP3   OH261911   1.533   6.534   2.294 -0.0116  0.0473 -0.6494
13499TIP3    H161912   1.473   6.535   2.368 -1.5800 -3.9668 -1.6043
13499TIP3    H261913   1.480   6.558   2.218  0.7448  0.8842 -0.9300
13500TIP3   OH261914   0.090   0.958   6.725 -0.4007 -0.4395 -0.0833
13500TIP3    H161915   0.059   0.947   6.815 -0.6405 -0.2327 -0.1405
13500TIP3    H261916   0.155   0.889   6.714  0.9283  0.6035  0.8420
13501TIP3   OH261917   3.584   1.356   1.179 -0.2409 -0.5111  0.6046
13501TIP3    H161918   3.531   1.288   1.137 -2.2844  0.6414  1.1702
13501TIP3    H261919   3.572   1.341   1.273 -0.6947  0.5730  0.7356
13502TIP3   OH261920   4.451   5.179  15.053  0.7879  0.3377 -0.7544
13502TIP3    H161921   4.390   5.178  15.126  0.9415 -1.6722 -0.6005
13502TIP3    H261922   4.462   5.272  15.031  1.1234  1.0531  2.0890
13503TIP3   OH261923   6.541   4.822  13.528 -0.3076 -0.2759 -0.2292
13503TIP3    H161924   6.513   4.898  13.578  2.6509 -0.4101  1.8700
13503TIP3    H261925   6.482   4.751  13.556 -0.4925  0.3093  0.8937
13504TIP3   OH261926   5.006   6.563   4.513  0.0858  0.3550 -0.2824
13504TIP3    H161927   5.097   6.534   4.521 -0.1022  0.2234  5.4462
13504TIP3    H261928   4.954   6.483   4.517 -0.1850  0.5473  2.7841
13505TIP3   OH261929   4.339   2.177   5.351 -0.8178  0.4388 -0.2252
13505TIP3    H161930   4.275   2.156   5.419  0.8186  0.2266  1.3147
13505TIP3    H261931   4.414   2.213   5.399  0.7272 -0.4828 -1.8479
13506TIP3   OH261932   6.107   4.168  16.012 -0.1343 -0.2513  0.6761
13506TIP3    H161933   6.180   4.228  16.001 -0.2129 -0.3286 -0.3658
13506TIP3    H261934   6.146   4.089  16.050  0.5527 -0.6984 -0.8563
13507TIP3   OH261935   5.989   0.684   1.015 -0.1507  0.3215  0.8096
13507TIP3    H161936   5.895   0.668   1.027  0.0590 -3.6268 -1.3318
13507TIP3    H261937   5.993   0.751   0.947 -1.5685 -1.3398 -1.0401
13508TIP3   OH261938   3.626   0.146  13.296 -0.3134  0.0750 -0.1304
13508TIP3    H161939   3.544   0.116  13.336 -0.1195  1.2843  1.2422
13508TIP3    H261940   3.692   0.085  13.329 -0.7796 -1.8677 -2.4381
13509TIP3   OH261941   5.099   4.328   5.501 -0.1913 -0.1039  0.2285
13509TIP3    H161942   5.100   4.408   5.553  1.1246  0.9685 -1.3258
13509TIP3    H261943   5.169   4.274   5.539 -0.1567  0.0822  0.4317
13510TIP3   OH261944   2.403   5.808   3.185  0.5093 -0.1528 -1.0448
13510TIP3    H161945   2.377   5.898   3.205 -1.2289 -0.7932 -0.2314
13510TIP3    H261946   2.445   5.814   3.099  1.8077  1.6342 -0.3702
13511TIP3   OH261947   0.338   6.226   0.895  0.1059  0.0427 -0.8504
13511TIP3    H161948   0.290   6.157   0.850 -0.4470  0.6087 -1.1339
13511TIP3    H261949   0.322   6.305   0.844  1.1777  0.2872 -0.8378
13512TIP3   OH261950   6.283   1.236  12.629  0.0087 -0.1444  0.3427
13512TIP3    H161951   6.232   1.233  12.547  0.3977  1.2562  0.0265
13512TIP3    H261952   6.218   1.256  12.696 -0.0787  0.3100  0.1304
13513TIP3   OH261953   5.853   5.984   0.940 -0.4896 -0.2413  0.1871
13513TIP3    H161954   5.832   5.922   1.010  1.2182 -0.2509  0.7240
13513TIP3    H261955   5.948   5.985   0.936 -0.5315  0.3117 -1.6711
13514TIP3   OH261956   3.873   3.937  15.105 -0.4151 -0.1478  0.0143
13514TIP3    H161957   3.842   3.939  15.196  0.8832 -4.1428  0.7524
13514TIP3    H261958   3.914   4.022  15.092 -0.7084  0.6030  3.1627
13515TIP3   OH261959   4.681   4.826   3.967  0.2160 -0.2441  0.7202
13515TIP3    H161960   4.727   4.793   3.890 -1.4550 -1.6452  0.2427
13515TIP3    H261961   4.724   4.782   4.041  1.8265  1.1078  0.6384
13516TIP3   OH261962   3.546   0.798   0.152 -0.2185 -0.0907 -0.5165
13516TIP3    H161963   3.520   0.831   0.066 -0.2523  1.9347  0.2145
13516TIP3    H261964   3.633   0.761   0.137  0.5352  1.7804 -1.1487
13517TIP3   OH261965   5.034   4.781   2.229  0.2670  0.0591  0.2799
13517TIP3    H161966   4.948   4.780   2.269  0.7190  2.1050  1.4363
13517TIP3    H261967   5.018   4.800   2.137 -0.4795  1.1853  0.6333
13518TIP3   OH261968   5.118   4.612  13.300 -0.1108 -0.2472  0.1258
13518TIP3    H161969   5.158   4.568  13.375  0.2683  0.7805  0.5514
13518TIP3    H261970   5.189   4.619  13.236 -0.3323 -0.7905 -0.1791
13519TIP3   OH261971   5.630   1.954   2.768  0.4193  0.8302  0.1152
13519TIP3    H161972   5.565   2.008   2.813 -0.9284 -0.2369 -0.4636
13519TIP3    H261973   5.638   1.875   2.823  0.1562  0.3407 -0.5365
13520TIP3   OH261974   6.577   3.129   2.439 -0.3236  0.3065 -0.7771
13520TIP3    H161975   6.500   3.153   2.491  0.2156  1.6704 -0.5775
13520TIP3    H261976   6.566   3.176   2.357 -1.3568 -2.1164 -2.1607
13521TIP3   OH261977   3.064   1.433  17.132 -0.0937 -0.3969  0.6952
13521TIP3    H161978   3.029   1.501  17.191  1.0380  0.5372  0.3172
13521TIP3    H261979   3.103   1.368  17.190 -0.2685 -0.2134  1.0190
13522TIP3   OH261980   5.094   0.556  16.111  0.5792 -0.6496 -0.0776
13522TIP3    H161981   5.011   0.604  16.118  0.2879 -0.7134 -2.2157
13522TIP3    H261982   5.078   0.493  16.040  2.6824 -0.1444 -1.0673
13523TIP3   OH261983   3.807   2.997  11.449  0.5390  0.8373 -0.0359
13523TIP3    H161984   3.717   2.970  11.467  1.0199 -1.2260 -0.5459
13523TIP3    H261985   3.798   3.087  11.417 -1.3691  0.5838 -0.3604
13524TIP3   OH261986   1.198   1.034  15.212  0.1615  0.0918 -0.4969
13524TIP3    H161987   1.180   0.984  15.292  0.4018 -0.7663 -0.9690
13524TIP3    H261988   1.263   1.099  15.239 -0.7451  0.6887  0.3119
13525TIP3   OH261989   1.694   1.833  15.536  0.1577 -0.3039  0.4081
13525TIP3    H161990   1.738   1.899  15.482 -0.7385  0.5875  0.7263
13525TIP3    H261991   1.637   1.787  15.474  1.7593 -1.7123 -0.0774
13526TIP3   OH261992   3.616   2.270   6.548 -0.1126  0.1392  0.2610
13526TIP3    H161993   3.588   2.180   6.564 -1.2129  0.1690 -1.2218
13526TIP3    H261994   3.535   2.321   6.548  0.4441  1.0587  0.5653
13527TIP3   OH261995   4.153   4.203  12.833 -0.1228 -0.3033 -0.0138
13527TIP3    H161996   4.231   4.206  12.777  1.7378 -1.6497  2.2856
13527TIP3    H261997   4.142   4.110  12.853 -2.6488 -0.1858 -0.6086
13528TIP3   OH261998   2.225   5.904   3.438  0.2337 -0.2976  0.0225
13528TIP3    H161999   2.275   5.841   3.386  1.0088  0.5566 -0.3178
13528TIP3    H262000   2.266   5.989   3.417 -0.1499  0.1951  1.1885
13529TIP3   OH262001   1.253   6.454  13.464  0.0161  0.2694  0.3075
13529TIP3    H162002   1.199   6.377  13.446 -0.4092  0.6245  0.0576
13529TIP3    H262003   1.333   6.440  13.414 -0.6498  0.6673 -0.8976
13530TIP3   OH262004   2.354   0.001   2.898 -0.2480 -0.4547  0.0643
13530TIP3    H162005   2.280   0.059   2.879 -0.1889  0.0442  1.2147
13530TIP3    H262006   2.409   0.005   2.820 -0.3362  0.9294  0.0403
13531TIP3   OH262007   4.229   3.614   1.894  0.0682 -0.3609 -0.3559
13531TIP3    H162008   4.188   3.674   1.832 -0.3816 -0.4092 -0.1068
13531TIP3    H262009   4.252   3.668   1.969 -3.0322 -0.9592  1.1690
13532TIP3   OH262010   6.126   6.025  12.625 -0.8180  0.3609  0.0823
13532TIP3    H162011   6.031   6.037  12.614 -0.6214  0.1492 -2.1915
13532TIP3    H262012   6.136   6.005  12.718 -3.0311  0.1360  0.3374
13533TIP3   OH262013   2.856   1.558  17.274 -0.5659  0.5396  0.3519
13533TIP3    H162014   2.832   1.589  17.361  0.5006 -0.1938  0.9199
13533TIP3    H262015   2.821   1.469  17.269  1.3096 -0.2581  0.9054
13534TIP3   OH262016   4.362   3.160  12.149 -0.1130  0.1164  0.3516
13534TIP3    H162017   4.414   3.173  12.229  2.2677 -2.3775 -0.6289
13534TIP3    H262018   4.415   3.201  12.080 -0.9642  0.1752 -0.2748
13535TIP3   OH262019   4.922   3.960   0.284 -0.1615  0.3031  0.0489
13535TIP3    H162020   4.892   4.032   0.227 -1.0990 -0.2798 -0.2106
13535TIP3    H262021   4.991   3.917   0.234  0.8479  1.3800  0.4606
13536TIP3   OH262022   5.616   0.710   2.139 -0.5524  0.3428  0.2492
13536TIP3    H162023   5.570   0.663   2.069  1.0936 -0.4964 -0.3051
13536TIP3    H262024   5.620   0.648   2.212  2.0586 -0.6591 -0.6524
13537TIP3   OH262025   2.649   5.748   0.347 -0.2554  0.8538 -0.1606
13537TIP3    H162026   2.613   5.826   0.389 -1.4892 -0.0876  0.6096
13537TIP3    H262027   2.604   5.675   0.390  0.5636 -0.2659 -1.1457
13538TIP3   OH262028   4.683   4.736   5.610  0.0452 -0.6772  0.0300
13538TIP3    H162029   4.705   4.805   5.548  0.1113 -0.3273  0.4415
13538TIP3    H262030   4.714   4.768   5.695 -0.7626 -0.8014  0.3830
13539TIP3   OH262031   1.070   1.731  13.752 -0.2504  0.0024  0.5095
13539TIP3    H162032   1.052   1.726  13.846  0.1160  0.5781  0.6138
13539TIP3    H262033   1.023   1.809  13.723  0.7760  0.6293  0.4863
13540TIP3   OH262034   3.830   1.134  13.757 -0.1243 -0.1088 -0.3827
13540TIP3    H162035   3.801   1.092  13.838  1.3486  0.3678  0.4324
13540TIP3    H262036   3.768   1.207  13.745 -0.6648 -0.4935  0.0249
13541TIP3   OH262037   3.655   4.465   2.724 -0.0982 -0.0408 -0.4013
13541TIP3    H162038   3.718   4.396   2.702 -1.1188 -0.8687 -0.8175
13541TIP3    H262039   3.586   4.456   2.658  0.7350  2.7759 -1.7892
13542TIP3   OH262040   4.433   3.746   1.525 -0.3527 -0.4128 -0.3941
13542TIP3    H162041   4.352   3.746   1.577 -0.1647 -0.3146 -0.0992
13542TIP3    H262042   4.434   3.833   1.484  0.1543  0.0084  0.4773
13543TIP3   OH262043   1.671   3.678  14.634 -0.7955  0.0457  0.3633
13543TIP3    H162044   1.738   3.665  14.701  0.0069  1.6896 -0.0798
13543TIP3    H262045   1.611   3.742  14.673 -1.4606 -0.5158  0.2848
13544TIP3   OH262046   3.550   1.949   3.815  0.3794 -0.0186 -0.1323
13544TIP3    H162047   3.465   1.966   3.773 -0.3335  3.1692  2.2503
13544TIP3    H262048   3.609   2.013   3.775  0.5708  0.6110  1.1204
13545TIP3   OH262049   3.548   5.414   0.149 -0.3618  0.6523 -0.1357
13545TIP3    H162050   3.617   5.474   0.120 -0.1572  0.1091 -0.8186
13545TIP3    H262051   3.478   5.424   0.085 -0.7971  0.9827  0.3887
13546TIP3   OH262052   5.807   0.218   4.651 -0.6619  0.7426 -0.5346
13546TIP3    H162053   5.888   0.198   4.698 -1.7043 -0.3057  0.9222
13546TIP3    H262054   5.816   0.310   4.627  1.7323  0.1996 -2.0823
13547TIP3   OH262055   2.430   5.400  16.111  0.4300 -0.3529 -0.4271
13547TIP3    H162056   2.440   5.481  16.061 -1.6821 -0.5477 -1.2711
13547TIP3    H262057   2.380   5.427  16.189 -0.0938 -0.7750 -0.6059
13548TIP3   OH262058   6.713   3.893  16.566  0.0638 -0.6123 -0.8000
13548TIP3    H162059   6.749   3.938  16.643 -0.9221 -0.6292 -0.3186
13548TIP3    H262060   6.726   3.954  16.494 -0.7594  0.2253 -0.2585
13549TIP3   OH262061   3.071   1.284  12.702  0.5267 -0.4452 -0.5673
13549TIP3    H162062   3.133   1.223  12.742  1.0293  0.5715  0.2360
13549TIP3    H262063   2.997   1.286  12.761  0.7229  0.0928 -0.3374
13550TIP3   OH262064   4.412   1.022   6.549  0.4725 -0.3784 -0.6715
13550TIP3    H162065   4.507   1.027   6.539  0.3820  1.9332 -0.9968
13550TIP3    H262066   4.394   1.075   6.627 -0.5511 -0.7196 -0.6671
13551TIP3   OH262067   1.318   0.809  12.020 -0.4525 -0.1855  0.3517
13551TIP3    H162068   1.267   0.744  12.069  0.5454 -0.4202  1.0967
13551TIP3    H262069   1.374   0.850  12.085 -0.8559  1.2444 -0.1642
13552TIP3   OH262070   0.483   1.242  11.108  0.2619 -0.3867  0.0705
13552TIP3    H162071   0.445   1.320  11.069 -0.3067 -0.0679  1.2225
13552TIP3    H262072   0.408   1.193  11.142  0.6023 -1.4925 -0.7168
13553TIP3   OH262073   1.087   5.154  13.711 -0.1816 -0.1090  0.3436
13553TIP3    H162074   1.100   5.148  13.616 -0.3820 -0.6044  0.3412
13553TIP3    H262075   1.035   5.076  13.733  2.3015 -1.6196  1.2760
13554TIP3   OH262076   3.724   3.165  13.225 -0.1253  0.1966  0.0190
13554TIP3    H162077   3.719   3.225  13.151  1.5507  0.1211 -0.1721
13554TIP3    H262078   3.810   3.179  13.263  0.5111 -2.3810 -0.2933
13555TIP3   OH262079   4.805   1.014   1.671 -0.5413 -0.2075 -0.2978
13555TIP3    H162080   4.724   0.964   1.680 -1.2047  0.5396 -1.7876
13555TIP3    H262081   4.799   1.054   1.585  0.6993  1.1622  0.2133
13556TIP3   OH262082   6.383   6.193   5.725  0.0046  0.4339 -0.1202
13556TIP3    H162083   6.409   6.222   5.813  0.6760  2.3371 -0.8881
13556TIP3    H262084   6.297   6.153   5.738  1.0078 -1.3184  1.7038
13557TIP3   OH262085   6.626   1.154   0.557 -0.2980  0.1241 -0.0530
13557TIP3    H162086   6.685   1.228   0.541 -1.1750  0.4669 -2.1123
13557TIP3    H262087   6.543   1.196   0.582 -0.4618 -0.2197 -0.0244
13558TIP3   OH262088   4.318   3.965   0.522 -0.4989  0.6300  0.5648
13558TIP3    H162089   4.407   3.966   0.557 -0.1954  1.4276 -0.1914
13558TIP3    H262090   4.267   4.018   0.583 -0.6316 -0.4067  1.3902
13559TIP3   OH262091   5.761   1.920   5.398  0.4751 -0.0624 -0.3100
13559TIP3    H162092   5.699   1.906   5.327  0.2680 -2.0272  0.2182
13559TIP3    H262093   5.847   1.915   5.356  0.3414  1.5408 -0.8479
13560TIP3   OH262094   2.212   1.716   1.650  0.2831 -0.0043  0.6980
13560TIP3    H162095   2.180   1.717   1.559 -0.7339 -0.6602  1.0418
13560TIP3    H262096   2.133   1.721   1.703  0.9567  3.2240  1.5904
13561TIP3   OH262097   4.501   6.231  13.242 -0.2522 -0.8963 -0.6350
13561TIP3    H162098   4.460   6.264  13.162  0.9469 -0.3503 -1.0432
13561TIP3    H262099   4.428   6.220  13.303 -1.1213 -0.8306 -1.6319
13562TIP3   OH262100   1.635   5.682  16.461  0.0928  0.2039  0.1592
13562TIP3    H162101   1.629   5.621  16.387  0.8165  2.0216 -1.5014
13562TIP3    H262102   1.728   5.703  16.466 -0.2729  2.0368 -0.1042
13563TIP3   OH262103   0.286   4.629  11.606  0.0528  0.1285  0.3453
13563TIP3    H162104   0.225   4.609  11.677  1.4978  0.4736  1.7466
13563TIP3    H262105   0.298   4.724  11.611  0.8293  0.0444  0.2112
13564TIP3   OH262106   2.336   6.521   2.302  0.4037 -0.0182  0.3923
13564TIP3    H162107   2.263   6.517   2.241 -0.6658 -0.8929  1.6630
13564TIP3    H262108   2.322   6.602   2.351  0.7436  0.2173  0.1056
13565TIP3   OH262109   4.084   1.168   2.219  0.9499 -0.5584 -0.1468
13565TIP3    H162110   4.013   1.224   2.249  1.5733  0.1553  0.0199
13565TIP3    H262111   4.042   1.085   2.199  0.1074 -0.2184  0.1730
13566TIP3   OH262112   0.553   1.932  16.659 -0.3187 -0.1859  0.7966
13566TIP3    H162113   0.534   2.026  16.659  0.4810  0.0131  2.8376
13566TIP3    H262114   0.535   1.904  16.569 -0.1022  2.0133  0.0201
13567TIP3   OH262115   5.117   1.870  16.382  0.1436 -0.5571 -0.3669
13567TIP3    H162116   5.162   1.874  16.298  0.0790 -0.3031 -0.3907
13567TIP3    H262117   5.114   1.961  16.412 -0.7404 -0.5151 -0.5728
13568TIP3   OH262118   2.067   6.048  13.712  0.0477 -0.3321 -0.3118
13568TIP3    H162119   2.027   6.052  13.799  1.2939  1.8930  0.2319
13568TIP3    H262120   2.059   6.137  13.678  1.1194 -0.7613 -1.7752
13569TIP3   OH262121   5.710   6.735  17.051 -0.1307 -0.2270 -0.0440
13569TIP3    H162122   5.778   6.799  17.071 -0.2992 -0.1672  0.3509
13569TIP3    H262123   5.726   6.663  17.112 -1.0846  0.2724  0.8331
13570TIP3   OH262124   1.267   2.498  11.660  0.0692  0.1009  0.0662
13570TIP3    H162125   1.287   2.424  11.716  0.3955  0.7188  0.7894
13570TIP3    H262126   1.284   2.467  11.571 -1.2372 -1.1485  0.2178
13571TIP3   OH262127   0.033   6.538  12.820 -0.1676  0.0414  0.3603
13571TIP3    H162128   0.012   6.605  12.756 -0.0467  0.1585  0.4426
13571TIP3    H262129   0.125   6.518  12.805 -0.6407 -1.4122 -0.8753
13572TIP3   OH262130   4.414   3.042   0.077  0.0802  0.0048 -0.6798
13572TIP3    H162131   4.503   3.060   0.106 -0.0579  2.0042 -1.3775
13572TIP3    H262132   4.364   3.031   0.159  0.6934  0.2037 -0.2732
13573TIP3   OH262133   5.344   3.442  16.097 -0.3109  0.1786 -0.7246
13573TIP3    H162134   5.300   3.381  16.157 -0.7344  0.2903 -0.9204
13573TIP3    H262135   5.370   3.388  16.023 -0.2099  0.1313 -0.6542
13574TIP3   OH262136   5.275   4.302   0.597  0.3445 -0.2231 -0.0989
13574TIP3    H162137   5.289   4.393   0.573 -0.3135 -0.2343 -0.5272
13574TIP3    H262138   5.269   4.255   0.514 -0.9897 -0.4047  0.0881
13575TIP3   OH262139   1.532   6.426  16.086  0.3677 -0.4999 -0.6115
13575TIP3    H162140   1.619   6.466  16.077 -0.3724  1.0648 -1.0924
13575TIP3    H262141   1.497   6.425  15.997 -2.0700  3.6176  0.0447
13576TIP3   OH262142   3.094   2.260   0.432 -0.6810 -0.4269 -0.9012
13576TIP3    H162143   3.132   2.346   0.416 -0.8076 -0.0530  0.6246
13576TIP3    H262144   3.164   2.198   0.410  0.0087  0.1444 -0.3552
13577TIP3   OH262145   1.552   4.622  11.165 -0.2860 -0.1425  0.2989
13577TIP3    H162146   1.561   4.703  11.114  1.2850  0.0176  0.7585
13577TIP3    H262147   1.546   4.553  11.100  0.0573  0.2094 -0.1176
13578TIP3   OH262148   2.602   3.076  14.552  0.6139 -0.3746  0.6508
13578TIP3    H162149   2.573   3.030  14.473  1.6040 -0.1114  0.1272
13578TIP3    H262150   2.620   3.006  14.615 -0.2419 -0.5829  0.6792
13579TIP3   OH262151   5.621   5.100  10.711  0.3854  0.4076 -0.1362
13579TIP3    H162152   5.592   5.190  10.723  0.2866  0.2534  0.9116
13579TIP3    H262153   5.569   5.067  10.638 -1.5985  0.3595  1.2266
13580TIP3   OH262154   4.374   0.983   1.001  0.1129  0.2223 -0.0212
13580TIP3    H162155   4.433   1.054   1.024  2.1015 -1.5083  0.5514
13580TIP3    H262156   4.430   0.906   0.996 -2.1101 -1.5676  0.7083
13581TIP3   OH262157   0.882   1.320  16.547  0.1160 -0.6276 -0.1068
13581TIP3    H162158   0.860   1.229  16.528  1.8070 -0.9954 -0.4794
13581TIP3    H262159   0.803   1.370  16.525 -1.0650 -2.0635  0.7575
13582TIP3   OH262160   1.322   4.648  13.102 -0.1684 -0.0906 -0.2463
13582TIP3    H162161   1.405   4.681  13.137 -0.4762  0.1976  0.2301
13582TIP3    H262162   1.339   4.634  13.009  0.7502 -1.1183  0.0447
13583TIP3   OH262163   1.947   2.586  12.159  0.2345 -0.2062 -0.2302
13583TIP3    H162164   1.891   2.525  12.111 -0.7060  0.4152  0.0519
13583TIP3    H262165   2.000   2.627  12.091 -0.9079  0.4856 -0.7316
13584TIP3   OH262166   2.790   6.155   5.648  0.2196  0.0636  0.2755
13584TIP3    H162167   2.863   6.168   5.587 -0.3992 -1.7367 -0.9336
13584TIP3    H262168   2.809   6.070   5.689 -0.2221  0.4967  1.4014
13585TIP3   OH262169   5.952   2.742   0.601  0.2616 -0.0997  1.2205
13585TIP3    H162170   5.897   2.664   0.613  0.8054 -0.4779  1.3079
13585TIP3    H262171   6.026   2.728   0.660  1.4920 -0.5850 -0.3738
13586TIP3   OH262172   2.721   3.894   3.775 -0.4227 -0.6360 -0.3656
13586TIP3    H162173   2.728   3.807   3.736 -0.7809 -0.7507 -0.1824
13586TIP3    H262174   2.697   3.951   3.702  2.9439 -0.0923 -1.1683
13587TIP3   OH262175   5.951   3.874  15.224  0.5655  0.3206  0.0466
13587TIP3    H162176   5.895   3.812  15.177  0.5533  0.8009 -0.5926
13587TIP3    H262177   5.934   3.958  15.182 -0.3979  1.0261  1.7127
13588TIP3   OH262178   3.610   2.520  16.878 -0.7173 -0.4289  0.3335
13588TIP3    H162179   3.692   2.507  16.831 -0.1289 -0.5116  1.3704
13588TIP3    H262180   3.567   2.592  16.831  0.3706  0.2327  0.3249
13589TIP3   OH262181   1.815   1.913   3.671  0.0280 -0.3580  0.0334
13589TIP3    H162182   1.793   1.930   3.763 -2.1711  1.2731 -0.7008
13589TIP3    H262183   1.873   1.986   3.647 -1.2441  0.5360 -0.4316
13590TIP3   OH262184   1.802   0.075  15.574 -0.4466 -0.1808  0.3116
13590TIP3    H162185   1.833   0.031  15.495  0.1648  1.6424 -0.5059
13590TIP3    H262186   1.708   0.057  15.577 -1.1821  2.3410 -2.6952
13591TIP3   OH262187   6.074   2.132   2.181  0.5951 -0.4988 -0.5977
13591TIP3    H162188   5.989   2.094   2.205  0.0320  0.5337 -0.8789
13591TIP3    H262189   6.064   2.155   2.089  1.3543 -0.8093 -0.7595
13592TIP3   OH262190   0.248   2.972   6.125 -0.6903 -0.5220  0.2094
13592TIP3    H162191   0.220   2.897   6.176 -0.1354  0.2508  1.7241
13592TIP3    H262192   0.214   3.048   6.172 -0.6415  0.2173 -0.8916
13593TIP3   OH262193   4.782   6.100   2.237  0.1075 -0.0452 -0.1447
13593TIP3    H162194   4.713   6.080   2.173  0.2175  0.3881 -0.3981
13593TIP3    H262195   4.740   6.088   2.322 -0.4389  0.7423 -0.2931
13594TIP3   OH262196   0.214   4.249  14.209 -0.6581  0.6960  0.1191
13594TIP3    H162197   0.235   4.245  14.115  0.7683 -1.7350  0.4513
13594TIP3    H262198   0.242   4.336  14.236  1.4560  0.5156 -1.2273
13595TIP3   OH262199   0.321   5.064  16.955  0.0444 -0.3246 -0.3525
13595TIP3    H162200   0.378   4.993  16.924 -0.8932 -1.7081  0.9547
13595TIP3    H262201   0.277   5.027  17.031 -2.1058  0.9372 -0.9187
13596TIP3   OH262202   1.362   3.931  12.875  0.0415  0.2857 -0.2662
13596TIP3    H162203   1.381   3.848  12.831 -1.7105 -0.7247  0.7553
13596TIP3    H262204   1.267   3.942  12.864  0.0421  1.4747  0.7523
13597TIP3   OH262205   0.289   4.423  13.101 -0.3860 -0.2094 -0.0383
13597TIP3    H162206   0.213   4.408  13.157  0.2229 -0.6942  0.6684
13597TIP3    H262207   0.273   4.509  13.062 -0.4920  0.4417  1.3968
13598TIP3   OH262208   6.347   3.157   5.626 -0.2093  0.1168 -0.2722
13598TIP3    H162209   6.310   3.079   5.667 -0.8764  0.8902  0.6370
13598TIP3    H262210   6.322   3.229   5.684  1.4336  0.8691 -0.4496
13599TIP3   OH262211   3.906   0.269   0.226 -0.2257  0.8459 -0.7404
13599TIP3    H162212   3.878   0.239   0.140 -1.2014  0.8043 -0.4244
13599TIP3    H262213   3.834   0.326   0.255 -0.2412  0.2931  0.3409
13600TIP3   OH262214   4.056   5.679  16.426  0.3678  0.0039 -0.1099
13600TIP3    H162215   4.100   5.740  16.367 -0.1276  0.0885 -0.3982
13600TIP3    H262216   3.967   5.713  16.433  0.3214 -0.2144  0.3936
13601TIP3   OH262217   4.046   3.089   0.176 -0.4921  0.3945  0.8892
13601TIP3    H162218   4.087   3.149   0.238 -0.9517  0.3496  1.2354
13601TIP3    H262219   3.982   3.040   0.227 -1.1031  0.5791  0.3185
13602TIP3   OH262220   4.928   1.139   5.194 -0.0888  0.2698 -0.0108
13602TIP3    H162221   4.848   1.163   5.147  0.2835  0.2925 -0.6515
13602TIP3    H262222   4.937   1.205   5.263  0.5237  1.5933 -1.2765
13603TIP3   OH262223   5.527   5.460   3.971  0.6892  0.1920  0.3507
13603TIP3    H162224   5.593   5.417   3.917  1.5130 -0.0868  1.5416
13603TIP3    H262225   5.471   5.507   3.908 -0.6731 -3.0530 -1.1111
13604TIP3   OH262226   6.272   2.295   2.006 -0.3912  0.2066  0.3842
13604TIP3    H162227   6.345   2.354   1.989 -0.5048  0.3821  0.5154
13604TIP3    H262228   6.272   2.284   2.101 -0.0335 -0.4305  0.3200
13605TIP3   OH262229   1.558   2.217  16.785  0.2419 -0.4230  0.2540
13605TIP3    H162230   1.496   2.151  16.816  0.2805 -1.0464 -0.9572
13605TIP3    H262231   1.561   2.205  16.690  4.0724 -2.1016  0.4132
13606TIP3   OH262232   0.233   3.227  11.063 -0.1578  0.0555  0.1722
13606TIP3    H162233   0.176   3.299  11.090  0.6933  1.0657 -0.6167
13606TIP3    H262234   0.302   3.269  11.011  0.7313 -1.2478  0.2306
13607TIP3   OH262235   2.081   6.071  11.416 -0.1763 -0.5587 -0.0370
13607TIP3    H162236   2.144   6.092  11.347 -1.7419  2.0231 -0.7992
13607TIP3    H262237   2.006   6.033  11.370 -0.5036 -0.5201  0.4581
13608TIP3   OH262238   1.245   1.784  14.752 -0.0868 -0.5613  0.0108
13608TIP3    H162239   1.199   1.819  14.676  0.0409 -0.1565  0.1176
13608TIP3    H262240   1.178   1.737  14.801 -0.3922 -0.0003  0.1475
13609TIP3   OH262241   5.185   0.261  14.326  0.2653  0.5009 -0.1281
13609TIP3    H162242   5.236   0.251  14.406  0.1655 -0.8690 -0.2107
13609TIP3    H262243   5.161   0.171  14.301 -0.3314  0.9555 -1.2835
13610TIP3   OH262244   2.257   3.938  15.329  0.2647  0.0089 -0.0733
13610TIP3    H162245   2.204   3.914  15.405 -1.4257  1.5097 -0.7137
13610TIP3    H262246   2.305   3.858  15.307 -0.1423 -0.8007  1.7972
13611TIP3   OH262247   5.499   5.695   5.805 -0.1050 -0.1293  0.0727
13611TIP3    H162248   5.535   5.676   5.718  2.3219 -2.0907  1.3831
13611TIP3    H262249   5.406   5.677   5.796  0.1725 -0.8726 -1.9828
13612TIP3   OH262250   1.050   0.778  12.816  0.5239  0.6001  0.0161
13612TIP3    H162251   1.124   0.719  12.800  1.2812  1.1199  1.3690
13612TIP3    H262252   1.091   0.859  12.846 -0.5978  0.9769  0.5743
13613TIP3   OH262253   0.162   5.650  15.950 -0.3642 -0.7938 -0.4135
13613TIP3    H162254   0.200   5.735  15.972 -1.4638 -1.0141  2.7019
13613TIP3    H262255   0.238   5.591  15.943  0.2862  0.0943 -1.1531
13614TIP3   OH262256   5.677   0.010   0.504  0.2977 -0.3295 -0.4248
13614TIP3    H162257   5.750   0.062   0.539 -0.1487 -0.1208  0.2220
13614TIP3    H262258   5.600   0.065   0.518 -0.3429 -1.5603  1.2476
13615TIP3   OH262259   2.321   1.150   2.015  0.8806 -0.4751 -0.0140
13615TIP3    H162260   2.317   1.235   2.058 -1.6000 -0.6878  0.3142
13615TIP3    H262261   2.357   1.091   2.082 -2.0331 -0.6101  1.6070
13616TIP3   OH262262   0.098   2.352   4.073  0.0290 -0.0543 -0.3001
13616TIP3    H162263   0.037   2.310   4.135  0.4309  2.1370  1.7054
13616TIP3    H262264   0.064   2.441   4.063  0.7934  0.0712 -2.2095
13617TIP3   OH262265   0.617   6.189  15.952 -0.0574  0.1646 -0.5248
13617TIP3    H162266   0.655   6.214  15.868 -0.0607 -1.6946 -1.1133
13617TIP3    H262267   0.673   6.118  15.984  0.7030  1.6559  1.6868
13618TIP3   OH262268   4.492   2.080   0.013  0.0793  0.1789  0.4278
13618TIP3    H162269   4.479   2.059  -0.080 -0.3931  2.2270 -0.0142
13618TIP3    H262270   4.504   2.175   0.015 -2.5604  0.6057  2.7036
13619TIP3   OH262271   1.750   4.946  16.643 -0.2372 -0.1451 -0.2550
13619TIP3    H162272   1.698   4.996  16.706  0.8359  0.7071 -0.0192
13619TIP3    H262273   1.838   4.944  16.682  0.3290 -0.0216 -1.5011
13620TIP3   OH262274   5.850   2.006  10.709  0.4119  0.4554  0.1978
13620TIP3    H162275   5.793   1.964  10.644 -0.1366 -1.2582  1.6925
13620TIP3    H262276   5.920   1.943  10.725  0.7882  1.0350  0.9335
13621TIP3   OH262277   2.259   1.780  15.166  0.4020 -0.2760  0.1500
13621TIP3    H162278   2.262   1.724  15.088 -0.7096 -1.1462  0.6816
13621TIP3    H262279   2.350   1.789  15.193  0.9083  0.8045 -1.7477
13622TIP3   OH262280   6.395   2.011   0.905 -0.3212 -0.5778 -0.2293
13622TIP3    H162281   6.401   2.092   0.956  1.0453 -0.4706 -0.5231
13622TIP3    H262282   6.417   1.942   0.967  1.7654 -0.4113 -0.7124
13623TIP3   OH262283   3.282   1.105   4.479  0.2332  0.7255 -0.0570
13623TIP3    H162284   3.198   1.138   4.513 -0.7710 -0.0065 -1.6916
13623TIP3    H262285   3.317   1.053   4.551 -1.2304  0.1836  0.3074
13624TIP3   OH262286   6.302   0.843   0.023  0.5011  0.6480 -0.3969
13624TIP3    H162287   6.321   0.858  -0.069 -1.5227  0.5550 -0.8757
13624TIP3    H262288   6.281   0.750   0.028 -1.2645  1.0346 -0.2245
13625TIP3   OH262289   6.154   3.772  13.694  0.5837  0.2017  0.0190
13625TIP3    H162290   6.083   3.715  13.723  0.8301  0.7584  1.8332
13625TIP3    H262291   6.220   3.711  13.659  1.2524 -0.8274  2.7804
13626TIP3   OH262292   0.290   2.641  16.850 -0.3300 -0.6536 -0.1604
13626TIP3    H162293   0.208   2.591  16.851 -0.3377 -0.6413  0.6753
13626TIP3    H262294   0.338   2.607  16.774 -0.4532 -1.7511  0.2310
13627TIP3   OH262295   1.930   2.378  15.714 -0.0818  0.0291 -0.0595
13627TIP3    H162296   1.836   2.363  15.707  0.0385 -0.1303 -1.5019
13627TIP3    H262297   1.970   2.303  15.671  0.7154  0.1142  0.5051
13628TIP3   OH262298   6.674   5.961  14.266  0.1346 -0.6953  0.3231
13628TIP3    H162299   6.639   6.025  14.203  0.6682  1.9358  2.4915
13628TIP3    H262300   6.765   5.951  14.241  0.0993 -0.4396  0.0736
13629TIP3   OH262301   6.305   1.252  14.600  0.2382  0.4193  0.0511
13629TIP3    H162302   6.259   1.278  14.520  0.4534 -0.3414 -0.3282
13629TIP3    H262303   6.390   1.219  14.570 -0.7051 -2.5367  0.2491
13630TIP3   OH262304   4.190   0.210   1.255 -0.2874  0.2191  0.1903
13630TIP3    H162305   4.266   0.229   1.311 -0.7597 -1.2360  1.3796
13630TIP3    H262306   4.228   0.194   1.168  0.5634  1.4151  0.3176
13631TIP3   OH262307   6.645   4.369   3.944  0.0401 -0.3344  0.0216
13631TIP3    H162308   6.617   4.443   3.997 -1.0580  0.5562 -1.7097
13631TIP3    H262309   6.731   4.395   3.911 -0.2668  0.1015 -0.4421
13632TIP3   OH262310   2.399   4.885  14.969 -0.1440  0.8806  0.5653
13632TIP3    H162311   2.370   4.821  14.904 -0.1690  1.5825 -0.1438
13632TIP3    H262312   2.492   4.866  14.981 -0.2831  0.3368  0.8177
13633TIP3   OH262313   4.474   2.087   4.811  0.0756  0.3437 -0.4528
13633TIP3    H162314   4.536   2.060   4.879 -0.8023 -2.8985 -0.8013
13633TIP3    H262315   4.408   2.138   4.858  0.8668  0.4183  0.6223
13634TIP3   OH262316   2.486   2.164  14.228  0.2043 -0.0936  0.2057
13634TIP3    H162317   2.390   2.168  14.236  0.3003  0.6313  1.0570
13634TIP3    H262318   2.511   2.250  14.195  0.6198 -0.0395  0.6526
13635TIP3   OH262319   2.256   2.373   5.629  0.6469 -0.1333 -0.4846
13635TIP3    H162320   2.223   2.387   5.718  0.2670 -2.1091 -0.2851
13635TIP3    H262321   2.351   2.373   5.639  0.6064 -0.4966 -0.0374
13636TIP3   OH262322   3.153   2.056  11.711 -0.3989  0.1261 -0.0689
13636TIP3    H162323   3.244   2.027  11.705 -0.4975 -0.5229  1.1457
13636TIP3    H262324   3.134   2.096  11.626  1.3471  1.2648  0.0420
13637TIP3   OH262325   4.612   5.413   1.296 -0.4186 -0.0523 -0.0061
13637TIP3    H162326   4.675   5.362   1.347  1.3414  0.1078 -1.8827
13637TIP3    H262327   4.545   5.350   1.269 -0.5223 -0.4521  1.1610
13638TIP3   OH262328   2.316   4.503  16.073 -0.1410 -0.2183 -0.0322
13638TIP3    H162329   2.308   4.489  15.979  1.7676 -1.5308 -0.0666
13638TIP3    H262330   2.259   4.437  16.113  0.5292 -0.9832 -0.2980
13639TIP3   OH262331   4.791   0.579  11.324 -0.2171  0.2516 -0.0901
13639TIP3    H162332   4.842   0.648  11.365  0.7454 -1.1875  1.2557
13639TIP3    H262333   4.767   0.615  11.238  0.6048  2.0608  0.3817
13640TIP3   OH262334   4.877   3.103  15.314  0.0384  0.0550 -0.6264
13640TIP3    H162335   4.876   3.085  15.408 -1.3643  2.6884 -0.0446
13640TIP3    H262336   4.969   3.104  15.290  0.4894  0.5049  0.9997
13641TIP3   OH262337   0.926   6.289  11.147  0.2743 -0.3850 -0.2345
13641TIP3    H162338   0.857   6.299  11.082  0.8685 -0.2904 -0.8516
13641TIP3    H262339   0.982   6.219  11.113  0.9148  0.0647 -0.1168
13642TIP3   OH262340   2.793   4.249   1.560  0.1952 -0.1504 -0.2476
13642TIP3    H162341   2.722   4.226   1.500 -0.8880  0.6205  0.7052
13642TIP3    H262342   2.855   4.176   1.552  0.2209  0.0336 -2.4502
13643TIP3   OH262343   6.427   3.493   5.296 -0.0929  0.0431  0.3714
13643TIP3    H162344   6.389   3.408   5.316  1.2138 -0.6837 -0.1394
13643TIP3    H262345   6.505   3.498   5.352 -0.2555  0.9950  0.5349
13644TIP3   OH262346   4.121   5.823  16.724  0.6974  0.5560 -0.2197
13644TIP3    H162347   4.198   5.877  16.742 -0.1772  0.9772  2.8712
13644TIP3    H262348   4.118   5.760  16.795 -1.7452  0.4883 -0.2974
13645TIP3   OH262349   5.777   5.499  12.971  0.0032  0.2194 -0.0569
13645TIP3    H162350   5.683   5.498  12.954 -0.0241 -0.3668  0.0821
13645TIP3    H262351   5.784   5.513  13.066 -0.0117 -1.3187  0.2036
13646TIP3   OH262352   2.130   6.421  16.389  0.4068 -0.2937  0.2953
13646TIP3    H162353   2.144   6.327  16.384  1.2480 -0.1519 -0.1887
13646TIP3    H262354   2.127   6.441  16.482 -0.5006 -0.8912  0.4072
13647TIP3   OH262355   4.466   4.767   4.758 -0.2245  0.4434  0.0971
13647TIP3    H162356   4.376   4.735   4.762  0.1481 -0.8365 -1.3372
13647TIP3    H262357   4.462   4.843   4.700 -0.9258  2.6171  2.7339
13648TIP3   OH262358   1.067   2.951  16.552 -0.0553 -0.1999  0.6643
13648TIP3    H162359   1.057   2.940  16.458  0.8051 -1.4637  0.6954
13648TIP3    H262360   1.044   2.866  16.589 -1.2468  0.5323  1.6911
13649TIP3   OH262361   6.586   5.443  13.704  0.3268 -1.0015 -0.1649
13649TIP3    H162362   6.608   5.460  13.796  0.9448 -0.7298 -0.3520
13649TIP3    H262363   6.624   5.357  13.685 -2.9065 -2.7868  0.8126
13650TIP3   OH262364   3.930   6.268   2.345  0.5525  0.7799 -0.1263
13650TIP3    H162365   3.925   6.230   2.432 -0.0315  0.9226 -0.0911
13650TIP3    H262366   3.859   6.227   2.296  1.5540 -0.1152 -0.8711
13651TIP3   OH262367   2.305   3.841  11.535  0.3336  0.0164 -0.1527
13651TIP3    H162368   2.220   3.815  11.570  1.3846 -1.1697  1.7400
13651TIP3    H262369   2.318   3.930  11.567  0.6268 -0.5268  1.3432
13652TIP3   OH262370   3.934   0.972  14.721 -0.3320  0.1959 -0.1410
13652TIP3    H162371   3.838   0.975  14.712 -0.2182 -0.1280 -1.7742
13652TIP3    H262372   3.951   0.894  14.774 -0.9296 -0.4446 -0.8657
13653TIP3   OH262373   5.975   3.967  13.503 -0.0138  0.0654 -0.2519
13653TIP3    H162374   6.054   3.912  13.503 -0.2818 -0.3317  0.6070
13653TIP3    H262375   5.902   3.905  13.497 -0.3280  0.2975  0.8499
13654TIP3   OH262376   4.040   5.039  16.502 -0.5900  0.4155  0.5951
13654TIP3    H162377   4.107   5.021  16.436  0.0620  0.3169  1.2627
13654TIP3    H262378   4.024   5.133  16.495  0.4412  0.6579  1.1544
13655TIP3   OH262379   0.377   5.493   3.445 -0.4359  0.0989 -0.6370
13655TIP3    H162380   0.379   5.397   3.437 -0.0494  0.0926 -0.4879
13655TIP3    H262381   0.468   5.520   3.433 -0.3407  0.3457  0.4987
13656TIP3   OH262382   3.031   0.871   4.495 -0.2020  0.0397  0.1728
13656TIP3    H162383   2.997   0.958   4.475 -1.4219 -0.2645  0.8323
13656TIP3    H262384   3.077   0.882   4.579 -1.2330 -0.1361  0.7810
13657TIP3   OH262385   0.252   3.158  12.458  0.1542  0.3899  0.2702
13657TIP3    H162386   0.164   3.132  12.488  0.7378 -0.7380  1.0559
13657TIP3    H262387   0.276   3.091  12.395  1.3315 -0.5976  1.6943
13658TIP3   OH262388   2.173   5.347  14.641  0.1527  0.1682  0.0448
13658TIP3    H162389   2.267   5.359  14.632  0.1081  0.3093 -0.2722
13658TIP3    H262390   2.152   5.381  14.728  0.3951  0.1198  0.1222
13659TIP3   OH262391   5.807   3.845  17.304 -0.1581 -0.2474 -0.0111
13659TIP3    H162392   5.783   3.936  17.322 -0.7601 -0.2324 -0.8196
13659TIP3    H262393   5.738   3.793  17.345  0.8218 -0.4155  1.4972
13660TIP3   OH262394   5.098   0.777   0.863 -0.1596  0.0469 -0.1488
13660TIP3    H162395   5.053   0.856   0.834 -0.6791 -0.6609 -1.3693
13660TIP3    H262396   5.037   0.706   0.843  0.6655 -0.7489  0.0888
13661TIP3   OH262397   2.771   6.187   3.509 -0.0985  0.0412  0.1355
13661TIP3    H162398   2.727   6.206   3.592 -0.0292 -0.1476  0.2178
13661TIP3    H262399   2.753   6.262   3.454  1.3205  1.0070  0.9205
13662TIP3   OH262400   3.660   6.655   5.253 -0.1421  0.0572 -0.2388
13662TIP3    H162401   3.620   6.635   5.337 -0.1736 -0.1100 -0.2921
13662TIP3    H262402   3.608   6.604   5.189 -0.6755  0.8605 -0.4647
13663TIP3   OH262403   6.662   0.255  17.143  0.4772 -0.1548  0.3743
13663TIP3    H162404   6.577   0.286  17.110 -0.0012 -1.2216  0.5530
13663TIP3    H262405   6.654   0.262  17.238  1.6902  2.4903  0.3644
13664TIP3   OH262406   1.238   2.441  13.322 -0.2371 -0.0202 -0.4854
13664TIP3    H162407   1.254   2.515  13.264 -0.5596 -0.3854 -1.0514
13664TIP3    H262408   1.305   2.448  13.389  0.8151 -0.1846 -1.4891
13665TIP3   OH262409   0.982   4.874   2.286  0.1553 -0.1881  0.4327
13665TIP3    H162410   0.962   4.966   2.304  0.4500 -0.0335 -0.0187
13665TIP3    H262411   0.998   4.835   2.372 -1.2113 -0.1168  0.7450
13666TIP3   OH262412   0.843   0.049  12.006 -0.6787  0.4432  0.1509
13666TIP3    H162413   0.846   0.121  11.943  1.9481  1.0220  0.8384
13666TIP3    H262414   0.850  -0.030  11.953 -5.3377  0.3375 -0.8045
13667TIP3   OH262415   5.147   3.154   2.128  0.2034 -0.7335 -0.7189
13667TIP3    H162416   5.154   3.147   2.033  0.7710 -0.7397 -0.6799
13667TIP3    H262417   5.069   3.208   2.143  1.5534  1.4914 -1.2559
13668TIP3   OH262418   4.463   4.321   0.409 -0.2902  0.1417 -0.0943
13668TIP3    H162419   4.448   4.292   0.319  2.6480  3.0616 -1.7288
13668TIP3    H262420   4.533   4.265   0.442  0.1850  0.5149 -0.4670
13669TIP3   OH262421   5.927   4.495  13.445 -0.3794 -0.2395  0.2037
13669TIP3    H162422   5.857   4.440  13.479  0.7778 -1.1241  1.2364
13669TIP3    H262423   5.980   4.517  13.521  0.9132 -0.2605 -0.6437
13670TIP3   OH262424   3.527   3.858   3.521 -0.1568  0.3262 -0.2919
13670TIP3    H162425   3.552   3.950   3.515  1.8281 -0.2041 -1.0439
13670TIP3    H262426   3.574   3.825   3.597 -0.8413 -0.0800 -0.0352
13671TIP3   OH262427   1.480   6.575   0.168 -0.0927  0.1668 -0.0785
13671TIP3    H162428   1.501   6.667   0.150  4.6196 -0.6375  0.0128
13671TIP3    H262429   1.474   6.534   0.082 -0.8622  0.2780 -0.0873
13672TIP3   OH262430   3.822   4.038  12.217 -0.1299 -0.2153  0.0468
13672TIP3    H162431   3.891   4.006  12.159 -3.9730 -1.4128 -4.4503
13672TIP3    H262432   3.809   4.129  12.190 -0.7991 -0.2482  0.2435
13673TIP3   OH262433   2.250   4.300  17.308  0.1287  0.5138  0.3107
13673TIP3    H162434   2.196   4.325  17.383  0.4083 -0.5046  0.8842
13673TIP3    H262435   2.321   4.247  17.347 -0.5702 -1.3422 -0.8148
13674TIP3   OH262436   0.633   5.169   1.050  0.0590  0.4804 -0.2567
13674TIP3    H162437   0.589   5.203   1.128  0.1007  1.5514 -0.6967
13674TIP3    H262438   0.660   5.246   1.001  0.5304 -0.1784 -1.0648
13675TIP3   OH262439   2.071   6.276  11.008 -0.3575  0.3682  0.1306
13675TIP3    H162440   2.040   6.293  10.919 -1.3785 -1.0689  0.1693
13675TIP3    H262441   2.107   6.188  11.004 -0.9805  0.0375  1.2617
13676TIP3   OH262442   0.628   4.299  14.142  0.3358  0.2551 -0.2214
13676TIP3    H162443   0.632   4.206  14.119  0.3452  0.1077  0.3547
13676TIP3    H262444   0.627   4.345  14.058  3.7799 -0.0832 -0.5604
13677TIP3   OH262445   5.083   3.671  16.173 -0.5310 -0.6607  0.2573
13677TIP3    H162446   5.158   3.729  16.158  0.3601 -1.3932  1.6160
13677TIP3    H262447   5.120   3.583  16.170 -1.7589 -1.1638 -1.1924
13678TIP3   OH262448   2.061   0.869   2.830  0.3625  0.4079  0.0572
13678TIP3    H162449   1.973   0.838   2.851  0.4549  0.1378  0.0528
13678TIP3    H262450   2.069   0.858   2.735  0.7666 -0.5452  0.1909
13679TIP3   OH262451   0.362   3.139   1.941 -0.0875 -0.2958  0.1768
13679TIP3    H162452   0.401   3.121   1.856  0.3686  0.0180  0.3143
13679TIP3    H262453   0.401   3.074   2.000  1.2060  0.8051  0.5763
13680TIP3   OH262454   2.645   1.499  14.148  0.0213  0.5851 -0.3574
13680TIP3    H162455   2.612   1.508  14.059 -0.8897  0.4720 -0.0476
13680TIP3    H262456   2.609   1.574  14.195  0.4973  0.6462 -0.0830
13681TIP3   OH262457   2.027   2.522   1.391 -0.3470  0.2890 -0.1625
13681TIP3    H162458   2.118   2.552   1.397 -0.9794  2.4883 -0.7225
13681TIP3    H262459   1.975   2.601   1.399 -2.2424 -0.8981 -0.0619
13682TIP3   OH262460   1.150   2.099  16.621 -0.4321  0.2716  0.2883
13682TIP3    H162461   1.152   2.076  16.714 -2.7982 -1.0489  0.0929
13682TIP3    H262462   1.170   2.192  16.619  0.3491  0.1819  2.0367
13683TIP3   OH262463   3.057   5.103  13.839 -0.0298 -0.2510 -0.3605
13683TIP3    H162464   2.973   5.080  13.799 -0.7344  0.0264  0.8958
13683TIP3    H262465   3.039   5.107  13.933  1.2335  0.4981 -0.1162
13684TIP3   OH262466   2.960   3.540   1.010 -0.4081 -0.6129 -0.3422
13684TIP3    H162467   2.948   3.492   1.092 -0.1613 -1.2021 -0.6432
13684TIP3    H262468   3.035   3.597   1.027 -0.7072 -0.3220  0.0201
13685TIP3   OH262469   0.777   0.760   2.605 -0.0855 -0.2188 -0.4883
13685TIP3    H162470   0.732   0.834   2.564 -0.6365 -1.1001 -1.5321
13685TIP3    H262471   0.706   0.704   2.637  0.3280 -0.2278  0.4501
13686TIP3   OH262472   0.924   6.299  14.274 -0.3824 -0.6384  0.5016
13686TIP3    H162473   0.957   6.209  14.277  1.4306 -0.2817 -3.2540
13686TIP3    H262474   0.996   6.351  14.308 -0.2471 -0.4315 -0.0906
13687TIP3   OH262475   6.534   3.019  11.873 -0.1872 -0.3515  0.1355
13687TIP3    H162476   6.620   3.060  11.874  0.0239 -0.7876  0.5207
13687TIP3    H262477   6.502   3.032  11.784  0.7353 -1.0969 -0.3237
13688TIP3   OH262478   4.226   3.089   0.639  0.0437  0.4407  0.0706
13688TIP3    H162479   4.239   3.014   0.697 -1.4568 -0.4851 -0.7245
13688TIP3    H262480   4.242   3.166   0.694  2.2674 -0.4318  0.7345
13689TIP3   OH262481   3.078   2.997   4.903  0.2731 -0.0633 -0.6043
13689TIP3    H162482   3.090   2.959   4.816  1.2283  1.0289 -0.9672
13689TIP3    H262483   3.067   3.091   4.886  1.8508  0.3483  0.5505
13690TIP3   OH262484   6.128   0.075   5.691 -0.2817  0.1881  0.3730
13690TIP3    H162485   6.201   0.028   5.731  0.8457  1.8054  0.2908
13690TIP3    H262486   6.122   0.039   5.602 -0.9027 -1.3448  1.0022
13691TIP3   OH262487   1.877   3.680   0.804  0.0888 -0.4333 -0.4063
13691TIP3    H162488   1.913   3.718   0.884 -0.0325 -2.1822  0.5390
13691TIP3    H262489   1.799   3.731   0.785  1.1788  1.2512 -0.5480
13692TIP3   OH262490   0.964   3.981   5.636  0.1483 -0.1792 -0.3766
13692TIP3    H162491   0.871   3.991   5.655  0.2292  1.3302 -0.6306
13692TIP3    H262492   0.972   3.996   5.542  0.6364 -0.3126 -0.3599
13693TIP3   OH262493   6.474   1.261  14.159  0.3433 -0.1953 -0.0141
13693TIP3    H162494   6.484   1.183  14.105 -1.1573 -0.7507  0.4699
13693TIP3    H262495   6.470   1.334  14.097  0.6242 -0.6142 -0.5255
13694TIP3   OH262496   1.235   5.732  10.805 -0.2042 -0.2863  0.6538
13694TIP3    H162497   1.285   5.708  10.728  0.8588 -1.4604  1.6611
13694TIP3    H262498   1.280   5.689  10.878 -1.3177  0.5565  1.9047
13695TIP3   OH262499   5.824   2.408  13.858  0.1570 -0.3921  0.2391
13695TIP3    H162500   5.861   2.382  13.942 -0.0854  1.3052  0.9168
13695TIP3    H262501   5.897   2.404  13.797  0.4335 -1.2416  0.6207
13696TIP3   OH262502   5.683   5.637   4.100 -0.6619 -0.3627  0.0907
13696TIP3    H162503   5.701   5.675   4.014  1.4155 -1.9850 -0.2982
13696TIP3    H262504   5.644   5.552   4.080 -1.9239  0.0200  0.8342
13697TIP3   OH262505   4.182   5.388  17.323 -0.1575  0.3403  0.1641
13697TIP3    H162506   4.087   5.377  17.323 -0.0251 -1.0486  0.4593
13697TIP3    H262507   4.205   5.404  17.232 -0.6157  0.0921  0.0037
13698TIP3   OH262508   3.943   4.989  15.565 -0.9068 -0.4086 -0.0630
13698TIP3    H162509   4.036   4.976  15.544 -1.1520 -2.2500 -0.1064
13698TIP3    H262510   3.904   5.020  15.483 -0.5135 -0.5590 -0.3066
13699TIP3   OH262511   1.814   4.088  12.173  0.2577  0.0579  0.8474
13699TIP3    H162512   1.750   4.025  12.206  1.2417 -0.7441  1.3003
13699TIP3    H262513   1.762   4.162  12.141 -1.0315 -1.5484 -1.0118
13700TIP3   OH262514   3.202   6.337  16.305  0.4711 -0.2868  0.0949
13700TIP3    H162515   3.113   6.330  16.340  0.9107  3.2856  2.4154
13700TIP3    H262516   3.200   6.415  16.250  2.3466  0.4594  1.0218
13701TIP3   OH262517   2.111   4.590   0.915  0.5842 -0.0024 -0.4173
13701TIP3    H162518   2.026   4.622   0.945  0.9440 -1.5816  2.6122
13701TIP3    H262519   2.169   4.600   0.991  2.7434 -0.3850 -1.9177
13702TIP3   OH262520   1.203   3.483  11.033 -0.0937  0.7031  0.6640
13702TIP3    H162521   1.146   3.417  10.994  0.1921  0.1152  1.2272
13702TIP3    H262522   1.264   3.506  10.962  0.3403 -0.2658  0.6978
13703TIP3   OH262523   4.973   1.769  11.570  0.4526  0.0854  0.1723
13703TIP3    H162524   4.984   1.731  11.483 -0.2524 -0.7697  0.4474
13703TIP3    H262525   4.885   1.807  11.569  0.5943  0.4239  0.3810
13704TIP3   OH262526   0.649   4.308  13.158  0.9050  0.4687 -0.1946
13704TIP3    H162527   0.663   4.343  13.069 -1.1632 -1.0646 -1.1977
13704TIP3    H262528   0.564   4.265  13.154  0.9138  0.0448  2.4811
13705TIP3   OH262529   5.949   1.100  14.935 -0.6426  0.4453  0.2375
13705TIP3    H162530   5.938   1.012  14.971  1.7219 -0.3643 -0.8155
13705TIP3    H262531   5.929   1.158  15.008 -0.8284 -0.9877  1.3816
13706TIP3   OH262532   1.572   5.432  13.453 -0.3354 -0.2259 -0.0268
13706TIP3    H162533   1.616   5.378  13.518 -0.4478  0.7547  0.8988
13706TIP3    H262534   1.496   5.469  13.499 -0.7426  0.0445 -0.8814
13707TIP3   OH262535   1.361   2.725   5.897 -0.0956  0.1435 -0.0995
13707TIP3    H162536   1.414   2.724   5.817  0.0715 -2.6902 -0.0527
13707TIP3    H262537   1.396   2.799   5.948  2.9516 -0.7837 -0.6324
13708TIP3   OH262538   4.797   3.315  15.506  0.2131 -0.4965  0.5158
13708TIP3    H162539   4.772   3.243  15.449  0.2446 -0.8585  0.9574
13708TIP3    H262540   4.761   3.393  15.464  1.0571 -0.6325 -0.5039
13709TIP3   OH262541   6.094   4.597   3.464 -0.2444 -0.2192  0.0684
13709TIP3    H162542   6.021   4.565   3.516 -0.7055  1.0971  0.2721
13709TIP3    H262543   6.159   4.527   3.467 -1.0293 -0.9279  0.8391
13710TIP3   OH262544   6.364   5.018  13.647  0.4215  0.2460 -0.1832
13710TIP3    H162545   6.392   5.011  13.738  1.8943  3.7653 -0.2018
13710TIP3    H262546   6.318   5.102  13.643 -0.4608 -0.2649 -2.5244
13711TIP3   OH262547   5.152   4.695  12.336 -0.2137 -0.4898 -0.1874
13711TIP3    H162548   5.214   4.666  12.403  0.7836  1.0926 -0.3707
13711TIP3    H262549   5.174   4.642  12.259 -0.5864 -1.4961  0.3849
13712TIP3   OH262550   6.539   3.679   4.805 -0.1935  0.2553  0.5821
13712TIP3    H162551   6.531   3.652   4.896 -0.6914  0.5483  0.6255
13712TIP3    H262552   6.624   3.722   4.800 -0.4307  0.7796  1.0450
13713TIP3   OH262553   4.098   5.280  15.522 -0.3246  0.1440  0.3329
13713TIP3    H162554   4.059   5.354  15.568 -2.5709 -1.3710  1.0146
13713TIP3    H262555   4.099   5.306  15.430  0.4489  1.6079  0.7209
13714TIP3   OH262556   0.871   6.227   6.079 -0.1489 -0.5460 -0.5121
13714TIP3    H162557   0.927   6.268   6.145 -2.6901  1.9229  0.3238
13714TIP3    H262558   0.881   6.282   6.001  1.4468 -2.3787 -1.6741
13715TIP3   OH262559   5.056   6.519  13.733 -0.1562 -0.0557 -0.3275
13715TIP3    H162560   5.025   6.610  13.734 -0.2234 -0.0796 -0.2300
13715TIP3    H262561   5.072   6.500  13.641 -0.5716 -0.0903 -0.3933
13716TIP3   OH262562   5.132   3.255   1.537  0.4069  0.2833 -0.1150
13716TIP3    H162563   5.211   3.202   1.542  0.5015  0.1913 -1.8342
13716TIP3    H262564   5.062   3.198   1.569  0.5733 -0.7734 -1.5329
13717TIP3   OH262565   2.646   2.859  14.718  0.3556 -0.5898 -0.0056
13717TIP3    H162566   2.725   2.805  14.723  0.8944  0.2339  0.7766
13717TIP3    H262567   2.579   2.807  14.762  0.6420 -0.9967 -0.0409
13718TIP3   OH262568   1.004   3.452  11.943 -0.5163 -0.5046  0.8408
13718TIP3    H162569   1.025   3.390  11.873 -1.4503 -1.1903  1.1518
13718TIP3    H262570   1.082   3.451  11.999  0.3308  0.2093 -0.2673
13719TIP3   OH262571   4.838   5.246  11.912 -0.0901 -0.1048 -0.3479
13719TIP3    H162572   4.874   5.278  11.995  1.0875  0.7576 -1.1583
13719TIP3    H262573   4.809   5.325  11.867  1.4178 -0.3013 -1.7281
13720TIP3   OH262574   4.704   2.294   4.159 -0.8503 -0.2956  0.6124
13720TIP3    H162575   4.738   2.285   4.248 -0.2835  0.6178  0.4974
13720TIP3    H262576   4.739   2.218   4.113 -1.9723 -1.3304  1.4017
13721TIP3   OH262577   5.578   0.532   0.677 -0.2004 -0.1994 -0.1573
13721TIP3    H162578   5.521   0.576   0.613  0.4733 -0.7664 -1.1734
13721TIP3    H262579   5.572   0.586   0.755 -0.4478  0.9585 -0.9489
13722TIP3   OH262580   0.532   6.727  17.046  0.5067 -0.0662 -0.0242
13722TIP3    H162581   0.526   6.816  17.012 -0.5084  0.3330  1.1331
13722TIP3    H262582   0.616   6.694  17.012  1.6347  1.8538  0.7503
13723TIP3   OH262583   0.598   6.681  12.768  0.5233 -0.0203 -0.0383
13723TIP3    H162584   0.575   6.738  12.695  0.3885  0.0732  0.0760
13723TIP3    H262585   0.593   6.738  12.845  2.7688  0.4377 -0.1660
13724TIP3   OH262586   5.893   0.246  12.869 -0.2879  0.6393  0.4193
13724TIP3    H162587   5.826   0.241  12.801  1.6996 -1.4592 -1.5714
13724TIP3    H262588   5.944   0.324  12.847  1.2448 -0.8145 -1.5491
13725TIP3   OH262589   0.165   5.395   5.775  0.3314  0.6075  0.3438
13725TIP3    H162590   0.243   5.449   5.785  0.9263  0.2721 -1.9575
13725TIP3    H262591   0.124   5.426   5.694 -0.2500 -1.2364 -0.1161
13726TIP3   OH262592   0.746   1.688  17.138 -0.4306  0.4596  0.4529
13726TIP3    H162593   0.729   1.613  17.081  1.1803 -0.2866  0.9132
13726TIP3    H262594   0.795   1.652  17.212 -0.5098  1.7976  1.1960
13727TIP3   OH262595   2.202   2.034  13.114 -0.2892 -0.0967  0.4840
13727TIP3    H162596   2.134   2.032  13.046  0.2771 -0.5727 -0.0805
13727TIP3    H262597   2.257   1.958  13.095  0.5019  0.3778  0.8284
13728TIP3   OH262598   0.534   5.098  14.352 -0.4071  0.2593  0.3405
13728TIP3    H162599   0.567   5.097  14.262 -1.6637 -1.1469 -0.1431
13728TIP3    H262600   0.579   5.026  14.395 -0.0372  0.7364  0.7614
13729TIP3   OH262601   2.098   2.437  14.010  0.2761  0.1546 -0.9058
13729TIP3    H162602   2.004   2.428  14.022  0.6323 -2.2805  0.7357
13729TIP3    H262603   2.135   2.432  14.098  2.0454 -1.0575 -1.6566
13730TIP3   OH262604   4.308   5.901   0.425  0.4927 -0.3766  0.2755
13730TIP3    H162605   4.317   5.880   0.332  1.0298  0.6321  0.0844
13730TIP3    H262606   4.394   5.884   0.462 -0.0187 -1.9137  0.8595
13731TIP3   OH262607   6.007   1.788   6.288 -0.4241 -0.5291 -0.0479
13731TIP3    H162608   6.013   1.861   6.349  1.9862  1.2131 -2.1570
13731TIP3    H262609   5.937   1.813   6.228  0.6518  0.3052 -0.9945
13732TIP3   OH262610   5.438   3.412  14.867 -0.0715 -0.3366 -0.3399
13732TIP3    H162611   5.469   3.368  14.788 -0.9835  1.5472 -1.8292
13732TIP3    H262612   5.369   3.471  14.837  0.0372  0.9973  1.7634
13733TIP3   OH262613   0.594   0.523   3.945  0.5286 -0.5552 -0.1561
13733TIP3    H162614   0.665   0.585   3.927  0.4385 -0.6911 -1.0484
13733TIP3    H262615   0.597   0.461   3.872 -1.1949  0.0755 -0.8169
13734TIP3   OH262616   2.587   2.578  15.841  0.6594 -0.2353  0.2484
13734TIP3    H162617   2.494   2.561  15.829  0.4915 -0.5846  1.8127
13734TIP3    H262618   2.595   2.673  15.830  0.0339 -0.1379  0.5527
13735TIP3   OH262619   1.600   3.476   0.857 -0.1496  0.5951 -0.0529
13735TIP3    H162620   1.536   3.443   0.794 -2.3688  2.9975  0.7554
13735TIP3    H262621   1.554   3.545   0.904  3.2357  2.9614  0.1763
13736TIP3   OH262622   2.848   2.814   5.997 -0.3142  0.4833 -0.5110
13736TIP3    H162623   2.914   2.883   5.985  1.2238 -0.7178  0.6684
13736TIP3    H262624   2.843   2.802   6.092 -1.9778  0.2573 -0.5938
13737TIP3   OH262625   3.057   2.735  16.870 -0.1717  0.1657  0.4401
13737TIP3    H162626   3.149   2.761  16.881  0.2283 -0.7390 -0.6221
13737TIP3    H262627   3.011   2.817  16.853  1.3412  0.2374 -4.8701
13738TIP3   OH262628   2.051   4.671   4.378 -0.1417 -0.0656 -0.4109
13738TIP3    H162629   2.094   4.726   4.313  0.2578  1.6756  1.2451
13738TIP3    H262630   1.957   4.687   4.364 -0.0300  1.1333  0.0972
13739TIP3   OH262631   0.531   6.660  12.446  0.1624 -0.2599 -0.1761
13739TIP3    H162632   0.556   6.745  12.483  0.0277 -0.2010 -0.2180
13739TIP3    H262633   0.441   6.673  12.417 -0.7180 -1.0693  1.9524
13740TIP3   OH262634   0.542   1.148  15.258  0.2208  0.1809  0.5828
13740TIP3    H162635   0.562   1.197  15.338 -0.4369  0.6637  0.4663
13740TIP3    H262636   0.511   1.063  15.289  1.9524 -0.4150  0.7691
13741TIP3   OH262637   3.181   1.753  12.579  0.2153  0.9457 -0.0151
13741TIP3    H162638   3.255   1.771  12.638 -0.9457  2.1217  1.1418
13741TIP3    H262639   3.163   1.660  12.592  0.0402  1.1527  1.4582
13742TIP3   OH262640   2.749   2.943   4.682  0.5631  1.1171  0.0770
13742TIP3    H162641   2.779   2.915   4.768  1.0332  0.9846 -0.1256
13742TIP3    H262642   2.689   3.016   4.699  0.5332  0.9888  0.5206
13743TIP3   OH262643   4.522   1.000  15.352 -0.1606  0.1764  0.1562
13743TIP3    H162644   4.605   1.022  15.310  0.7580 -0.1397  1.7279
13743TIP3    H262645   4.541   0.922  15.404 -1.5195 -0.0586  0.3371
13744TIP3   OH262646   0.630   5.426   0.926  0.2363 -1.2314 -0.2266
13744TIP3    H162647   0.648   5.520   0.920  0.9417 -1.3331  0.2461
13744TIP3    H262648   0.568   5.410   0.855  2.3375 -0.9374 -2.2589
13745TIP3   OH262649   0.034   0.313   4.303  0.0817 -0.5921  0.3928
13745TIP3    H162650  -0.002   0.379   4.362 -0.2942  0.2541 -0.7337
13745TIP3    H262651   0.123   0.344   4.284 -0.3000 -0.0846 -0.5981
13746TIP3   OH262652   6.141   3.474   6.421  0.2604 -0.8318  0.2481
13746TIP3    H162653   6.056   3.445   6.455 -1.2923  0.8240 -1.9776
13746TIP3    H262654   6.124   3.499   6.331  2.9634  0.3785 -0.0243
13747TIP3   OH262655   3.770   4.302  12.153  0.2542 -0.1456  0.1339
13747TIP3    H162656   3.699   4.360  12.179  0.2611 -0.0178 -0.1246
13747TIP3    H262657   3.810   4.346  12.078 -1.3190 -1.6672 -1.7071
13748TIP3   OH262658   2.069   4.138  12.049  0.6112  0.3077 -0.0878
13748TIP3    H162659   2.121   4.064  12.018  0.4796  0.5074 -0.8301
13748TIP3    H262660   1.989   4.099  12.083  1.4337 -0.0387  1.5126
13749TIP3   OH262661   1.547   4.474  17.188 -0.0100 -0.2175 -0.0508
13749TIP3    H162662   1.633   4.447  17.155  0.2384  0.3207  0.1530
13749TIP3    H262663   1.505   4.392  17.213  0.0785 -0.5733 -1.0173
13750TIP3   OH262664   5.198   1.634   1.924  1.0647 -0.1933 -0.1055
13750TIP3    H162665   5.286   1.672   1.925  0.9973 -0.0294 -0.2164
13750TIP3    H262666   5.209   1.549   1.882  0.8455  0.6858 -2.0633
13751TIP3   OH262667   4.836   1.265   2.718 -0.5724 -0.5744 -0.1023
13751TIP3    H162668   4.879   1.180   2.706  0.0164 -0.1747 -0.9043
13751TIP3    H262669   4.755   1.245   2.766  0.2850 -1.3900  1.0489
13752TIP3   OH262670   6.131   5.600   5.574  0.5230 -0.3562 -0.0150
13752TIP3    H162671   6.124   5.669   5.507  0.6884  0.9437  1.2601
13752TIP3    H262672   6.215   5.558   5.556  0.1230 -0.6997 -1.2149
13753TIP3   OH262673   2.087   4.808   0.244  0.6365  0.3085 -0.0087
13753TIP3    H162674   2.180   4.815   0.265  0.4220  1.5693  0.6398
13753TIP3    H262675   2.043   4.817   0.328 -0.0730 -0.1499 -0.3270
13754TIP3   OH262676   3.431   5.258   1.473 -0.4719  0.2587  0.1231
13754TIP3    H162677   3.394   5.333   1.518 -0.1557  0.6538 -0.2706
13754TIP3    H262678   3.514   5.289   1.438  0.2435 -0.6188  0.9993
13755TIP3   OH262679   2.515   0.905   3.392 -0.2345 -0.1832  0.5172
13755TIP3    H162680   2.431   0.942   3.365  0.2494  0.5004 -0.0922
13755TIP3    H262681   2.541   0.848   3.320  0.4506  0.6541  0.0758
13756TIP3   OH262682   6.585   5.904   6.033  0.3476 -0.2299  0.1843
13756TIP3    H162683   6.597   5.861   6.118 -1.7846  0.6429  0.9906
13756TIP3    H262684   6.648   5.976   6.034  1.5987 -1.2779  0.2280
13757TIP3   OH262685   5.058   4.888  13.631  0.8656  0.2045  0.6166
13757TIP3    H162686   5.076   4.980  13.649  0.8845  0.5937 -1.2236
13757TIP3    H262687   4.973   4.872  13.671 -0.1559  1.6414 -0.8381
13758TIP3   OH262688   4.923   0.743  15.417 -0.2825 -0.2360  0.1390
13758TIP3    H162689   4.884   0.684  15.351  0.9630 -1.3166  0.3265
13758TIP3    H262690   4.848   0.791  15.452 -1.0134  0.2784 -1.9506
13759TIP3   OH262691   0.659   0.993   3.240  0.8271 -0.1230  0.4548
13759TIP3    H162692   0.596   0.953   3.300  0.1381  0.6100  0.2392
13759TIP3    H262693   0.677   1.079   3.279  2.1074 -0.5174  0.7884
13760TIP3   OH262694   1.512   4.912   1.945 -0.5376 -0.7421 -0.2679
13760TIP3    H162695   1.426   4.887   1.979 -0.3086  0.9567  1.7815
13760TIP3    H262696   1.571   4.902   2.020  0.5916  0.4080 -0.9546
13761TIP3   OH262697   4.714   2.522   2.444  0.2561  0.0769  0.5517
13761TIP3    H162698   4.734   2.469   2.522 -1.6402 -0.2554  0.8509
13761TIP3    H262699   4.747   2.470   2.371 -0.1367 -0.7694  0.9586
13762TIP3   OH262700   1.843   6.692  17.069  0.0142  0.2727  0.1357
13762TIP3    H162701   1.884   6.774  17.041 -0.0579 -0.3169 -1.8643
13762TIP3    H262702   1.896   6.663  17.143 -0.4129  2.4667  1.4051
13763TIP3   OH262703   4.067   4.285  11.895 -0.0740  0.2670  0.3902
13763TIP3    H162704   4.096   4.369  11.860 -0.6994  0.1788 -0.3701
13763TIP3    H262705   3.973   4.281  11.873 -0.7652  0.6359  2.9474
13764TIP3   OH262706   5.915   2.358   0.352  0.4153  0.4577 -0.2956
13764TIP3    H162707   5.836   2.363   0.299  1.4664 -2.4480 -2.4276
13764TIP3    H262708   5.973   2.424   0.316 -0.0623  0.7326 -0.5671
13765TIP3   OH262709   5.390   0.031   1.026  0.5658  0.2368 -0.4214
13765TIP3    H162710   5.431  -0.011   0.951  0.0248 -0.5811 -0.2803
13765TIP3    H262711   5.321   0.086   0.989  2.1300  2.0944 -0.7020
13766TIP3   OH262712   4.720   4.739   2.947 -0.1143 -0.0326  0.0654
13766TIP3    H162713   4.748   4.653   2.916 -0.4311 -0.4395  0.8736
13766TIP3    H262714   4.663   4.773   2.878 -0.2561 -0.6183 -0.1066
13767TIP3   OH262715   0.026   3.771   5.583 -0.0590 -0.2079  0.2464
13767TIP3    H162716   0.031   3.782   5.488  1.6056 -0.6402  0.2488
13767TIP3    H262717   0.116   3.782   5.613  0.0900 -3.3699  1.3752
13768TIP3   OH262718   1.904   2.507   2.937 -0.0283  0.2005 -0.1987
13768TIP3    H162719   1.960   2.584   2.952 -3.0572  2.3186  1.4775
13768TIP3    H262720   1.849   2.532   2.863  0.1961 -1.2443 -0.8910
13769TIP3   OH262721   2.941   3.539  14.764  0.6074  0.0645 -0.1896
13769TIP3    H162722   2.948   3.523  14.859  0.7337  0.6946 -0.0880
13769TIP3    H262723   3.032   3.544  14.734  0.6504  2.6053  0.1506
13770TIP3   OH262724   0.241   2.177  14.249  0.3738  0.0978  0.2618
13770TIP3    H162725   0.332   2.170  14.220  0.5719  1.7848  0.3396
13770TIP3    H262726   0.231   2.269  14.274 -0.4949 -0.6935  3.1857
13771TIP3   OH262727   0.635   0.285   1.261 -0.2190 -0.3256 -1.0059
13771TIP3    H162728   0.546   0.278   1.226 -0.5178 -0.8660 -0.1674
13771TIP3    H262729   0.623   0.292   1.356  0.5809  1.1188 -0.9847
13772TIP3   OH262730   6.739   2.364   1.043 -0.8833  0.0618  0.1142
13772TIP3    H162731   6.735   2.438   0.982 -1.5591  0.1120  0.2111
13772TIP3    H262732   6.819   2.379   1.093 -0.0369 -0.2501 -1.0914
13773TIP3   OH262733   0.322   4.233  13.687  0.3149  0.0501  0.4179
13773TIP3    H162734   0.418   4.239  13.683  0.2223  1.1583 -0.5379
13773TIP3    H262735   0.303   4.141  13.670  1.1013  0.3456 -2.4653
13774TIP3   OH262736   0.489   2.804   6.067  0.1579 -0.0160 -0.4232
13774TIP3    H162737   0.409   2.837   6.024 -2.1679 -3.8138  0.4315
13774TIP3    H262738   0.473   2.816   6.160  2.0857  1.9846 -0.3021
13775TIP3   OH262739   5.659   0.291  12.192  0.5477  0.1865 -0.0843
13775TIP3    H162740   5.597   0.275  12.263  2.2256  0.2941  1.4525
13775TIP3    H262741   5.629   0.374  12.153 -2.3023 -1.4222 -1.6988
13776TIP3   OH262742   0.161   2.976   2.068  0.2601 -0.2542  0.3140
13776TIP3    H162743   0.136   3.013   2.152 -0.3854  2.0311 -0.7936
13776TIP3    H262744   0.247   3.014   2.049 -0.3913  0.7375 -0.8266
13777TIP3   OH262745   1.691   2.607   3.834  0.5533 -0.3466 -0.0628
13777TIP3    H162746   1.627   2.646   3.774  1.0406  0.4958 -0.0458
13777TIP3    H262747   1.765   2.667   3.832  1.7859 -1.8397 -0.8896
13778TIP3   OH262748   0.895   3.454  12.667 -0.1319 -0.2740 -0.0737
13778TIP3    H162749   0.961   3.503  12.716  0.3241 -0.4712 -0.4844
13778TIP3    H262750   0.868   3.513  12.597 -1.4669  0.3719  0.9379
13779TIP3   OH262751   1.026   4.504  15.944  0.5637 -0.4104 -0.4092
13779TIP3    H162752   1.095   4.570  15.958 -0.6072  0.9060 -0.5859
13779TIP3    H262753   0.976   4.539  15.870 -0.4736 -1.1828 -0.0787
13780TIP3   OH262754   1.093   2.116  16.020 -0.0418 -0.7457 -0.5863
13780TIP3    H162755   1.118   2.023  16.018 -0.3728 -0.8219 -2.1902
13780TIP3    H262756   1.119   2.150  15.935  0.4108  0.7541  0.1132
13781TIP3   OH262757   2.227   3.327  14.910  0.0572  0.1868 -0.5892
13781TIP3    H162758   2.305   3.293  14.866  0.9496  0.5583  0.6559
13781TIP3    H262759   2.208   3.409  14.865 -0.5013 -0.5760 -1.8310
13782TIP3   OH262760   1.758   3.522  13.340  0.8963 -0.6775  0.2019
13782TIP3    H162761   1.848   3.492  13.326  1.2701  0.5774 -0.2492
13782TIP3    H262762   1.768   3.604  13.388 -0.0792 -1.1438  1.2555
13783TIP3   OH262763   0.635   5.429  17.150  0.0283 -0.2133  0.4175
13783TIP3    H162764   0.612   5.475  17.231  0.4573  0.0094  0.4173
13783TIP3    H262765   0.721   5.391  17.168 -1.6208 -3.8934  1.6389
13784TIP3   OH262766   4.027   2.792   0.274  0.3171  0.3476 -0.6498
13784TIP3    H162767   4.005   2.799   0.181 -1.6801  3.7042 -0.1120
13784TIP3    H262768   3.946   2.818   0.319  1.5050 -0.2632  2.0071
13785TIP3   OH262769   1.447   6.372   1.103  0.2228  0.1886 -0.5516
13785TIP3    H162770   1.441   6.392   1.009 -0.8722  1.7694 -0.1869
13785TIP3    H262771   1.539   6.384   1.124  0.2719  1.0423 -1.1887
13786TIP3   OH262772   5.065   6.297   6.479  0.4542 -0.2129 -0.3327
13786TIP3    H162773   5.013   6.332   6.406 -0.1024  2.4179  1.2003
13786TIP3    H262774   5.155   6.302   6.448  0.1558 -0.2107 -1.2505
13787TIP3   OH262775   5.287   2.971  16.927 -0.7750  0.0915 -0.5539
13787TIP3    H162776   5.321   3.024  16.999  0.4146  0.6265 -1.4701
13787TIP3    H262777   5.365   2.942  16.880 -1.2606 -3.7160  0.6929
13788TIP3   OH262778   5.590   3.460   1.061 -0.4834 -0.5387  0.0849
13788TIP3    H162779   5.627   3.408   0.990  0.5611  0.0869  0.1444
13788TIP3    H262780   5.623   3.548   1.046 -0.8664 -0.2427  0.9186
13789TIP3   OH262781   3.181   2.146   1.396 -0.0650  0.1295  0.0539
13789TIP3    H162782   3.268   2.175   1.369  0.6833 -3.4494 -1.9127
13789TIP3    H262783   3.180   2.158   1.491  1.9463  1.6690 -0.0642
13790TIP3   OH262784   6.548   0.916  15.580 -0.2376  0.0999  0.1998
13790TIP3    H162785   6.535   0.895  15.488  0.4903 -0.0503  0.1206
13790TIP3    H262786   6.629   0.871  15.603 -0.8863 -0.6047  1.1540
13791TIP3   OH262787   3.155   0.858   2.438  0.4532  1.0288 -0.2151
13791TIP3    H162788   3.186   0.886   2.524  1.2314  0.7715 -0.3983
13791TIP3    H262789   3.073   0.906   2.425 -0.0851  0.4830  0.9874
13792TIP3   OH262790   3.804   1.671   5.477 -0.2765 -0.2832 -0.0768
13792TIP3    H162791   3.775   1.729   5.548 -0.2800 -0.0658 -0.2537
13792TIP3    H262792   3.896   1.694   5.463 -0.6688  0.7349 -1.1503
13793TIP3   OH262793   2.555   2.468  14.636  0.2845  0.2022  0.2969
13793TIP3    H162794   2.594   2.383  14.616  0.1661  0.4221 -0.9057
13793TIP3    H262795   2.606   2.531  14.585  0.4150  0.8840  1.2189
13794TIP3   OH262796   2.274   1.963   2.558 -0.6941 -0.0260  0.0092
13794TIP3    H162797   2.230   1.909   2.493  2.1925 -0.5801 -1.6802
13794TIP3    H262798   2.338   1.904   2.598 -0.0454  1.1920  0.8287
13795TIP3   OH262799   3.695   0.948   3.126 -0.3413  0.5048 -0.1566
13795TIP3    H162800   3.715   0.966   3.034 -1.1715 -0.2121 -0.4856
13795TIP3    H262801   3.600   0.956   3.133 -0.7849 -2.9261 -0.2139
13796TIP3   OH262802   6.593   5.769  17.273  0.2317 -0.0446  0.5229
13796TIP3    H162803   6.685   5.786  17.255  0.3525 -0.0008  1.1566
13796TIP3    H262804   6.573   5.688  17.226 -0.0556  1.1979 -1.6363
13797TIP3   OH262805   2.025   6.010   0.646 -0.5417  0.0534  0.5965
13797TIP3    H162806   2.015   6.091   0.596 -0.9453  1.6089  3.0246
13797TIP3    H262807   1.937   5.973   0.651 -0.5287 -0.0171  0.2930
13798TIP3   OH262808   1.077   2.398  10.760 -0.1017  0.2525 -0.8733
13798TIP3    H162809   1.091   2.482  10.717  0.0007  0.4157 -0.5281
13798TIP3    H262810   1.018   2.418  10.833 -1.2660 -0.2364 -1.6589
13799TIP3   OH262811   5.896   4.686  12.493  0.4980 -0.3743 -0.2303
13799TIP3    H162812   5.925   4.618  12.554 -2.6933 -0.6750  1.1468
13799TIP3    H262813   5.810   4.656  12.463  0.5573  1.3833 -2.3966
13800TIP3   OH262814   2.788   6.699  11.234 -0.6357  0.7868  0.3138
13800TIP3    H162815   2.780   6.683  11.328 -0.3046  2.4058  0.6423
13800TIP3    H262816   2.852   6.770  11.227 -1.7698  1.7314 -1.0120
13801TIP3   OH262817   6.625   1.327  11.798 -0.1999 -0.0441  0.0131
13801TIP3    H162818   6.582   1.268  11.859  1.4106 -1.3141 -0.0245
13801TIP3    H262819   6.716   1.297  11.794  0.5275  2.0194 -0.5377
13802TIP3   OH262820   0.295   0.177   6.169  0.4933 -0.4502 -0.5213
13802TIP3    H162821   0.357   0.202   6.101 -0.8518 -0.6101 -1.8613
13802TIP3    H262822   0.349   0.137   6.237  2.0552  1.1877 -0.7396
13803TIP3   OH262823   1.329   3.140   5.871 -0.4629 -0.5374 -1.1166
13803TIP3    H162824   1.239   3.163   5.892 -0.4652 -0.0758 -1.6294
13803TIP3    H262825   1.328   3.122   5.777  0.4343  1.7198 -1.6147
13804TIP3   OH262826   3.751   2.130   0.096  0.7716  1.0137  0.4455
13804TIP3    H162827   3.720   2.061   0.037  0.9267 -0.0230  1.5361
13804TIP3    H262828   3.730   2.212   0.051 -1.7153  0.3180  0.2295
13805TIP3   OH262829   3.735   4.505   5.332  0.1180  0.1002  0.3717
13805TIP3    H162830   3.733   4.595   5.364 -0.8413 -0.8355  3.3602
13805TIP3    H262831   3.663   4.462   5.378 -0.0836 -1.9903 -1.7192
13806TIP3   OH262832   1.856   6.724  12.893  0.4164 -0.1268  0.3823
13806TIP3    H162833   1.837   6.682  12.977 -0.4762  0.6032  0.5539
13806TIP3    H262834   1.927   6.671  12.856 -0.3212 -1.4585  0.8196
13807TIP3   OH262835   3.904   2.079  15.116  0.0740  0.1265  0.0093
13807TIP3    H162836   3.823   2.122  15.089  0.7449  1.2648 -0.2784
13807TIP3    H262837   3.875   1.998  15.158 -1.1557  0.0358 -0.9423
13808TIP3   OH262838   0.969   2.696  11.643 -0.1581  0.5494  0.0973
13808TIP3    H162839   0.965   2.627  11.708  2.1868 -0.6973 -0.9891
13808TIP3    H262840   0.975   2.777  11.694  1.3045 -0.3693  1.4491
13809TIP3   OH262841   5.960   2.672  13.570  0.0864  0.0104  0.6618
13809TIP3    H162842   5.963   2.752  13.518 -0.5170  0.3219  1.0927
13809TIP3    H262843   5.882   2.681  13.624 -1.3617 -1.8949 -0.9373
13810TIP3   OH262844   4.344   2.151  11.976  0.0356 -0.5104  0.4627
13810TIP3    H162845   4.261   2.119  11.942  0.5556 -1.6447  0.2005
13810TIP3    H262846   4.374   2.216  11.912 -0.2526 -0.7116  0.1231
13811TIP3   OH262847   2.351   6.348   3.150  0.0696  0.5678 -0.1094
13811TIP3    H162848   2.437   6.390   3.151  1.7754 -2.6661 -0.7445
13811TIP3    H262849   2.319   6.361   3.061  0.5858  0.4372 -0.3131
13812TIP3   OH262850   0.083   4.735   5.437 -0.0629 -0.1805 -0.0406
13812TIP3    H162851   0.103   4.824   5.468  1.0825 -0.2363 -0.5429
13812TIP3    H262852   0.144   4.721   5.364 -1.8094 -0.5218 -1.5025
13813TIP3   OH262853   5.532   0.821  14.815  0.2955  0.2177 -0.4913
13813TIP3    H162854   5.582   0.846  14.892  1.6615  1.9831 -1.8427
13813TIP3    H262855   5.568   0.876  14.745 -1.7665 -0.3766 -2.1069
13814TIP3   OH262856   3.852   3.102   1.293  0.1928 -0.5744  0.0212
13814TIP3    H162857   3.828   3.183   1.337 -1.5631  0.2196 -2.1609
13814TIP3    H262858   3.808   3.033   1.342 -2.2907  0.3457 -0.7642
13815TIP3   OH262859   6.326   3.787   4.032 -0.3857 -0.8780  0.3056
13815TIP3    H162860   6.420   3.773   4.042 -0.0829 -0.1036 -1.1869
13815TIP3    H262861   6.285   3.725   4.093  1.0991 -0.5805  1.6488
13816TIP3   OH262862   2.557   3.662  13.502  0.4937  0.2159 -0.4104
13816TIP3    H162863   2.539   3.571  13.480 -0.1599  0.3851 -0.5854
13816TIP3    H262864   2.534   3.670  13.595 -0.8810  0.5632 -0.7660
13817TIP3   OH262865   2.760   1.189   3.928  0.6331  0.5953 -0.0556
13817TIP3    H162866   2.762   1.267   3.872 -1.0006 -0.0984 -1.1526
13817TIP3    H262867   2.670   1.157   3.922  1.3824 -1.7016 -0.0744
13818TIP3   OH262868   5.673   5.931   1.882 -0.0404  0.0547 -0.1397
13818TIP3    H162869   5.745   5.867   1.879  1.2114  1.4203 -0.5491
13818TIP3    H262870   5.633   5.926   1.796  0.7452  0.5604 -0.5450
13819TIP3   OH262871   4.007   6.701   6.140 -0.0120  0.3998 -0.7735
13819TIP3    H162872   3.987   6.790   6.171 -1.5136  0.5733 -2.1373
13819TIP3    H262873   4.100   6.703   6.120 -0.0305  1.6727 -0.7948
13820TIP3   OH262874   5.527   3.006   4.327 -0.5937  0.2498  0.1723
13820TIP3    H162875   5.610   2.994   4.374 -0.8360  1.3368  0.9023
13820TIP3    H262876   5.554   3.033   4.238 -0.1611  0.1264  0.2616
13821TIP3   OH262877   6.661   0.557  14.893 -0.1953 -0.3119 -1.0275
13821TIP3    H162878   6.651   0.635  14.838 -2.1245 -0.6276 -1.2049
13821TIP3    H262879   6.710   0.495  14.840  3.5779  1.4932 -0.0472
13822TIP3   OH262880   1.058   1.245   2.031  0.3284 -0.2077 -0.1318
13822TIP3    H162881   1.129   1.197   1.988  0.6426  0.8281 -0.7969
13822TIP3    H262882   1.079   1.240   2.124 -0.2232 -2.2489 -0.0584
13823TIP3   OH262883   4.030   4.821  12.256 -0.4556  0.2324 -0.0711
13823TIP3    H162884   4.003   4.731  12.274 -2.1802  0.6411 -0.5118
13823TIP3    H262885   4.123   4.823  12.281 -0.7331 -1.2897  1.2333
13824TIP3   OH262886   3.616   0.025  17.179  0.1301 -0.4016  0.4435
13824TIP3    H162887   3.574  -0.040  17.122 -2.2011 -0.5777  2.2080
13824TIP3    H262888   3.545   0.086  17.200  1.9079  1.9130  0.0286
13825TIP3   OH262889   4.598   1.772   0.241 -0.2507  0.1848  0.1635
13825TIP3    H162890   4.657   1.709   0.200 -0.4605 -0.0940  0.2877
13825TIP3    H262891   4.650   1.852   0.248 -0.7229  0.7576 -2.1614
13826TIP3   OH262892   4.399   0.377  15.155 -0.5679 -0.3815  0.2512
13826TIP3    H162893   4.471   0.439  15.149  1.2202 -2.1260  1.9421
13826TIP3    H262894   4.424   0.305  15.097 -2.3801  0.2028 -1.3415
13827TIP3   OH262895   6.402   4.549   0.093 -0.0864 -0.5845  0.2364
13827TIP3    H162896   6.443   4.552   0.006 -1.7135 -0.6168 -0.5634
13827TIP3    H262897   6.338   4.478   0.086 -0.0655 -0.7496  1.5584
13828TIP3   OH262898   0.255   6.227   5.664  0.0875  0.4429  0.1163
13828TIP3    H162899   0.220   6.143   5.636 -1.5325  1.2283 -0.3267
13828TIP3    H262900   0.308   6.206   5.742 -0.2631 -0.9681 -0.0002
13829TIP3   OH262901   2.756   1.798   0.522  0.2415  0.1945 -0.0075
13829TIP3    H162902   2.811   1.868   0.486 -0.6739  0.3183 -1.2483
13829TIP3    H262903   2.814   1.751   0.582  1.0416  1.6441  0.4038
13830TIP3   OH262904   4.364   6.520   4.465 -0.2165 -0.1665  0.4235
13830TIP3    H162905   4.363   6.470   4.547  1.3443 -1.7724 -0.4669
13830TIP3    H262906   4.288   6.578   4.472 -0.7380 -0.9890  2.5401
13831TIP3   OH262907   2.199   2.919  14.429  0.0895  0.0082  0.3843
13831TIP3    H162908   2.107   2.901  14.408  0.3408 -1.3013  0.3352
13831TIP3    H262909   2.230   2.975  14.358 -0.4356 -0.2372 -0.0426
13832TIP3   OH262910   5.537   3.833   1.000  0.1972  0.1801 -0.0983
13832TIP3    H162911   5.474   3.857   0.932  0.1826 -1.6382 -0.7721
13832TIP3    H262912   5.534   3.906   1.061 -2.6354  0.1510 -0.0546
13833TIP3   OH262913   0.585   4.530   0.760 -0.6685  0.5033  0.1350
13833TIP3    H162914   0.648   4.543   0.690 -2.0446 -1.9560 -1.7447
13833TIP3    H262915   0.634   4.485   0.828  0.1509  0.7444 -0.2896
13834TIP3   OH262916   4.646   3.271   5.821  0.5365 -0.3908  0.3184
13834TIP3    H162917   4.563   3.315   5.802 -0.8145 -2.6140  0.7778
13834TIP3    H262918   4.696   3.337   5.870 -1.9942  0.2044  2.3529
13835TIP3   OH262919   4.906   1.929  14.488  0.0066 -0.0939 -0.1764
13835TIP3    H162920   4.934   1.840  14.509  1.7668  0.3864 -0.3593
13835TIP3    H262921   4.942   1.945  14.401 -1.8561  0.1776 -0.9527
13836TIP3   OH262922   4.385   3.753   2.630  0.0298  0.0310 -0.3100
13836TIP3    H162923   4.320   3.745   2.700  0.7951  1.9467  0.6715
13836TIP3    H262924   4.466   3.719   2.668 -0.4035 -3.0659 -1.7690
13837TIP3   OH262925   5.923   6.276  14.895 -0.1098  0.1776  0.5858
13837TIP3    H162926   5.897   6.288  14.987 -0.2210  0.5938  0.5007
13837TIP3    H262927   5.925   6.365  14.859 -0.7226 -0.0355  0.0018
13838TIP3   OH262928   4.769   0.375   1.879  0.6571  0.2856 -0.6742
13838TIP3    H162929   4.774   0.294   1.829 -0.5480  0.3584 -0.9355
13838TIP3    H262930   4.790   0.444   1.815  1.7754  0.1928 -0.4302
13839TIP3   OH262931   1.481   0.977  13.997 -0.1264  0.1361  0.2516
13839TIP3    H162932   1.516   0.902  13.950 -1.4361  1.2306 -2.6851
13839TIP3    H262933   1.553   1.041  13.999 -0.2062  0.2728 -0.7862
13840TIP3   OH262934   2.391   6.738  14.611 -0.5767 -0.1813  0.5928
13840TIP3    H162935   2.381   6.827  14.578 -1.5658 -0.7342 -0.6607
13840TIP3    H262936   2.430   6.749  14.698  2.0079  1.3277 -0.6431
13841TIP3   OH262937   1.661   5.742   0.440  0.0167 -0.3876 -0.4715
13841TIP3    H162938   1.676   5.650   0.415 -1.7604 -0.3798 -1.7247
13841TIP3    H262939   1.595   5.773   0.378  0.9081  1.8918 -0.3646
13842TIP3   OH262940   2.991   1.983   3.720  0.0784 -0.0532 -0.3790
13842TIP3    H162941   2.931   2.056   3.704  0.3250  0.1464 -0.3894
13842TIP3    H262942   2.953   1.936   3.794 -0.2219 -0.0690 -0.5376
13843TIP3   OH262943   2.690   2.834   5.778 -0.5151  0.2811  0.8349
13843TIP3    H162944   2.615   2.776   5.790 -0.5073  0.2465  0.7155
13843TIP3    H262945   2.743   2.822   5.857 -0.1722 -0.3758  0.5137
13844TIP3   OH262946   2.675   4.263  13.670 -0.3884 -0.2290  0.4088
13844TIP3    H162947   2.692   4.340  13.723 -1.2038  0.1731  0.1109
13844TIP3    H262948   2.581   4.267  13.652  0.1032  0.5635 -2.4287
13845TIP3   OH262949   0.551   4.689   1.627  0.3465  0.0185  0.0406
13845TIP3    H162950   0.470   4.740   1.632 -1.7537 -3.0620 -0.0496
13845TIP3    H262951   0.620   4.755   1.623 -2.2406  3.0319 -4.8241
13846TIP3   OH262952   1.375   5.195  12.466 -0.0267  0.7587  0.0119
13846TIP3    H162953   1.454   5.189  12.520  0.3021 -3.5369 -0.5554
13846TIP3    H262954   1.303   5.195  12.529  0.4140 -1.7528  0.6554
13847TIP3   OH262955   4.436   6.130  12.236  0.6274  0.3370  0.2060
13847TIP3    H162956   4.401   6.074  12.166 -1.7085 -1.0403  2.2868
13847TIP3    H262957   4.531   6.128  12.223  0.3378 -0.2908 -2.5430
13848TIP3   OH262958   0.887   1.437  13.646 -0.2934 -0.5861  0.1125
13848TIP3    H162959   0.919   1.487  13.721 -1.0048  0.4304 -0.2509
13848TIP3    H262960   0.839   1.364  13.685  0.7703 -1.0214  0.6492
13849TIP3   OH262961   6.045   0.870   3.511  0.4193  0.5687 -0.1711
13849TIP3    H162962   6.058   0.812   3.437 -2.5797  2.4412 -2.3891
13849TIP3    H262963   6.074   0.819   3.587 -0.7196 -3.2703 -2.0621
13850TIP3   OH262964   0.822   5.451  15.032 -0.0482  0.2708 -0.2420
13850TIP3    H162965   0.745   5.496  15.066  0.6127  1.6320 -0.4820
13850TIP3    H262966   0.893   5.475  15.092  0.9875  2.1555 -2.1038
13851TIP3   OH262967   6.395   3.509  16.610  0.4337  0.5246  0.6969
13851TIP3    H162968   6.430   3.563  16.539  1.8844 -0.2937  0.7562
13851TIP3    H262969   6.371   3.572  16.678  1.5888  1.1345  0.5560
13852TIP3   OH262970   4.018   0.011   2.022  0.1314 -0.7042 -0.4939
13852TIP3    H162971   3.962   0.084   1.994 -0.4354 -0.7463  0.4798
13852TIP3    H262972   4.076   0.049   2.088  1.5880 -0.5595 -1.7993
13853TIP3   OH262973   0.707   6.523  16.197 -0.0735  0.1435  0.0278
13853TIP3    H162974   0.747   6.592  16.251 -0.7973  0.5820  0.0093
13853TIP3    H262975   0.668   6.570  16.123 -0.2924 -0.3230 -0.1568
13854TIP3   OH262976   0.095   1.180  17.322 -0.1721  0.0382  0.1886
13854TIP3    H162977   0.165   1.226  17.277  0.0147  0.0111  0.4538
13854TIP3    H262978   0.113   1.087  17.306 -1.0011  0.0519 -1.0393
13855TIP3   OH262979   1.411   2.037   0.256  0.8432  0.0202  0.5673
13855TIP3    H162980   1.434   1.944   0.246  1.2260  0.1200  0.5031
13855TIP3    H262981   1.385   2.064   0.168 -0.1955 -0.2616  0.7635
13856TIP3   OH262982   4.996   1.832   5.571 -0.4173 -0.0816 -0.0126
13856TIP3    H162983   5.056   1.842   5.496  0.6722 -1.0374  0.6935
13856TIP3    H262984   4.986   1.738   5.581  0.4707 -0.0308  1.7959
13857TIP3   OH262985   3.833   5.764   1.632  0.2876  0.6841 -0.0386
13857TIP3    H162986   3.923   5.782   1.661  0.1099 -0.0553  1.0099
13857TIP3    H262987   3.835   5.674   1.600 -0.3780  0.1748  1.2983
13858TIP3   OH262988   2.416   2.742  14.896 -0.0913  0.4724 -0.5730
13858TIP3    H162989   2.359   2.798  14.843  0.3040  0.6049 -0.8599
13858TIP3    H262990   2.390   2.759  14.986 -0.5878  0.4447 -0.7064
13859TIP3   OH262991   3.922   4.254   2.138  0.1224  0.4039 -1.2741
13859TIP3    H162992   3.904   4.319   2.206  2.3769  1.1515 -1.2979
13859TIP3    H262993   3.888   4.293   2.057 -2.1936 -0.3064 -0.7063
13860TIP3   OH262994   6.537   4.693  15.869  0.4983  0.2882  0.3038
13860TIP3    H162995   6.528   4.598  15.855  0.2768  0.5625 -1.5266
13860TIP3    H262996   6.494   4.708  15.953 -0.2724 -1.1065  0.1946
13861TIP3   OH262997   4.783   3.167  13.739 -0.6110  0.1829  0.2325
13861TIP3    H162998   4.877   3.169  13.753 -0.5051  1.9995 -0.4585
13861TIP3    H262999   4.767   3.085  13.692  0.6656 -0.0074  0.1026
13862TIP3   OH263000   4.917   4.022   3.960  0.0681 -0.2818  0.2832
13862TIP3    H163001   5.008   4.029   3.987 -0.0580  1.0073  0.4506
13862TIP3    H263002   4.867   4.051   4.036 -0.3846  1.1821 -0.5372
13863TIP3   OH263003   3.722   3.925  12.920 -0.2078  0.7265 -0.0862
13863TIP3    H163004   3.807   3.882  12.933 -0.2195  0.9545  0.7979
13863TIP3    H263005   3.711   3.981  12.997 -1.4779  0.1742  0.1620
13864TIP3   OH263006   0.739   6.311   2.583 -0.3970  0.6704  0.1445
13864TIP3    H163007   0.792   6.388   2.562 -1.1531  1.1837  0.1156
13864TIP3    H263008   0.670   6.343   2.640  1.1704 -0.5665  2.9505
13865TIP3   OH263009   0.118   4.588   2.342 -0.3997  0.2585 -0.3280
13865TIP3    H163010   0.121   4.605   2.248  0.8381  0.1616 -0.3244
13865TIP3    H263011   0.156   4.502   2.353 -1.3539 -0.1170  0.1997
13866TIP3   OH263012   6.710   3.562  12.365 -0.6296  0.0580  0.3636
13866TIP3    H163013   6.634   3.541  12.311  0.9847 -2.2980 -1.1938
13866TIP3    H263014   6.684   3.540  12.454 -1.9375 -0.1691 -0.0568
13867TIP3   OH263015   5.046   4.132  16.135 -0.3636 -0.1919 -0.6850
13867TIP3    H163016   5.003   4.217  16.144 -1.1926 -0.7064  0.5624
13867TIP3    H263017   5.093   4.121  16.218  0.9499 -0.3249 -1.4184
13868TIP3   OH263018   0.262   2.753   0.705  0.5000 -0.0986  0.1138
13868TIP3    H163019   0.358   2.758   0.697  0.5655 -1.9049 -0.7290
13868TIP3    H263020   0.245   2.661   0.728 -1.1175 -0.2067 -1.3866
13869TIP3   OH263021   1.805   2.393  13.468 -0.4975  0.3564 -0.0902
13869TIP3    H163022   1.859   2.315  13.468 -1.2340 -0.1930 -1.8888
13869TIP3    H263023   1.838   2.446  13.396 -0.5845  1.3223  0.5453
13870TIP3   OH263024   1.798   2.360  12.886 -0.1597 -0.0310 -0.1878
13870TIP3    H163025   1.742   2.432  12.913  0.1105  0.4901 -0.9956
13870TIP3    H263026   1.741   2.283  12.888 -1.1934  0.6326 -1.9346
13871TIP3   OH263027   5.401   2.850   2.723  0.6928  0.1296  0.2623
13871TIP3    H163028   5.411   2.919   2.658 -0.6890 -1.7263 -2.0908
13871TIP3    H263029   5.317   2.810   2.702 -0.0585 -0.2803  3.5768
13872TIP3   OH263030   4.031   5.069   3.884 -0.2008 -0.3327  0.0787
13872TIP3    H163031   4.057   5.059   3.975  0.4062 -1.2400 -0.1743
13872TIP3    H263032   4.043   4.982   3.846 -0.2278  0.0846 -0.9242
13873TIP3   OH263033   3.878   0.705   1.260 -0.1717  0.0968 -0.4636
13873TIP3    H163034   3.871   0.796   1.231  1.0619  0.7038  1.0103
13873TIP3    H263035   3.909   0.711   1.350  0.8209 -1.7965 -0.6327
13874TIP3   OH263036   4.975   1.332   2.289  0.0337 -0.1409 -0.2005
13874TIP3    H163037   4.950   1.246   2.255  2.3580 -0.6528 -0.7697
13874TIP3    H263038   5.001   1.382   2.211 -1.1169  1.0718  0.1374
13875TIP3   OH263039   5.918   0.577   1.397  0.4798  0.0377 -0.0767
13875TIP3    H163040   5.976   0.511   1.435  0.8839  0.7563  0.5864
13875TIP3    H263041   5.922   0.562   1.303  0.0935 -1.2664  0.0857
13876TIP3   OH263042   1.541   3.138   3.410 -0.1038  0.2257  0.4116
13876TIP3    H163043   1.504   3.122   3.496  1.7554 -1.3494  0.9849
13876TIP3    H263044   1.558   3.050   3.375 -0.2498  0.8466 -1.3119
13877TIP3   OH263045   2.265   1.286  13.710  0.7286 -0.2674 -0.2160
13877TIP3    H163046   2.257   1.277  13.615  1.9772  0.3691 -0.4036
13877TIP3    H263047   2.175   1.287  13.741  0.3069 -1.5991 -1.2732
13878TIP3   OH263048   5.011   0.955  13.732 -0.4435  0.0541 -0.7048
13878TIP3    H163049   4.987   0.953  13.825 -1.4458 -0.5223 -0.9545
13878TIP3    H263050   5.076   1.024  13.725  0.5965 -0.7329  0.6477
13879TIP3   OH263051   3.849   1.507   4.357  0.0868  0.3762  0.0782
13879TIP3    H163052   3.847   1.438   4.291 -0.4831  0.2864  0.1799
13879TIP3    H263053   3.942   1.525   4.370  0.3020 -1.1399  0.8462
13880TIP3   OH263054   5.785   2.949  11.984 -0.3400  0.2625 -0.4016
13880TIP3    H163055   5.830   2.974  11.903  0.7121 -0.1464  0.0287
13880TIP3    H263056   5.853   2.906  12.036 -1.2875 -0.5299  0.2149
13881TIP3   OH263057   1.613   6.258   5.110  0.1987 -0.3643  0.0005
13881TIP3    H163058   1.613   6.334   5.052 -0.2570 -0.1779  0.2393
13881TIP3    H263059   1.586   6.185   5.055  2.2669 -0.7074 -0.6554
13882TIP3   OH263060   5.189   0.299  11.793 -0.0135  0.1190  0.3048
13882TIP3    H163061   5.284   0.294  11.799 -0.0568 -0.0592  0.9304
13882TIP3    H263062   5.159   0.279  11.881 -0.5492  2.8253  0.8211
13883TIP3   OH263063   5.542   0.271  11.435  0.4453 -0.3066 -0.1337
13883TIP3    H163064   5.516   0.361  11.416  1.9802 -0.0497 -1.2492
13883TIP3    H263065   5.463   0.220  11.420 -0.2475  0.7578 -0.2491
13884TIP3   OH263066   6.579   2.812   0.182  0.0882 -0.0217  0.7031
13884TIP3    H163067   6.623   2.818   0.097 -1.3452  0.5214 -0.0337
13884TIP3    H263068   6.594   2.722   0.210 -0.2374 -0.5095 -0.5955
13885TIP3   OH263069   2.366   3.849  13.388  0.3363  0.2363 -0.5617
13885TIP3    H163070   2.425   3.923  13.379  0.5481  0.7075  3.2679
13885TIP3    H263071   2.422   3.778  13.420 -0.1903 -1.1228 -2.4948
13886TIP3   OH263072   1.345   5.980  17.078  0.1003 -0.0855 -0.0070
13886TIP3    H163073   1.377   5.903  17.126 -0.6854 -0.5650 -0.2368
13886TIP3    H263074   1.389   5.975  16.993 -0.5046 -0.6960 -0.2914
13887TIP3   OH263075   1.005   0.176   4.521 -0.0249 -0.4326  0.4378
13887TIP3    H163076   0.950   0.131   4.585 -0.4273 -0.2357  0.2346
13887TIP3    H263077   1.002   0.121   4.443 -2.4076  1.0385 -0.6225
13888TIP3   OH263078   4.538   0.670  13.942 -0.0137 -0.1725 -0.4217
13888TIP3    H163079   4.542   0.690  13.848 -0.3130 -1.4992 -0.7392
13888TIP3    H263080   4.617   0.618  13.959 -1.3738 -2.4806 -0.6376
13889TIP3   OH263081   2.755   5.919   2.298 -0.0930  0.0326  0.0108
13889TIP3    H163082   2.666   5.898   2.327  0.0530  0.7340  1.0069
13889TIP3    H263083   2.752   6.013   2.280  0.2236 -0.1036 -0.8335
13890TIP3   OH263084   0.278   0.457   0.791 -0.7397  0.1991 -0.5903
13890TIP3    H163085   0.217   0.449   0.864 -1.2367  0.7215 -0.9400
13890TIP3    H263086   0.319   0.543   0.804 -1.4009  0.6430 -1.3449
13891TIP3   OH263087   2.328   3.299   3.936 -0.7956  0.5139 -0.5423
13891TIP3    H163088   2.310   3.315   3.843  0.3394 -0.3464 -0.9463
13891TIP3    H263089   2.423   3.310   3.943 -0.8442  0.3159  0.4642
13892TIP3   OH263090   1.237   2.766  13.532  0.3266 -0.0240 -0.3528
13892TIP3    H163091   1.252   2.811  13.449  0.6997  0.9183  0.2126
13892TIP3    H263092   1.323   2.763  13.574  0.2451 -0.9784 -0.2201
13893TIP3   OH263093   4.995   3.594   0.950 -0.3328  0.3388  0.0822
13893TIP3    H163094   5.020   3.584   1.041 -0.4006 -1.2751 -0.0548
13893TIP3    H263095   4.990   3.505   0.916 -1.3399  0.8540 -1.2179
13894TIP3   OH263096   0.374   0.054   5.666 -0.3876 -0.3479 -0.3651
13894TIP3    H163097   0.316   0.130   5.674 -1.3982 -1.1234 -0.1883
13894TIP3    H263098   0.397   0.032   5.756  0.9831  0.5325 -0.4692
13895TIP3   OH263099   3.941   4.306  11.353  0.3457  0.3351  0.8183
13895TIP3    H163100   3.969   4.286  11.442  0.8550  0.6513  0.7306
13895TIP3    H263101   3.905   4.395  11.359 -0.8334 -0.1307  0.9678
13896TIP3   OH263102   2.357   2.300   3.748 -0.1700  0.4041  0.1663
13896TIP3    H163103   2.337   2.347   3.829  1.5689  2.5146 -0.5329
13896TIP3    H263104   2.451   2.286   3.751 -0.3357 -1.1236 -0.6968
13897TIP3   OH263105   6.681   4.645   0.067  0.2362 -0.8056 -0.3121
13897TIP3    H163106   6.644   4.622   0.152 -1.5671  2.1203 -0.1565
13897TIP3    H263107   6.775   4.655   0.083  0.2648 -2.5061  0.7537
13898TIP3   OH263108   2.365   4.989   6.003  0.8548 -0.1080 -0.0831
13898TIP3    H163109   2.402   5.051   5.940  1.2022 -0.6373 -0.4083
13898TIP3    H263110   2.279   5.026   6.025  1.9617  1.6668  1.4686
13899TIP3   OH263111   1.023   3.622   6.413  0.6203  0.2305  0.1215
13899TIP3    H163112   0.969   3.547   6.390  2.4187 -1.2966  0.6200
13899TIP3    H263113   0.982   3.696   6.368 -1.1739 -1.0332 -0.4354
13900TIP3   OH263114   3.512   4.276  17.080 -0.4196 -0.0060  0.2048
13900TIP3    H163115   3.578   4.325  17.130 -1.8542  1.0889  1.1099
13900TIP3    H263116   3.525   4.185  17.106  1.9499 -0.0896 -1.0867
13901TIP3   OH263117   4.484   5.364  10.906  0.2668  0.2486 -0.0138
13901TIP3    H163118   4.453   5.297  10.967 -1.5463  0.5873 -0.4836
13901TIP3    H263119   4.404   5.398  10.866  1.1448  2.4762 -0.0282
13902TIP3   OH263120   2.541   2.360  16.980 -0.1620  0.2346  0.1431
13902TIP3    H163121   2.602   2.310  17.035 -1.3961  1.7460  3.0942
13902TIP3    H263122   2.461   2.307  16.979  0.1112 -0.1838 -0.9747
13903TIP3   OH263123   6.566   4.566   4.118 -0.3084 -0.9857 -0.6946
13903TIP3    H163124   6.498   4.536   4.179 -0.0419 -0.1028  0.0569
13903TIP3    H263125   6.642   4.582   4.173  0.5750 -2.1030 -1.5511
13904TIP3   OH263126   5.496   2.953   5.151 -0.6882 -0.5488  0.0616
13904TIP3    H163127   5.495   2.942   5.246 -0.2804 -0.3708  0.0867
13904TIP3    H263128   5.576   2.911   5.123 -0.6840 -0.3813 -0.1786
13905TIP3   OH263129   4.422   5.147   4.608  0.2522  0.0026  0.2623
13905TIP3    H163130   4.353   5.095   4.567 -1.0337  1.3039  0.6819
13905TIP3    H263131   4.422   5.119   4.700  0.6613 -0.3839  0.1447
13906TIP3   OH263132   6.676   2.999   0.627 -0.1926 -0.6097  0.3930
13906TIP3    H163133   6.733   3.035   0.559 -1.4092 -0.0296 -0.3629
13906TIP3    H263134   6.683   3.061   0.699 -0.7798  0.1295 -0.1636
13907TIP3   OH263135   4.568   0.957   2.696  0.1960 -0.1333 -0.0148
13907TIP3    H163136   4.495   0.973   2.635  0.3476 -2.4951 -0.9265
13907TIP3    H263137   4.622   0.892   2.651  1.2476 -0.6664  1.9468
13908TIP3   OH263138   0.839   4.709   1.288  0.4219 -0.1351  0.3050
13908TIP3    H163139   0.778   4.637   1.279  0.5478 -0.1171 -0.9202
13908TIP3    H263140   0.921   4.668   1.317  1.1130 -0.8544 -2.3650
13909TIP3   OH263141   6.315   1.081  12.881  0.0653 -0.3685  0.5245
13909TIP3    H163142   6.342   1.121  12.799  1.6467 -1.7852  0.3198
13909TIP3    H263143   6.238   1.028  12.859  0.3165 -0.5198  0.0171
13910TIP3   OH263144   2.333   2.753  11.433 -0.4760 -0.2329  0.0186
13910TIP3    H163145   2.247   2.733  11.395 -0.5208  0.3228 -0.1887
13910TIP3    H263146   2.394   2.699  11.383 -0.3766  1.4055 -1.7536
13911TIP3   OH263147   4.451   1.006   4.267  0.2512 -0.1192  0.1376
13911TIP3    H163148   4.398   0.968   4.338 -0.6090 -1.1104 -0.9873
13911TIP3    H263149   4.399   0.991   4.188  1.7467 -0.1771 -0.8764
13912TIP3   OH263150   1.305   1.340  12.663  0.3512  0.5966  0.2398
13912TIP3    H163151   1.234   1.276  12.667  1.6790 -0.9581 -0.0234
13912TIP3    H263152   1.285   1.393  12.586  0.4766 -1.1177 -1.0319
13913TIP3   OH263153   0.279   4.431  14.818 -0.0617  0.3946  0.3418
13913TIP3    H163154   0.368   4.400  14.830  0.1657  1.3157  1.1021
13913TIP3    H263155   0.260   4.413  14.726  1.2281  1.0226 -0.0614
13914TIP3   OH263156   6.603   0.805  16.321  0.5607  0.1190 -0.2950
13914TIP3    H163157   6.665   0.789  16.392 -1.6822  2.3747  2.4149
13914TIP3    H263158   6.556   0.722  16.312 -0.0128  0.1214  1.9372
13915TIP3   OH263159   2.796   3.358   0.453  0.2094  0.0757  0.1119
13915TIP3    H163160   2.892   3.360   0.454  0.2372  2.4909  1.8382
13915TIP3    H263161   2.771   3.400   0.535 -2.3354 -0.1814 -0.4634
13916TIP3   OH263162   6.733   3.358  13.072  0.0120 -0.1126  0.4264
13916TIP3    H163163   6.710   3.310  13.151 -0.1216 -1.5899 -0.4672
13916TIP3    H263164   6.700   3.304  13.001  2.0751  0.0386 -0.7329
13917TIP3   OH263165   4.132   2.505  15.971 -0.0850  0.0467  0.3057
13917TIP3    H163166   4.154   2.525  16.062  0.8444 -0.6659  0.2462
13917TIP3    H263167   4.087   2.584  15.940  2.0341  1.4492  0.5626
13918TIP3   OH263168   2.559   6.697   5.159 -0.1075  0.0072 -0.4011
13918TIP3    H163169   2.630   6.730   5.104  0.7136 -1.3412 -0.1965
13918TIP3    H263170   2.546   6.765   5.225 -0.1000  0.9715 -1.3633
13919TIP3   OH263171   6.557   3.050   2.128  0.3430  0.2116  0.1167
13919TIP3    H163172   6.528   2.989   2.197  0.9744  0.7631  0.8785
13919TIP3    H263173   6.544   3.136   2.166 -0.5261  0.5705 -0.9538
13920TIP3   OH263174   3.974   2.269   3.475  0.2734  0.6930  0.4214
13920TIP3    H163175   3.984   2.248   3.568  0.1440 -0.3551  0.2109
13920TIP3    H263176   3.916   2.201   3.441 -0.4919  1.6460 -0.2245
13921TIP3   OH263177   3.236   6.739  12.086 -0.1407 -1.1035 -0.0520
13921TIP3    H163178   3.255   6.669  12.148  2.4425 -0.5387 -0.0815
13921TIP3    H263179   3.174   6.795  12.131 -0.1197 -1.9504  1.0784
13922TIP3   OH263180   0.820   0.871  12.639  0.4713  0.5215  0.1729
13922TIP3    H163181   0.907   0.836  12.657  0.6432  0.2361 -1.1405
13922TIP3    H263182   0.784   0.813  12.572 -1.3210 -0.2349  1.7204
13923TIP3   OH263183   0.643   2.707  13.393 -0.2997  0.7534  0.4027
13923TIP3    H163184   0.705   2.635  13.401  1.9158  2.6346  1.4457
13923TIP3    H263185   0.590   2.702  13.472 -0.1345  0.3099  0.4898
13924TIP3   OH263186   6.578   1.032   5.980 -0.0380  0.2566 -0.4822
13924TIP3    H163187   6.521   1.086   6.034  0.0335 -1.9227  1.9373
13924TIP3    H263188   6.649   1.092   5.953 -0.3566  1.5754  1.4248
13925TIP3   OH263189   5.297   3.122  12.001 -0.2237  0.6054  0.2822
13925TIP3    H163190   5.323   3.034  12.027 -2.2184  0.3013  1.5083
13925TIP3    H263191   5.347   3.180  12.058  1.3394  0.3159 -0.7551
13926TIP3   OH263192   5.163   3.071  14.887  0.0731 -0.5216  0.1213
13926TIP3    H163193   5.200   2.989  14.919  2.2433 -0.0750 -1.0546
13926TIP3    H263194   5.108   3.045  14.813 -0.4792 -1.0291  0.6967
13927TIP3   OH263195   0.060   2.127  16.492  0.7777  0.1360  0.2679
13927TIP3    H163196   0.097   2.114  16.580  2.2217 -2.8390 -0.6206
13927TIP3    H263197   0.030   2.040  16.466 -1.2527  1.2888 -1.5490
13928TIP3   OH263198   4.800   1.127  17.052  0.0649 -0.3927  0.0379
13928TIP3    H163199   4.757   1.063  17.109 -0.8895 -0.9308 -1.2525
13928TIP3    H263200   4.885   1.087  17.031  0.2615 -0.3637  0.7528
13929TIP3   OH263201   3.507   0.532   4.710 -0.1058  0.5509 -0.4095
13929TIP3    H163202   3.572   0.564   4.648 -1.0861  4.1040  0.1927
13929TIP3    H263203   3.527   0.578   4.792 -2.3498  0.4983  0.2358
13930TIP3   OH263204   6.237   2.559   6.583 -0.6471 -0.8349 -0.0574
13930TIP3    H163205   6.330   2.569   6.603 -1.2048  0.4338  2.2988
13930TIP3    H263206   6.227   2.595   6.495  1.2248 -2.0137 -0.8115
13931TIP3   OH263207   3.294   2.047  16.766 -0.7514 -0.6638  0.0534
13931TIP3    H163208   3.208   2.082  16.743 -0.0046  1.9112  0.7372
13931TIP3    H263209   3.345   2.125  16.790  1.4962 -2.1915  0.5439
13932TIP3   OH263210   1.713   5.675  15.420  0.0219  0.0593  0.1477
13932TIP3    H163211   1.802   5.673  15.454  0.3118 -1.0836 -0.6210
13932TIP3    H263212   1.661   5.713  15.491  1.2746  1.8380  0.1865
13933TIP3   OH263213   5.697   2.855   1.519 -0.3506 -0.2455  0.3960
13933TIP3    H163214   5.621   2.809   1.483  1.1053 -2.0062 -0.6298
13933TIP3    H263215   5.740   2.790   1.575  1.3501  0.0498 -0.4927
13934TIP3   OH263216   5.211   4.876   3.595  0.0274 -0.5629 -0.2341
13934TIP3    H163217   5.198   4.840   3.507  2.1608 -0.2193 -0.7631
13934TIP3    H263218   5.130   4.923   3.614 -0.7163 -1.1446 -1.7720
13935TIP3   OH263219   3.118   4.621  12.150 -0.0406  0.3235  0.5937
13935TIP3    H163220   3.175   4.592  12.221  1.0744  1.4888  0.2203
13935TIP3    H263221   3.055   4.550  12.139  1.4843 -1.1547  0.8890
13936TIP3   OH263222   2.819   3.816  13.732 -0.2114 -0.1929 -0.1670
13936TIP3    H163223   2.737   3.816  13.781  0.1372 -0.1962  0.4238
13936TIP3    H263224   2.817   3.897  13.681 -1.2803 -0.9305 -1.3605
13937TIP3   OH263225   4.803   4.233   2.293 -0.9462  0.3020  0.0101
13937TIP3    H163226   4.859   4.307   2.269 -1.3762  0.1458 -1.6007
13937TIP3    H263227   4.804   4.232   2.389 -1.9295  3.1679  0.1414
13938TIP3   OH263228   2.694   3.810   0.055 -0.1994 -0.4514  0.5722
13938TIP3    H163229   2.772   3.834   0.006 -0.1539  0.5180  1.0735
13938TIP3    H263230   2.672   3.890   0.104 -2.7950  0.0871 -1.2612
13939TIP3   OH263231   3.506   4.570   5.654  0.2499  0.3293  0.0822
13939TIP3    H163232   3.497   4.503   5.721  0.6035  2.0041  1.8803
13939TIP3    H263233   3.439   4.635   5.675  0.8709  1.2699 -0.7202
13940TIP3   OH263234   6.441   3.564   4.396 -0.4711  0.1820  0.2558
13940TIP3    H163235   6.492   3.525   4.325  0.5217  0.3254  0.8864
13940TIP3    H263236   6.362   3.598   4.352  1.5008  3.1244 -1.3864
13941TIP3   OH263237   5.541   3.961   2.579 -0.3911  0.0912  0.1620
13941TIP3    H163238   5.568   3.986   2.490 -0.4096  2.3107  0.7193
13941TIP3    H263239   5.589   4.021   2.636 -0.2459 -1.4203  1.6896
13942TIP3   OH263240   3.386   0.257   5.330  0.1004 -0.0315 -0.0239
13942TIP3    H163241   3.481   0.249   5.329  0.1039  0.0487 -1.4909
13942TIP3    H263242   3.356   0.182   5.381  0.9904  0.7035  1.6561
13943TIP3   OH263243   6.094   4.316   0.051 -0.2668 -0.2608  0.2722
13943TIP3    H163244   6.060   4.405   0.056  1.5298  0.7558 -2.8137
13943TIP3    H263245   6.155   4.310   0.125  0.0829  1.3362  0.1474
13944TIP3   OH263246   4.732   5.313   3.137 -0.4648 -0.4346  0.1333
13944TIP3    H163247   4.712   5.279   3.224 -0.9843 -1.9833 -0.5685
13944TIP3    H263248   4.802   5.257   3.105 -1.5448 -1.0915 -1.1661
13945TIP3   OH263249   6.484   0.610  13.675 -0.4551  0.4585  0.2114
13945TIP3    H163250   6.493   0.698  13.711  0.5185 -0.7792  3.4187
13945TIP3    H263251   6.540   0.610  13.598  0.5173  2.3378  0.8503
13946TIP3   OH263252   4.336   2.626   5.584  0.4246  0.0905 -0.1630
13946TIP3    H163253   4.391   2.700   5.609  0.8892 -0.6968  1.2336
13946TIP3    H263254   4.317   2.581   5.666 -0.3186 -1.0222 -0.9155
13947TIP3   OH263255   6.490   6.264  15.243  0.3222 -0.4404  0.3939
13947TIP3    H163256   6.472   6.312  15.324 -1.0783 -2.5617  1.4049
13947TIP3    H263257   6.504   6.333  15.178 -1.4569  1.3548  1.7888
13948TIP3   OH263258   4.922   0.747   6.090 -0.0386  0.4091  0.0852
13948TIP3    H163259   4.913   0.654   6.110 -1.6121  0.8873  1.8060
13948TIP3    H263260   4.987   0.779   6.153 -0.9176  0.8403  0.7795
13949TIP3   OH263261   5.807   1.116  14.032  0.0810 -0.6719  0.0889
13949TIP3    H163262   5.797   1.033  13.984  0.2907 -0.9763  0.5561
13949TIP3    H263263   5.752   1.178  13.985 -0.2933 -1.1455 -0.1105
13950TIP3   OH263264   5.468   3.520   2.282 -0.5722 -0.2628 -0.2797
13950TIP3    H163265   5.443   3.428   2.283  1.4690 -0.8903 -0.8356
13950TIP3    H263266   5.467   3.545   2.190  2.3421 -0.8697 -0.5944
13951TIP3   OH263267   1.882   3.761   2.472 -0.5042  0.1514  0.2308
13951TIP3    H163268   1.821   3.725   2.536  0.1484 -0.0361  0.7532
13951TIP3    H263269   1.951   3.801   2.524  0.9323 -1.4843 -0.3020
13952TIP3   OH263270   1.381   4.820  16.708 -0.0855  0.8385  0.3622
13952TIP3    H163271   1.431   4.792  16.785 -0.3168  0.3562  0.3435
13952TIP3    H263272   1.440   4.804  16.634 -1.2870 -2.6738 -0.0160
13953TIP3   OH263273   5.980   5.271   5.054 -0.2552 -0.4431  0.3462
13953TIP3    H163274   6.030   5.290   4.975 -1.3923 -0.3275 -0.3684
13953TIP3    H263275   5.890   5.299   5.034 -0.4440  0.2325  1.9204
13954TIP3   OH263276   0.108   3.041   2.334 -0.1919 -0.1603 -0.7585
13954TIP3    H163277   0.019   3.029   2.366  0.2427 -1.0590  0.1347
13954TIP3    H263278   0.118   3.136   2.328 -0.6641 -0.0007  0.6934
13955TIP3   OH263279   1.136   0.047  12.287  0.3832  0.0938  0.0436
13955TIP3    H163280   1.190  -0.032  12.296 -0.6670 -0.7068 -0.4801
13955TIP3    H263281   1.164   0.086  12.203  0.2200 -0.2639 -0.1783
13956TIP3   OH263282   5.129   4.147   0.081 -0.4164 -0.0687  0.1283
13956TIP3    H163283   5.225   4.150   0.081 -0.3621 -1.0467 -0.5066
13956TIP3    H263284   5.102   4.224   0.030 -0.0787  1.5468  2.2733
13957TIP3   OH263285   6.663   0.120   4.956  0.0427  0.0703  0.2545
13957TIP3    H163286   6.655   0.085   4.868 -0.2051 -0.8438  0.6292
13957TIP3    H263287   6.686   0.212   4.943 -0.9728  0.2047 -0.7641
13958TIP3   OH263288   4.714   5.290  16.811  0.1494 -0.3009 -0.0421
13958TIP3    H163289   4.651   5.294  16.883  0.0269 -0.5316 -0.1324
13958TIP3    H263290   4.670   5.236  16.745  1.3585 -2.5307  0.8342
13959TIP3   OH263291   6.260   3.348  12.855 -0.4609  0.0589  0.4842
13959TIP3    H163292   6.169   3.341  12.826 -0.5424  1.0987  0.4434
13959TIP3    H263293   6.255   3.399  12.936  0.0119 -0.6532  0.9734
13960TIP3   OH263294   4.708   3.221  16.530 -0.6233  0.0656 -0.2815
13960TIP3    H163295   4.789   3.233  16.580  0.7161 -0.9811 -2.0895
13960TIP3    H263296   4.642   3.269  16.580  1.4310  2.4133  0.3962
13961TIP3   OH263297   5.596   6.355  13.474 -0.0843  0.1016 -0.8799
13961TIP3    H163298   5.501   6.341  13.471  0.2478 -2.5595 -1.4841
13961TIP3    H263299   5.628   6.317  13.393  1.7405 -1.6801  0.5708
13962TIP3   OH263300   0.709   3.007   3.961  0.1618  0.3887  0.1958
13962TIP3    H163301   0.773   2.948   4.001  0.5159  1.3054  1.0056
13962TIP3    H263302   0.628   2.957   3.959  0.4977 -0.1844  0.7305
13963TIP3   OH263303   6.110   0.793   2.205 -0.0309 -0.3819 -0.0474
13963TIP3    H163304   6.111   0.807   2.110 -1.0310  0.2577  0.0142
13963TIP3    H263305   6.057   0.715   2.218  0.9922 -1.0899 -0.0689
13964TIP3   OH263306   6.108   4.059   0.338 -0.5157 -0.3287 -0.1042
13964TIP3    H163307   6.179   4.086   0.279 -0.9301  2.3230  0.4867
13964TIP3    H263308   6.153   4.012   0.409  0.4538 -0.0382 -0.5039
13965TIP3   OH263309   5.459   1.659   1.992 -0.0021  0.4393  0.0577
13965TIP3    H163310   5.453   1.622   2.081 -1.8193 -0.2563 -0.3232
13965TIP3    H263311   5.553   1.666   1.976  0.3645 -0.2936  1.6907
13966TIP3   OH263312   4.023   1.209   2.987  0.0555  0.5688  0.2153
13966TIP3    H163313   4.047   1.302   2.995 -1.0642  0.7720  1.6645
13966TIP3    H263314   4.072   1.178   2.911  4.4847  1.0653  2.5204
13967TIP3   OH263315   6.702   0.255   2.918  0.1032 -0.6673  0.0840
13967TIP3    H163316   6.683   0.348   2.903  0.7998 -0.3547  1.0327
13967TIP3    H263317   6.760   0.230   2.845 -0.7022 -0.5855 -0.6076
13968TIP3   OH263318   2.484   3.050   0.326 -0.0157 -0.2992 -0.0193
13968TIP3    H163319   2.571   3.088   0.315  0.1334 -1.2191 -2.3291
13968TIP3    H263320   2.424   3.120   0.298  0.0622 -0.3161 -0.2276
13969TIP3   OH263321   4.427   3.239  16.097 -0.3540  0.5710  0.0835
13969TIP3    H163322   4.395   3.183  16.168 -1.2844  2.0455  0.8826
13969TIP3    H263323   4.400   3.195  16.017 -1.3660  0.0364  0.6997
13970TIP3   OH263324   1.059   3.847  13.235 -0.1528  0.1929 -0.6802
13970TIP3    H163325   1.086   3.842  13.144 -0.5668  1.9674 -0.9416
13970TIP3    H263326   0.989   3.782  13.243  1.1555 -1.3114 -1.1150
13971TIP3   OH263327   5.144   2.820  15.481  0.2706 -0.2654 -0.2534
13971TIP3    H163328   5.236   2.800  15.467  0.3497  0.4251 -0.8009
13971TIP3    H263329   5.142   2.914  15.501 -0.3465 -0.1543 -0.7800
13972TIP3   OH263330   1.665   1.387   6.750 -0.2962  0.1524  0.5891
13972TIP3    H163331   1.749   1.424   6.722 -0.7826  1.4970  0.8135
13972TIP3    H263332   1.674   1.378   6.845 -0.9676  1.9374  0.8671
13973TIP3   OH263333   1.138   2.432   0.965  0.5861 -0.6271  0.1587
13973TIP3    H163334   1.163   2.342   0.948 -2.5269 -1.1346 -3.1916
13973TIP3    H263335   1.192   2.484   0.905 -0.5122 -0.8257 -1.0536
13974TIP3   OH263336   2.357   3.660   6.027  0.2438 -0.6044 -0.6191
13974TIP3    H163337   2.357   3.610   6.109  1.6353 -0.5397 -0.5680
13974TIP3    H263338   2.264   3.674   6.008 -0.0926 -0.2200  1.1763
13975TIP3   OH263339   1.111   6.051  17.311  0.3241  0.0853  0.8036
13975TIP3    H163340   1.118   5.977  17.251  1.6260  1.1150 -0.3741
13975TIP3    H263341   1.151   6.019  17.392 -0.7590 -1.0672  0.9089
13976TIP3   OH263342   5.513   2.501  15.444  0.2918 -0.3415 -0.0464
13976TIP3    H163343   5.499   2.524  15.353 -1.1694 -0.5839  0.0883
13976TIP3    H263344   5.560   2.417  15.441 -0.0277 -0.5043 -0.5727
13977TIP3   OH263345   3.389   5.466  13.966  0.1246 -0.1195 -0.3310
13977TIP3    H163346   3.442   5.475  13.887 -0.0531 -0.9826 -0.5599
13977TIP3    H263347   3.305   5.432  13.935 -0.8495  1.9011 -0.0736
13978TIP3   OH263348   4.369   6.555  16.554  0.4253 -0.3435 -0.0661
13978TIP3    H163349   4.330   6.570  16.640 -1.1909  3.1404 -1.2334
13978TIP3    H263350   4.463   6.565  16.568  0.0925  1.5521  1.1354
13979TIP3   OH263351   4.059   0.450   1.203  0.0719  0.7129  0.1154
13979TIP3    H163352   4.128   0.514   1.219  0.7310 -0.0499  0.3940
13979TIP3    H263353   4.084   0.374   1.255 -0.2548 -0.0754 -0.8482
13980TIP3   OH263354   4.011   5.703   3.370  0.9311 -0.1839  0.3211
13980TIP3    H163355   4.038   5.794   3.365  0.2894 -0.0298 -0.7691
13980TIP3    H263356   4.092   5.653   3.368  1.2168  0.2679 -2.4680
13981TIP3   OH263357   3.978   0.537   2.496  0.5093 -0.1122  0.5607
13981TIP3    H163358   4.005   0.447   2.478  2.6493  0.5247  0.2802
13981TIP3    H263359   3.921   0.560   2.423  2.6406 -0.1945 -1.2381
13982TIP3   OH263360   4.692   0.487   0.452  0.0000 -0.1970  0.1618
13982TIP3    H163361   4.604   0.513   0.423  0.3760  0.7979 -0.1275
13982TIP3    H263362   4.702   0.398   0.420 -0.2701  0.2651 -1.2725
13983TIP3   OH263363   5.836   4.939  16.849  0.2660 -0.2900 -0.5584
13983TIP3    H163364   5.804   4.851  16.830  0.5719 -0.0885 -2.1623
13983TIP3    H263365   5.757   4.993  16.852  0.0177 -0.6916  1.0672
13984TIP3   OH263366   1.869   0.899   5.410 -0.4367  0.0039 -0.0373
13984TIP3    H163367   1.845   0.969   5.471  1.2485 -1.8831  3.0452
13984TIP3    H263368   1.876   0.820   5.465 -1.3077 -2.4437 -3.1604
13985TIP3   OH263369   4.628   2.536  14.254  0.1378 -0.5500  0.3378
13985TIP3    H163370   4.604   2.624  14.281  1.0077 -0.2279  0.1156
13985TIP3    H263371   4.692   2.550  14.184  1.3117 -1.3397  1.2198
13986TIP3   OH263372   2.687   1.727   5.270  0.5382  0.2084  0.7443
13986TIP3    H163373   2.699   1.633   5.261  0.6983  0.3284 -0.5555
13986TIP3    H263374   2.686   1.743   5.364 -0.4121 -1.2037  1.0058
13987TIP3   OH263375   2.139   0.943  15.017 -0.3761 -0.0665 -0.2687
13987TIP3    H163376   2.112   0.963  15.107  2.6287 -1.5043  1.0837
13987TIP3    H263377   2.185   1.022  14.988 -1.5008  0.4667 -0.6724
13988TIP3   OH263378   6.084   0.178   4.166 -0.0605 -0.4851 -0.3049
13988TIP3    H163379   6.051   0.186   4.256 -0.5760 -1.1658 -0.4192
13988TIP3    H263380   6.063   0.087   4.142  1.6311 -0.8483 -0.4973
13989TIP3   OH263381   1.205   0.469   2.530 -0.3580  0.1454  0.0584
13989TIP3    H163382   1.266   0.420   2.585  0.6766  0.6088 -0.6599
13989TIP3    H263383   1.226   0.442   2.441 -0.5102  1.0779 -0.2670
13990TIP3   OH263384   5.968   1.389  14.561  0.2324 -0.0461  0.8984
13990TIP3    H163385   5.969   1.344  14.477  0.4834  1.5431  0.0108
13990TIP3    H263386   5.877   1.381  14.592  0.3643 -1.4704  0.9715
13991TIP3   OH263387   0.771   3.059  14.660 -0.2155 -0.3039  0.0145
13991TIP3    H163388   0.775   3.127  14.727 -1.0535  1.3577 -1.5494
13991TIP3    H263389   0.681   3.027  14.662  0.1307 -1.3010  0.6286
13992TIP3   OH263390   6.565   6.335  13.084  0.0755 -0.3124  0.5362
13992TIP3    H163391   6.642   6.289  13.118  0.3265 -0.6474 -0.4361
13992TIP3    H263392   6.579   6.337  12.989 -0.2519  1.1886  0.4884
13993TIP3   OH263393   2.682   5.645  15.394  0.1954 -0.7439 -0.3850
13993TIP3    H163394   2.608   5.604  15.349  0.3797  0.5469 -1.9840
13993TIP3    H263395   2.744   5.665  15.324  1.3570 -0.3386  0.7184
13994TIP3   OH263396   3.976   6.093  13.152 -1.1643 -0.0513 -0.3465
13994TIP3    H163397   3.978   6.128  13.063 -3.3586 -0.2391 -0.5114
13994TIP3    H263398   3.907   6.141  13.197 -1.2829 -1.1508  0.7327
13995TIP3   OH263399   3.823   3.953   4.648  0.8654 -0.4410 -0.3778
13995TIP3    H163400   3.769   3.893   4.597  0.3653  0.6527 -1.1841
13995TIP3    H263401   3.900   3.902   4.672  1.6193 -0.7746 -3.0799
13996TIP3   OH263402   0.055   3.995  16.797 -0.1721  0.2873  0.2711
13996TIP3    H163403  -0.025   3.968  16.843 -0.3515  2.0566  1.1110
13996TIP3    H263404   0.124   3.986  16.863  0.0097  0.4586  0.1044
13997TIP3   OH263405   3.874   4.999   5.564  0.3681  0.0096  0.0169
13997TIP3    H163406   3.918   4.994   5.649  0.1812  0.1347  0.1209
13997TIP3    H263407   3.788   5.034   5.584 -0.2641 -1.4383 -0.0024
13998TIP3   OH263408   4.824   2.752  12.090  0.0604  0.2126 -0.0306
13998TIP3    H163409   4.811   2.827  12.148  0.7116  2.2455 -2.3402
13998TIP3    H263410   4.903   2.710  12.123  0.0396  0.8890  0.9390
13999TIP3   OH263411   5.286   1.677   3.420 -0.2705 -0.3372  0.0173
13999TIP3    H163412   5.343   1.715   3.486  1.4897  1.2490 -2.2306
13999TIP3    H263413   5.271   1.587   3.448  0.5272  0.2121  2.4052
14000TIP3   OH263414   3.888   6.283  12.243  0.1668  0.1302  0.3643
14000TIP3    H163415   3.979   6.278  12.215  0.0767 -1.6383  0.3047
14000TIP3    H263416   3.890   6.262  12.336 -0.1927  0.0366  0.3504
14001TIP3   OH263417   2.943   0.272   4.452 -1.3217 -0.2597  0.0535
14001TIP3    H163418   2.982   0.279   4.539  1.5397  0.5067 -1.1433
14001TIP3    H263419   3.001   0.213   4.404 -2.6826 -0.4869 -1.4043
14002TIP3   OH263420   6.600   0.436   1.622 -0.7732  0.6066  0.0981
14002TIP3    H163421   6.690   0.453   1.649 -0.6909  0.5603 -0.1494
14002TIP3    H263422   6.608   0.387   1.541 -1.0185  0.2314  0.2964
14003TIP3   OH263423   2.785   0.001  13.013 -0.3696  0.1868  0.2493
14003TIP3    H163424   2.809  -0.092  13.018 -0.7599  0.0428 -0.4120
14003TIP3    H263425   2.693   0.004  13.039 -0.6154  0.2574 -0.5854
14004TIP3   OH263426   2.042   1.797   1.854 -0.4046 -0.6906  0.1208
14004TIP3    H163427   1.976   1.766   1.916  0.9188 -0.4545  1.7255
14004TIP3    H263428   2.000   1.870   1.808 -0.8884  0.2993  2.0152
14005TIP3   OH263429   5.349   5.257  11.652  0.4271  0.0628 -0.4592
14005TIP3    H163430   5.290   5.229  11.722  1.1901 -0.7378 -0.1044
14005TIP3    H263431   5.299   5.245  11.572  0.1712 -0.8408 -0.1803
14006TIP3   OH263432   4.861   5.678  15.578 -0.2673  1.0267  0.1424
14006TIP3    H163433   4.907   5.744  15.630  1.1479 -0.2318  0.5306
14006TIP3    H263434   4.886   5.697  15.487 -0.2830  1.3137  0.1959
14007TIP3   OH263435   0.507   4.926  16.811  0.0997  0.9210 -0.1481
14007TIP3    H163436   0.528   4.946  16.719 -0.5861 -2.0578 -1.0787
14007TIP3    H263437   0.593   4.922  16.854  0.9551 -2.2012 -1.8251
14008TIP3   OH263438   0.583   2.099   2.052 -0.2284 -0.0822  0.5411
14008TIP3    H163439   0.629   2.047   1.986  0.1158  0.4955  0.3144
14008TIP3    H263440   0.549   2.034   2.114 -0.0389 -0.5912  0.1230
14009TIP3   OH263441   5.087   0.917   2.180  0.0421  0.5496  0.1453
14009TIP3    H163442   5.136   0.963   2.248  0.6673 -0.5122  0.4440
14009TIP3    H263443   5.109   0.825   2.193 -3.2471 -0.2111  1.2628
14010TIP3   OH263444   5.489   0.715  11.213 -0.3667  0.3316 -0.2264
14010TIP3    H163445   5.414   0.766  11.182  0.2284  1.9670  0.8693
14010TIP3    H263446   5.527   0.678  11.134 -2.3641 -0.6494 -0.8017
14011TIP3   OH263447   6.387   1.544   0.710  0.8000  0.6001 -0.0677
14011TIP3    H163448   6.447   1.522   0.781  1.6951  4.2977  0.4849
14011TIP3    H263449   6.311   1.583   0.753 -0.9318 -1.5815 -0.9449
14012TIP3   OH263450   2.099   4.298   1.001  0.0163  0.6028  0.0853
14012TIP3    H163451   2.113   4.388   1.030 -0.4699  0.4125  0.9671
14012TIP3    H263452   2.087   4.249   1.082 -0.4863 -0.1230 -0.4176
14013TIP3   OH263453   0.442   2.349   4.622 -0.3358  0.5906  0.5857
14013TIP3    H163454   0.447   2.394   4.538  2.5990  0.9775  0.8296
14013TIP3    H263455   0.481   2.263   4.606 -2.2317 -0.4098  1.0223
14014TIP3   OH263456   6.312   2.489  11.429  0.5025 -0.3983 -0.0193
14014TIP3    H163457   6.351   2.550  11.492 -0.9030  1.6438 -1.0349
14014TIP3    H263458   6.360   2.506  11.348 -1.8346  1.6339 -1.0958
14015TIP3   OH263459   2.281   3.989   4.280 -0.3117 -0.1164  0.0234
14015TIP3    H163460   2.362   3.941   4.262 -0.1545  0.4131 -0.7510
14015TIP3    H263461   2.213   3.939   4.235  0.1700  1.5585 -2.8654
14016TIP3   OH263462   3.536   4.387  10.842  0.6242 -0.7416 -0.2504
14016TIP3    H163463   3.473   4.335  10.891 -0.1142 -1.3230 -1.7618
14016TIP3    H263464   3.609   4.327  10.823  0.3255 -0.8970 -0.9427
14017TIP3   OH263465   0.360   5.082   1.978  0.1142 -0.3545  0.1056
14017TIP3    H163466   0.445   5.121   1.997  0.4960 -0.8838 -0.4739
14017TIP3    H263467   0.316   5.146   1.921  0.3721 -0.3740 -0.1112
14018TIP3   OH263468   6.350   0.906  10.977  0.4326 -0.5684  0.8670
14018TIP3    H163469   6.440   0.937  10.968 -0.0517  1.1588  1.6457
14018TIP3    H263470   6.301   0.955  10.911 -0.0492 -1.1222  0.7984
14019TIP3   OH263471   5.000   2.009   1.029 -0.1573  0.2973  0.5203
14019TIP3    H163472   5.040   2.012   0.942 -3.0926 -0.1031 -0.9759
14019TIP3    H263473   4.941   2.084   1.030 -1.0651 -0.4002  1.6997
14020TIP3   OH263474   1.531   1.243   4.221  0.1869 -0.0834  0.8464
14020TIP3    H163475   1.517   1.336   4.203  2.6277 -0.1162 -2.0247
14020TIP3    H263476   1.601   1.242   4.287  1.4718  0.2144 -0.4510
14021TIP3   OH263477   5.349   1.677  13.238  0.6117  0.1643  0.5449
14021TIP3    H163478   5.273   1.623  13.260 -1.7479  2.8625 -0.2729
14021TIP3    H263479   5.395   1.689  13.321 -1.2830  0.4276  1.6048
14022TIP3   OH263480   4.489   6.659   4.272 -0.5564  0.1711 -0.6423
14022TIP3    H163481   4.441   6.604   4.334  2.4265 -0.1874  1.5832
14022TIP3    H263482   4.492   6.606   4.192 -0.9679 -1.2734  0.2456
14023TIP3   OH263483   3.556   3.996   2.203  0.2603  0.6807  0.2021
14023TIP3    H163484   3.533   4.087   2.188 -0.9849  0.3759  0.1753
14023TIP3    H263485   3.472   3.949   2.204  0.9375 -0.7919 -1.9676
14024TIP3   OH263486   6.651   5.658   1.728  0.0343 -0.1350 -0.0011
14024TIP3    H163487   6.692   5.734   1.769  0.6849 -0.1255 -0.6495
14024TIP3    H263488   6.643   5.594   1.798 -0.9687  0.6933  0.6757
14025TIP3   OH263489   2.789   5.173  13.806 -0.3129  0.0419 -0.1880
14025TIP3    H163490   2.761   5.264  13.794 -2.0749 -0.5726 -0.9694
14025TIP3    H263491   2.712   5.120  13.785  0.2004 -1.6154  1.7758
14026TIP3   OH263492   1.954   2.299  15.075 -0.3295  0.3607 -0.5712
14026TIP3    H163493   1.947   2.357  14.998  1.2170  0.1431 -0.9005
14026TIP3    H263494   2.047   2.284  15.086 -0.6566 -2.1468 -0.5460
14027TIP3   OH263495   5.644   0.477  13.303 -0.0121 -0.0820 -0.1211
14027TIP3    H163496   5.678   0.477  13.392  0.1941 -0.0332 -0.1988
14027TIP3    H263497   5.721   0.480  13.248 -0.1664  0.7431 -0.2927
14028TIP3   OH263498   5.756   1.817   2.258 -0.3648  0.1035  0.1342
14028TIP3    H163499   5.706   1.759   2.316  0.4422 -1.7951 -0.9873
14028TIP3    H263500   5.843   1.778   2.254  0.5097  1.9513  0.0494
14029TIP3   OH263501   6.184   3.935  11.619  0.4533  0.2155 -0.4184
14029TIP3    H163502   6.165   3.873  11.689 -1.2369  0.7663 -0.3561
14029TIP3    H263503   6.167   3.887  11.538  0.5562  0.1580 -0.4057
14030TIP3   OH263504   4.625   5.245  15.258  0.1774 -0.1567  0.2927
14030TIP3    H163505   4.580   5.193  15.192 -0.4394 -1.8474  1.9542
14030TIP3    H263506   4.564   5.250  15.331  1.6281 -0.2426  1.5854
14031TIP3   OH263507   2.368   6.518  13.667  0.4638 -0.2144 -0.3416
14031TIP3    H163508   2.444   6.482  13.622  0.2118 -2.0101  0.5905
14031TIP3    H263509   2.395   6.605  13.695  1.5502 -0.1371 -1.5468
14032TIP3   OH263510   5.944   5.081  13.418 -0.0836  0.2554  0.0244
14032TIP3    H163511   5.953   5.024  13.342  0.7115  0.0085  0.2964
14032TIP3    H263512   6.032   5.086  13.455  0.4174  3.5621 -1.3193
14033TIP3   OH263513   4.792   5.264  17.288  0.1131  0.7772 -0.4053
14033TIP3    H163514   4.809   5.210  17.366  0.0421 -0.3266 -1.1373
14033TIP3    H263515   4.717   5.222  17.245 -0.4588  1.9403 -0.5649
14034TIP3   OH263516   4.642   2.016  12.240  0.3931 -0.5235  0.1494
14034TIP3    H163517   4.669   2.106  12.258  1.4745 -0.6245 -0.8502
14034TIP3    H263518   4.722   1.971  12.212 -0.4272 -1.3581 -1.0008
14035TIP3   OH263519   3.665   3.690  12.622  0.4140  0.7903  0.5451
14035TIP3    H163520   3.672   3.784  12.639 -0.3266  0.9497  0.0316
14035TIP3    H263521   3.579   3.666  12.656  0.8642  0.1522  1.2778
14036TIP3   OH263522   0.706   3.213   1.983 -0.2275  0.7924  0.4022
14036TIP3    H163523   0.727   3.254   1.898 -0.4909  0.1623  0.0263
14036TIP3    H263524   0.707   3.286   2.045  0.1495  1.2389 -0.1095
14037TIP3   OH263525   2.742   0.190  15.254 -0.2791  0.0044  0.3807
14037TIP3    H163526   2.698   0.108  15.232  2.2377 -1.4477  0.3923
14037TIP3    H263527   2.787   0.172  15.336 -0.2028  1.6538  0.7425
14038TIP3   OH263528   0.751   6.679   5.197  0.7292  0.3887 -0.1000
14038TIP3    H163529   0.693   6.605   5.214  1.2870  0.0171  0.2158
14038TIP3    H263530   0.794   6.657   5.114  1.0697  0.2440  0.1133
14039TIP3   OH263531   5.142   1.227  15.487  0.1764  0.3623  0.2619
14039TIP3    H163532   5.124   1.140  15.453 -1.6128  0.7678  0.0507
14039TIP3    H263533   5.177   1.212  15.575  1.5135 -0.5843 -0.4013
14040TIP3   OH263534   5.650   4.021   3.180 -0.0037 -0.1355 -0.1291
14040TIP3    H163535   5.624   3.951   3.120 -1.3205  0.7098 -0.5826
14040TIP3    H263536   5.574   4.034   3.237  0.1064  1.1238 -0.2438
14041TIP3   OH263537   0.613   4.922  14.818  0.0447 -0.3648 -0.4058
14041TIP3    H163538   0.593   5.000  14.871  0.4116 -1.5300  1.5363
14041TIP3    H263539   0.536   4.866  14.828 -0.0755 -0.4194 -1.5201
14042TIP3   OH263540   5.474   1.070   4.948 -0.0767  0.1130  0.3748
14042TIP3    H163541   5.387   1.095   4.980  0.0737  3.9242 -1.5720
14042TIP3    H263542   5.510   1.151   4.911  3.2382 -1.9049 -1.3265
14043TIP3   OH263543   2.212   0.582  12.476  0.9118  0.1335  0.2032
14043TIP3    H163544   2.224   0.588  12.571 -1.3846 -0.1673  0.5679
14043TIP3    H263545   2.150   0.511  12.464  0.8606  0.4281 -1.5068
14044TIP3   OH263546   5.201   1.035   5.450 -0.1391  0.0076 -0.9996
14044TIP3    H163547   5.169   0.945   5.458 -1.8522  0.2748 -3.7120
14044TIP3    H263548   5.122   1.089   5.449  0.8588  1.6598  0.9647
14045TIP3   OH263549   4.205   5.198   5.094  0.1927  0.0769 -0.0602
14045TIP3    H163550   4.156   5.280   5.086  3.4638  2.2258 -0.0291
14045TIP3    H263551   4.171   5.158   5.175 -1.9515  1.0069 -0.4270
14046TIP3   OH263552   6.652   0.001   0.084  0.2343 -0.3945 -0.4223
14046TIP3    H163553   6.721   0.054   0.124 -0.2996 -0.2276  0.2779
14046TIP3    H263554   6.684  -0.089   0.091  0.3874 -0.3170 -0.1073
14047TIP3   OH263555   5.746   5.256  15.094 -0.2160  0.5250  0.2396
14047TIP3    H163556   5.798   5.178  15.110 -0.0814  0.8565  1.5014
14047TIP3    H263557   5.746   5.266  14.999 -0.0930 -0.9051  0.0688
14048TIP3   OH263558   6.576   0.220   4.155  0.2114 -0.2133 -0.2779
14048TIP3    H163559   6.518   0.294   4.137 -1.1890 -1.1902  0.0046
14048TIP3    H263560   6.640   0.254   4.218 -0.4434  0.7480 -0.1064
14049TIP3   OH263561   0.799   1.485  15.769  0.1024  0.1976 -0.1181
14049TIP3    H163562   0.851   1.492  15.849  0.9396  0.7674 -0.6846
14049TIP3    H263563   0.790   1.391  15.754  0.8153  0.0847  0.1076
14050TIP3   OH263564   5.249   0.552   1.903  0.2552 -0.2841 -0.3059
14050TIP3    H163565   5.291   0.637   1.889 -2.1077  0.7949 -1.4019
14050TIP3    H263566   5.304   0.509   1.969  2.1388  1.6253 -0.5111
14051TIP3   OH263567   1.867   3.219   4.135 -0.2712  0.6970  0.7322
14051TIP3    H163568   1.917   3.186   4.060  0.9247  2.1054  0.8644
14051TIP3    H263569   1.916   3.188   4.211 -0.9094  0.1524  0.9371
14052TIP3   OH263570   3.529   3.951  11.602  0.5485  0.0948  0.4514
14052TIP3    H163571   3.594   3.882  11.587 -0.3811 -1.4222  2.7952
14052TIP3    H263572   3.494   3.970  11.515  2.6827 -0.4958 -0.5960
14053TIP3   OH263573   6.436   2.421  11.917  0.2380  0.1790 -0.0785
14053TIP3    H163574   6.490   2.413  11.996 -0.2226 -0.2603  0.1945
14053TIP3    H263575   6.379   2.345  11.919  0.4630 -0.0275 -1.0230
14054TIP3   OH263576   0.947   0.925  16.755  0.1298  0.4022  0.4980
14054TIP3    H163577   0.956   0.961  16.666 -1.0612  1.5389  0.8124
14054TIP3    H263578   0.876   0.861  16.748  1.2114 -0.8366  0.2835
14055TIP3   OH263579   5.418   2.748   5.899  0.0683  0.1111  0.4049
14055TIP3    H163580   5.442   2.656   5.892 -0.2701  0.0524 -0.0090
14055TIP3    H263581   5.491   2.788   5.947 -0.0180 -0.4590  1.0241
14056TIP3   OH263582   3.449   4.596   1.037  0.0674  0.1318 -0.2360
14056TIP3    H163583   3.474   4.667   0.978 -1.4102  0.7593 -0.1463
14056TIP3    H263584   3.360   4.618   1.065 -0.1534 -1.3977  0.3572
14057TIP3   OH263585   4.151   1.067   4.590 -0.4850 -0.8855 -0.3215
14057TIP3    H163586   4.067   1.052   4.633 -0.3859  0.1783  0.2743
14057TIP3    H263587   4.130   1.067   4.497 -1.4569  1.0365 -0.1443
14058TIP3   OH263588   2.016   6.050   6.539  0.8330  0.9312  0.1837
14058TIP3    H163589   2.007   6.121   6.602  1.4839  0.3914  0.9034
14058TIP3    H263590   2.106   6.059   6.507  0.4052  1.4164 -0.9536
14059TIP3   OH263591   4.273   1.765   2.030 -0.6489 -0.2364 -0.1593
14059TIP3    H163592   4.320   1.682   2.025  0.9331  0.2354  3.4022
14059TIP3    H263593   4.321   1.823   1.970  0.1269 -1.1037 -0.4062
14060TIP3   OH263594   4.878   4.302   3.960  0.1868 -0.2030  0.2112
14060TIP3    H163595   4.879   4.207   3.949  0.1366 -0.2832  0.8645
14060TIP3    H263596   4.789   4.328   3.935 -0.9637 -0.7563  3.2892
14061TIP3   OH263597   4.920   3.260  14.887 -0.3867  0.4533  0.0796
14061TIP3    H163598   4.990   3.325  14.884  0.0195  0.0055 -1.2239
14061TIP3    H263599   4.956   3.186  14.837 -1.6127  0.0295 -0.1903
14062TIP3   OH263600   2.066   2.815  15.776  0.1317 -0.3000  0.2499
14062TIP3    H163601   2.052   2.725  15.806  0.7975 -0.3803  0.3489
14062TIP3    H263602   1.983   2.841  15.737  0.6942 -1.9347 -2.3042
14063TIP3   OH263603   6.739   0.263   0.764  0.4695  0.1981  0.5357
14063TIP3    H163604   6.767   0.280   0.854  0.3646 -1.0789  0.8272
14063TIP3    H263605   6.724   0.350   0.727  2.0190  0.8195  1.2604
14064TIP3   OH263606   5.297   2.656  14.702  0.2593 -0.5455 -0.6646
14064TIP3    H163607   5.234   2.586  14.718  0.6457 -0.8220 -0.3410
14064TIP3    H263608   5.304   2.660  14.606 -1.4417  0.5700 -0.7846
14065TIP3   OH263609   5.390   3.514   3.110  0.4001  0.3377  0.1605
14065TIP3    H163610   5.354   3.602   3.116  2.7131  1.4084 -0.3783
14065TIP3    H263611   5.405   3.488   3.201  0.7803  0.9978  0.2933
14066TIP3   OH263612   1.498   5.208   5.384  0.1204  0.5490 -0.0580
14066TIP3    H163613   1.485   5.262   5.462 -0.0987  0.8311 -0.2833
14066TIP3    H263614   1.416   5.158   5.376  0.5479 -0.2439  0.4726
14067TIP3   OH263615   3.440   5.464   5.575 -0.3597 -0.0677 -0.2164
14067TIP3    H163616   3.517   5.435   5.528  0.3992  0.9438  0.3656
14067TIP3    H263617   3.443   5.560   5.571 -1.8922 -0.0050 -0.6608
14068TIP3   OH263618   4.489   2.863  15.764  0.7551 -0.2589 -0.3766
14068TIP3    H163619   4.484   2.846  15.858 -1.2874 -1.1383 -0.5941
14068TIP3    H263620   4.486   2.776  15.723 -0.0751  0.1752 -1.2879
14069TIP3   OH263621   5.926   3.325  16.722  0.3014 -0.1801 -0.0930
14069TIP3    H163622   6.013   3.288  16.734  0.5567  0.2046 -0.7166
14069TIP3    H263623   5.941   3.406  16.672 -0.2722  0.5996  0.9551
14070TIP3   OH263624   6.379   5.449  15.152  0.0038  0.5235  0.9697
14070TIP3    H163625   6.380   5.450  15.056 -1.3902  1.7763  0.9320
14070TIP3    H263626   6.367   5.540  15.177 -1.6097  0.0115  2.2573
14071TIP3   OH263627   5.713   2.864  16.967  0.3359 -0.1923 -0.4730
14071TIP3    H163628   5.705   2.791  17.029  0.1314 -0.2808 -0.6001
14071TIP3    H263629   5.660   2.934  17.005 -0.8200 -0.6633 -1.1436
14072TIP3   OH263630   5.465   5.043   0.096 -0.0185  0.4334 -0.4775
14072TIP3    H163631   5.405   5.038   0.021  1.2175  1.1761 -1.5624
14072TIP3    H263632   5.528   5.111   0.071  1.7149 -0.8257  0.2852
14073TIP3   OH263633   3.100   1.453  13.717  0.3465 -0.6413  0.1482
14073TIP3    H163634   3.145   1.507  13.782  1.3612 -1.3414  0.0379
14073TIP3    H263635   3.121   1.494  13.633 -0.3043 -0.2103  0.1872
14074TIP3   OH263636   1.520   3.099   0.697 -0.1809  0.6059 -0.3875
14074TIP3    H163637   1.560   3.021   0.657 -0.9057  0.5490 -1.0120
14074TIP3    H263638   1.588   3.132   0.756 -0.3872 -1.3581  1.0569
14075TIP3   OH263639   3.951   5.157  13.648  0.3932  0.3288 -0.8977
14075TIP3    H163640   3.929   5.247  13.622  0.1057  0.0739 -1.5694
14075TIP3    H263641   3.969   5.112  13.566  0.4043 -0.2631 -0.5783
14076TIP3   OH263642   1.768   6.002  11.958  0.7737 -0.0324  0.6202
14076TIP3    H163643   1.743   6.054  12.034 -1.8729  1.6972 -1.2478
14076TIP3    H263644   1.819   6.062  11.903 -0.5300  0.0008 -0.6143
14077TIP3   OH263645   4.795   5.923  11.971 -0.5576 -0.0134  0.1126
14077TIP3    H163646   4.879   5.926  11.925  1.2936  0.4655  3.2242
14077TIP3    H263647   4.758   6.010  11.959  1.2459  1.0388  1.7168
14078TIP3   OH263648   0.832   4.308  14.379 -0.1953 -0.1735  0.1118
14078TIP3    H163649   0.857   4.216  14.382 -1.4432 -0.5647 -0.7510
14078TIP3    H263650   0.747   4.309  14.335 -0.3899  1.3558  0.4502
14079TIP3   OH263651   2.599   2.166  12.810 -0.1119 -0.1053 -0.3835
14079TIP3    H163652   2.548   2.191  12.733 -2.5534 -0.4512  1.0463
14079TIP3    H263653   2.561   2.083  12.838  0.3979  0.2674  1.4995
14080TIP3   OH263654   0.113   2.487   2.220  0.4604  0.1283  0.2601
14080TIP3    H163655   0.040   2.531   2.262 -0.8357 -0.4362 -1.2800
14080TIP3    H263656   0.104   2.395   2.244  0.9653  0.1327  0.4764
14081TIP3   OH263657   4.777   6.609  13.399 -0.0637 -0.0853 -0.3665
14081TIP3    H163658   4.695   6.559  13.407 -1.2701  1.9749  1.1253
14081TIP3    H263659   4.771   6.676  13.467  2.5102  0.6881 -0.7840
14082TIP3   OH263660   4.326   2.962   2.716  0.1343  0.2536  0.6671
14082TIP3    H163661   4.402   2.922   2.673 -0.0934  0.8407 -0.2990
14082TIP3    H263662   4.269   2.888   2.736 -0.1016  0.0350 -0.7421
14083TIP3   OH263663   3.574   5.950   1.192  0.2779  0.3843  0.1954
14083TIP3    H163664   3.604   5.944   1.283 -0.4236 -0.8450  0.3728
14083TIP3    H263665   3.612   5.872   1.150 -0.3587  0.3192 -0.2654
14084TIP3   OH263666   2.791   4.422  16.779 -0.6638 -0.5377  0.7164
14084TIP3    H163667   2.871   4.405  16.728 -1.0003  0.6456 -0.2374
14084TIP3    H263668   2.817   4.488  16.843 -1.2318  1.0823 -0.6568
14085TIP3   OH263669   3.187   0.601   1.032 -0.1006 -0.7070  0.1041
14085TIP3    H163670   3.100   0.614   1.071  1.1230  2.3461  2.2172
14085TIP3    H263671   3.191   0.663   0.959  0.7216  0.2725  0.9373
14086TIP3   OH263672   1.391   0.020   4.607  0.2191 -0.2396  0.4370
14086TIP3    H163673   1.388   0.030   4.512  0.4590  0.3613  0.4898
14086TIP3    H263674   1.483   0.029   4.630  0.3654 -1.7713  0.5949
14087TIP3   OH263675   0.752   4.673  15.226 -0.4142 -0.0395  0.1157
14087TIP3    H163676   0.839   4.676  15.264  0.2688 -1.7571 -1.1959
14087TIP3    H263677   0.765   4.690  15.133 -1.1686 -2.1954 -0.4472
14088TIP3   OH263678   6.043   0.938  15.864  0.6624  0.0639 -0.2246
14088TIP3    H163679   6.045   0.991  15.944 -0.8992 -0.1089 -0.0485
14088TIP3    H263680   6.116   0.971  15.812  1.2651  0.6721  0.9523
14089TIP3   OH263681   4.847   6.392   6.646 -0.2504  0.0867  0.0928
14089TIP3    H163682   4.903   6.331   6.599 -0.7787 -1.6672  1.5965
14089TIP3    H263683   4.898   6.418   6.722 -0.8041 -0.1471  0.5518
14090TIP3   OH263684   3.517   0.419  13.629  0.1156 -0.3229 -0.1511
14090TIP3    H163685   3.515   0.464  13.713 -0.2692  0.1659 -0.4210
14090TIP3    H263686   3.520   0.326  13.652  4.0821 -0.2147  0.4884
14091TIP3   OH263687   1.848   4.930  10.479 -0.0475  0.4499  0.6374
14091TIP3    H163688   1.926   4.961  10.525 -0.3944  1.4006  0.5996
14091TIP3    H263689   1.867   4.839  10.458  1.9145  1.2169 -1.2400
14092TIP3   OH263690   4.786   3.279   0.435 -0.2748 -0.1323 -0.1392
14092TIP3    H163691   4.718   3.319   0.491  1.6348  0.9115  1.5723
14092TIP3    H263692   4.837   3.224   0.495  1.6029  0.7004 -0.8937
14093TIP3   OH263693   3.694   0.526   4.456 -0.0409  0.7139 -0.3895
14093TIP3    H163694   3.608   0.537   4.415 -0.6757 -0.3279  0.6241
14093TIP3    H263695   3.691   0.439   4.496  0.7997  1.4097  1.2817
14094TIP3   OH263696   0.120   3.493  11.128  0.3146 -0.4678  0.3659
14094TIP3    H163697   0.136   3.587  11.115  2.7459 -0.9635 -0.7393
14094TIP3    H263698   0.064   3.489  11.206 -1.3670  1.9482 -0.5984
14095TIP3   OH263699   0.348   1.507  14.632 -0.7074  0.0479  0.4007
14095TIP3    H163700   0.380   1.595  14.652 -0.3488 -0.1430  0.6834
14095TIP3    H263701   0.378   1.454  14.705 -0.6810 -0.3655  0.0930
14096TIP3   OH263702   0.435   0.182   4.135 -0.1472 -0.1405  0.3640
14096TIP3    H163703   0.497   0.125   4.182  1.0297  1.5506  0.9783
14096TIP3    H263704   0.465   0.179   4.044 -0.0865 -0.5055  0.3951
14097TIP3   OH263705   3.691   0.488   3.762 -0.5991 -0.4139  0.5134
14097TIP3    H163706   3.720   0.542   3.835 -0.8840  0.6040 -0.1158
14097TIP3    H263707   3.740   0.406   3.772 -0.7016 -0.3311  1.8828
14098TIP3   OH263708   4.026   2.736  13.533 -0.2737 -0.2877  0.2134
14098TIP3    H163709   3.946   2.788  13.533  0.3077  0.9175 -3.1938
14098TIP3    H263710   4.019   2.682  13.454  1.9171 -0.7326  0.2470
14099TIP3   OH263711   3.579   0.298  12.543 -0.2687  0.6135 -0.3238
14099TIP3    H163712   3.573   0.378  12.595 -3.4697  0.6302 -0.5014
14099TIP3    H263713   3.545   0.322  12.457  0.3667 -0.5442 -0.9250
14100TIP3   OH263714   5.234   2.572  11.013  0.0243 -0.1008 -0.1891
14100TIP3    H163715   5.215   2.482  10.987  0.1270 -0.1145 -0.2171
14100TIP3    H263716   5.256   2.565  11.106 -2.0463  0.1747  0.3724
14101TIP3   OH263717   5.544   0.734   1.332 -0.1808 -0.3974  0.3020
14101TIP3    H163718   5.478   0.684   1.380 -0.5553  0.9236  1.2245
14101TIP3    H263719   5.498   0.766   1.255 -0.8221  0.9423  1.1935
14102TIP3   OH263720   1.941   0.999   3.678 -0.2508 -0.9036  0.1423
14102TIP3    H163721   2.036   0.988   3.685 -0.0807  0.7895  0.9879
14102TIP3    H263722   1.929   1.054   3.601 -0.1869  1.9955  2.0361
14103TIP3   OH263723   2.117   2.740   3.147 -0.4432 -0.4655 -0.2503
14103TIP3    H163724   2.139   2.833   3.148  2.6004 -1.0299  1.8457
14103TIP3    H263725   2.133   2.712   3.057  0.9408  0.6577 -0.3895
14104TIP3   OH263726   0.017   1.859  15.375  0.0523 -0.2574  0.2489
14104TIP3    H163727   0.093   1.839  15.319 -1.0388 -1.3725 -0.8988
14104TIP3    H263728  -0.059   1.844  15.319 -1.1668 -2.6750  2.3477
14105TIP3   OH263729   4.672   5.768  13.423  0.7542  0.1907 -0.1448
14105TIP3    H163730   4.684   5.840  13.362 -1.3542  0.2181 -0.6199
14105TIP3    H263731   4.640   5.810  13.503  0.9317 -0.0850  0.0702
14106TIP3   OH263732   0.308   2.615  17.262 -0.3302 -0.4746  0.7738
14106TIP3    H163733   0.315   2.572  17.347  1.1124 -0.9234  0.4645
14106TIP3    H263734   0.397   2.645  17.243  0.0865 -2.8748 -1.8152
14107TIP3   OH263735   0.793   1.084   1.015 -0.0145  0.3331  0.7383
14107TIP3    H163736   0.854   1.086   0.941  0.7834  0.7834  1.3858
14107TIP3    H263737   0.745   1.166   1.008  1.0157  1.0247  1.4764
14108TIP3   OH263738   5.824   2.293  16.811 -0.3408 -0.7133 -0.1061
14108TIP3    H163739   5.914   2.276  16.786  0.8508  0.6977  2.7265
14108TIP3    H263740   5.774   2.287  16.730  2.3539 -1.0389 -1.8437
14109TIP3   OH263741   3.592   6.111   4.484 -0.1061 -0.0966 -0.1104
14109TIP3    H163742   3.607   6.039   4.423 -0.1268 -0.2567  0.0707
14109TIP3    H263743   3.568   6.185   4.429 -2.4943 -0.8341 -0.1614
14110TIP3   OH263744   2.871   4.975  14.905 -0.7792  0.6728 -0.0018
14110TIP3    H163745   2.862   4.922  14.826 -0.9577 -0.3184  0.6682
14110TIP3    H263746   2.925   5.049  14.878  0.2403 -0.3037 -0.7557
14111TIP3   OH263747   5.718   5.713  16.876 -0.0197 -0.4204 -0.0301
14111TIP3    H163748   5.645   5.744  16.930 -1.2356 -1.5259 -0.9631
14111TIP3    H263749   5.680   5.644  16.821  1.4768 -0.2832 -1.3312
14112TIP3   OH263750   3.385   2.283   3.815  0.1340 -0.7710  0.2497
14112TIP3    H163751   3.351   2.254   3.730  1.0541 -0.9553 -0.0618
14112TIP3    H263752   3.459   2.340   3.793 -1.1863  1.2793  0.8707
14113TIP3   OH263753   5.474   5.294   4.884  0.3920 -0.0724  0.1830
14113TIP3    H163754   5.443   5.310   4.795  0.8655 -0.7376 -0.1067
14113TIP3    H263755   5.401   5.322   4.940  1.1481  3.1196 -0.2537
14114TIP3   OH263756   3.254   6.573  13.386 -0.4055  0.1237 -0.2892
14114TIP3    H163757   3.262   6.479  13.402  2.2523  0.1526 -0.9285
14114TIP3    H263758   3.232   6.611  13.471 -1.2927 -1.0321  0.0190
14115TIP3   OH263759   5.776   1.704  16.176 -0.2484 -0.1710 -0.4699
14115TIP3    H163760   5.755   1.624  16.224  1.5634  0.9056  2.4125
14115TIP3    H263761   5.870   1.696  16.157 -0.2962  0.7693 -1.1688
14116TIP3   OH263762   3.256   1.956  12.010 -0.4812  0.4355  0.5317
14116TIP3    H163763   3.192   2.000  11.954 -0.1713  2.8260  1.9271
14116TIP3    H263764   3.319   2.024  12.032  1.2170 -1.2675  1.1681
14117TIP3   OH263765   5.960   5.685  15.111  0.5595 -0.3651 -0.3115
14117TIP3    H163766   5.894   5.753  15.127  1.1561  0.0864  0.2766
14117TIP3    H263767   5.927   5.609  15.158 -0.9498 -1.0377 -2.2922
14118TIP3   OH263768   1.941   0.027   6.593 -0.0952 -0.0697  0.5551
14118TIP3    H163769   1.924  -0.066   6.587  0.0150 -0.1619  1.4583
14118TIP3    H263770   1.856   0.066   6.613  0.2607 -0.2824  2.7725
14119TIP3   OH263771   5.924   2.504   6.365 -0.3790 -0.1812  0.3703
14119TIP3    H163772   5.846   2.471   6.322 -0.6492 -0.3358  0.9796
14119TIP3    H263773   5.896   2.585   6.408 -0.4088 -0.6483  1.2589
14120TIP3   OH263774   1.229   2.620  17.257 -0.1423 -0.1422  0.2288
14120TIP3    H163775   1.148   2.622  17.206  0.7774 -1.7536 -1.3898
14120TIP3    H263776   1.209   2.563  17.331  0.2402 -3.0060 -1.7030
14121TIP3   OH263777   3.833   6.000  12.523  0.4297 -0.1994 -0.2011
14121TIP3    H163778   3.921   5.997  12.561  1.1766  2.1368 -1.5290
14121TIP3    H263779   3.843   5.960  12.437 -0.4167 -2.1381  0.5537
14122TIP3   OH263780   0.567   0.509   0.423  0.7176 -0.3961 -0.1335
14122TIP3    H163781   0.532   0.593   0.452  0.1245 -1.0127  1.0147
14122TIP3    H263782   0.641   0.532   0.366  0.9306  0.8845  0.6263
14123TIP3   OH263783   3.492   0.074  12.127  0.4344  0.1551  0.1642
14123TIP3    H163784   3.538  -0.004  12.157  1.6567 -0.3265 -2.6051
14123TIP3    H263785   3.401   0.045  12.114  0.1568  0.0757  2.0013
14124TIP3   OH263786   5.220   2.594   1.494 -0.0863 -0.3155  0.2057
14124TIP3    H163787   5.142   2.598   1.438  0.0944 -0.0607 -0.0263
14124TIP3    H263788   5.246   2.502   1.493  1.4096  0.0711 -2.1757
14125TIP3   OH263789   2.498   2.344   5.723 -0.5376 -0.1871 -0.4833
14125TIP3    H163790   2.522   2.307   5.807  0.4837  0.3110 -0.5406
14125TIP3    H263791   2.531   2.434   5.725 -2.8320  0.7321 -0.3976
14126TIP3   OH263792   1.377   2.891  12.514 -0.0154 -0.7938 -0.1130
14126TIP3    H163793   1.433   2.955  12.470 -0.5299 -0.7397 -0.7003
14126TIP3    H263794   1.295   2.894  12.465 -1.5360  1.1025  2.3405
14127TIP3   OH263795   3.452   2.776  11.710 -0.4535 -0.3008 -0.4130
14127TIP3    H163796   3.442   2.869  11.731  2.5770 -0.3159  1.6337
14127TIP3    H263797   3.388   2.732  11.767 -0.1786  0.3878  0.4456
14128TIP3   OH263798   4.470   2.799   2.204  0.4824  0.1680  0.1715
14128TIP3    H163799   4.384   2.763   2.225  1.2917 -2.2157 -0.2847
14128TIP3    H263800   4.471   2.885   2.246 -1.1138 -0.8552  2.5208
14129TIP3   OH263801   3.899   1.488  15.715 -0.6497  0.3085  0.1475
14129TIP3    H163802   3.851   1.494  15.633 -0.2921 -2.2224 -0.3207
14129TIP3    H263803   3.984   1.527  15.695 -0.7681  0.2481 -0.5045
14130TIP3   OH263804   4.394   2.584  17.374 -0.4411 -0.2321 -0.4120
14130TIP3    H163805   4.303   2.581  17.347 -0.4450 -0.2228 -0.3996
14130TIP3    H263806   4.425   2.671  17.347 -0.2144 -0.5317 -1.1161
14131TIP3   OH263807   5.098   0.175  16.057 -0.4745 -0.4007  0.2099
14131TIP3    H163808   5.113   0.094  16.008  1.3381  0.2788 -0.4447
14131TIP3    H263809   5.104   0.149  16.149 -0.1047 -1.0442  0.0082
14132TIP3   OH263810   2.918   5.960  16.887 -0.1518  0.5658 -0.2568
14132TIP3    H163811   2.969   5.960  16.967  0.1194  2.3730 -0.3930
14132TIP3    H263812   2.898   5.867  16.871  2.9203 -0.2206 -0.1361
14133TIP3   OH263813   2.175   6.676   1.209 -0.4617  0.4253  0.4976
14133TIP3    H163814   2.155   6.754   1.157 -0.0037  1.6462  2.0791
14133TIP3    H263815   2.092   6.628   1.214 -0.6085  0.4804 -0.9827
14134TIP3   OH263816   5.125   5.797   5.504 -0.1741  0.4807 -0.0457
14134TIP3    H163817   5.090   5.734   5.567  0.1984 -0.9604 -1.2404
14134TIP3    H263818   5.127   5.750   5.420  0.2246  2.0391 -0.9567
14135TIP3   OH263819   4.320   3.279   2.244 -0.2578 -0.5534 -0.3295
14135TIP3    H163820   4.236   3.307   2.206  0.0668  2.7178  1.0214
14135TIP3    H263821   4.302   3.273   2.338  0.6356 -1.5978 -0.2130
14136TIP3   OH263822   4.124   5.446   2.094  0.2281 -0.4179 -0.8123
14136TIP3    H163823   4.108   5.500   2.016  0.3219 -2.4764 -2.3421
14136TIP3    H263824   4.056   5.379   2.091 -0.6819  0.2598  1.7458
14137TIP3   OH263825   3.665   0.259  15.319 -0.0268  0.1192 -0.2114
14137TIP3    H163826   3.636   0.345  15.350 -0.7424  0.2255 -1.1568
14137TIP3    H263827   3.755   0.274  15.290  0.4978  0.1234  1.3104
14138TIP3   OH263828   2.498   1.759   3.646 -0.3957  0.3466  0.0006
14138TIP3    H163829   2.528   1.673   3.675 -0.7123 -0.6045 -2.3480
14138TIP3    H263830   2.432   1.741   3.579 -0.8941  2.4257 -0.1428
14139TIP3   OH263831   5.583   1.446  12.294  0.0387  0.5796 -0.4335
14139TIP3    H163832   5.586   1.408  12.206  2.3269 -0.4538  0.0168
14139TIP3    H263833   5.649   1.397  12.343  1.1076  3.2548  0.9816
14140TIP3   OH263834   5.230   2.273   2.064  0.5045 -0.5160 -0.3262
14140TIP3    H163835   5.179   2.341   2.020  0.1228 -0.2016  0.6007
14140TIP3    H263836   5.314   2.272   2.016  0.6199  0.7905 -0.1809
14141TIP3   OH263837   2.538   3.276  12.468 -0.5452 -0.3754  0.6801
14141TIP3    H163838   2.569   3.242  12.384 -1.7621  0.5187 -0.1676
14141TIP3    H263839   2.609   3.332  12.499 -0.2366 -0.4015  0.0481
14142TIP3   OH263840   5.323   5.943   0.243  0.2633  0.5672  0.6673
14142TIP3    H163841   5.321   5.849   0.260 -1.7554  0.4820  0.2102
14142TIP3    H263842   5.369   5.980   0.318 -0.5484 -0.6307  1.8095
14143TIP3   OH263843   2.180   0.344   6.146 -0.2865  0.1006 -0.1124
14143TIP3    H163844   2.093   0.323   6.180 -0.2342 -0.2533 -0.1967
14143TIP3    H263845   2.240   0.308   6.211 -0.1973  0.0239 -0.2370
14144TIP3   OH263846   4.315   1.687   4.213 -0.1739  0.0770  0.9585
14144TIP3    H163847   4.367   1.638   4.277  1.2192  1.4338  0.9389
14144TIP3    H263848   4.321   1.637   4.132  2.7121  1.0575  0.4530
14145TIP3   OH263849   0.505   6.096  11.860 -0.4973  0.1238 -0.5592
14145TIP3    H163850   0.474   6.014  11.822 -0.3254 -0.6189  0.8333
14145TIP3    H263851   0.569   6.069  11.927  0.9749  1.4831 -1.3608
14146TIP3   OH263852   0.919   0.495   3.527  0.1326 -0.1178  0.1527
14146TIP3    H163853   0.858   0.429   3.559  0.5638 -0.4297  0.3229
14146TIP3    H263854   1.004   0.471   3.563  0.4306  0.1173 -0.3715
14147TIP3   OH263855   5.849   6.523  12.245 -0.1363 -0.3732 -0.2250
14147TIP3    H163856   5.942   6.543  12.250  0.0433 -1.3124  0.4226
14147TIP3    H263857   5.845   6.431  12.221 -0.9049 -0.3172 -0.3593
14148TIP3   OH263858   0.520   5.878  17.370  0.3406 -0.2284  0.4619
14148TIP3    H163859   0.522   5.968  17.336  0.6503 -1.2736 -2.4885
14148TIP3    H263860   0.566   5.884  17.454  1.8161  2.0659 -0.4088
14149TIP3   OH263861   3.031   0.984  12.178 -0.0919  0.2681 -0.5536
14149TIP3    H163862   3.062   0.893  12.186  0.7838  0.6392  0.4609
14149TIP3    H263863   3.040   1.021  12.266  2.0308  2.0998 -1.4533
14150TIP3   OH263864   0.048   1.291  14.500 -0.3660 -0.2371 -0.0471
14150TIP3    H163865  -0.006   1.370  14.498  2.0437  1.5127 -0.7632
14150TIP3    H263866   0.015   1.238  14.427 -1.6698  0.3331  0.1000
14151TIP3   OH263867   4.690   2.781   3.820 -0.1483 -0.2681  0.4206
14151TIP3    H163868   4.786   2.776   3.816 -0.2242 -1.4062 -1.2619
14151TIP3    H263869   4.671   2.873   3.839  1.2662 -0.1504  1.4194
14152TIP3   OH263870   4.047   2.989  13.880  0.0126  0.2141 -0.0572
14152TIP3    H163871   4.084   2.940  13.954 -0.7971  0.5084  0.5618
14152TIP3    H263872   3.962   3.018  13.911 -0.0104  1.0230 -0.8315
14153TIP3   OH263873   1.213   2.133   0.420 -0.1981  0.0314 -0.1097
14153TIP3    H163874   1.275   2.119   0.349 -1.0808 -0.5756 -0.7877
14153TIP3    H263875   1.128   2.141   0.376 -0.7079  0.0136  0.8490
14154TIP3   OH263876   5.827   2.973   2.164 -0.4089  0.0663  0.7019
14154TIP3    H163877   5.918   2.948   2.149 -0.1814 -0.0774  2.2115
14154TIP3    H263878   5.781   2.945   2.084  0.5077 -1.7161  0.7432
14155TIP3   OH263879   2.406   1.510   0.241 -0.3013  0.0400  0.0017
14155TIP3    H163880   2.451   1.482   0.321 -0.6538  1.0243  0.5584
14155TIP3    H263881   2.452   1.589   0.214 -0.2299 -0.2494 -0.7478
14156TIP3   OH263882   5.335   1.212  13.370 -0.3360  0.1743  0.2215
14156TIP3    H163883   5.346   1.125  13.408 -0.1174  0.6539  1.2945
14156TIP3    H263884   5.242   1.231  13.383 -0.5028 -0.1127 -0.5084
14157TIP3   OH263885   5.543   4.075  10.278 -0.0953  0.2097 -0.3297
14157TIP3    H163886   5.448   4.064  10.277 -0.1430  0.6723 -1.3365
14157TIP3    H263887   5.576   3.997  10.323 -0.9322 -0.0443 -0.1495
14158TIP3   OH263888   5.191   5.775   1.022  0.3065  0.0819 -0.0781
14158TIP3    H163889   5.209   5.869   1.018  1.7716 -0.2358 -2.2136
14158TIP3    H263890   5.245   5.743   1.094 -1.1195  0.9841  1.4871
14159TIP3   OH263891   0.988   6.215  11.989  0.7536 -0.4892 -0.2356
14159TIP3    H163892   0.991   6.171  11.905 -0.4611 -0.9108 -0.0857
14159TIP3    H263893   0.939   6.155  12.046 -1.1535  1.1250 -0.0859
14160TIP3   OH263894   1.791   2.488   3.404 -0.0229  0.1204 -0.2624
14160TIP3    H163895   1.858   2.489   3.473  0.7104  0.1739 -0.9600
14160TIP3    H263896   1.839   2.508   3.323 -0.9738  0.6653 -0.7082
14161TIP3   OH263897   3.788   3.983   6.019 -0.5024 -0.1866 -0.1061
14161TIP3    H163898   3.844   3.930   6.076 -0.4115  0.9353  0.8759
14161TIP3    H263899   3.734   3.919   5.973  1.8535 -1.3753 -1.4427
14162TIP3   OH263900   4.916   1.651  12.698 -0.4221 -0.0711 -0.3650
14162TIP3    H163901   4.943   1.742  12.696 -1.6708  0.3182 -0.9859
14162TIP3    H263902   4.886   1.636  12.787 -0.3408  0.1692 -0.2974
14163TIP3   OH263903   0.125   0.662  17.272  0.3675 -0.4142 -0.4112
14163TIP3    H163904   0.095   0.594  17.211 -1.7939  0.6557 -0.6409
14163TIP3    H263905   0.051   0.674  17.332  1.2531  0.7400  0.4903
14164TIP3   OH263906   3.471   6.658  15.823  0.3355  0.1431 -0.0333
14164TIP3    H163907   3.410   6.730  15.804  0.4718  0.1171 -0.5600
14164TIP3    H263908   3.436   6.619  15.904 -0.7547 -0.3166 -0.7054
14165TIP3   OH263909   1.288   1.084  14.363  0.0243  0.1144 -0.1268
14165TIP3    H163910   1.196   1.106  14.353 -0.9097 -2.1820  2.1955
14165TIP3    H263911   1.307   1.100  14.456  1.4494 -1.0559 -0.1746
14166TIP3   OH263912   2.966   3.351  17.176 -0.0369  0.4093 -0.2504
14166TIP3    H163913   2.973   3.444  17.199 -1.8889  0.2813  1.0053
14166TIP3    H263914   2.943   3.351  17.083 -0.0937  1.2045 -0.2420
14167TIP3   OH263915   2.530   1.498  10.922  0.2877  0.6009  0.5576
14167TIP3    H163916   2.517   1.486  10.827 -0.1706 -1.2946  0.8096
14167TIP3    H263917   2.475   1.573  10.944  0.6544  1.2841 -0.7268
14168TIP3   OH263918   3.006   4.065   1.524 -0.0217 -0.2236  0.2832
14168TIP3    H163919   3.082   4.110   1.489 -0.7156 -0.1515 -1.2478
14168TIP3    H263920   3.029   4.042   1.614  1.5657  0.2960  0.0240
14169TIP3   OH263921   4.843   6.681   2.310  0.0961  0.2722  0.0082
14169TIP3    H163922   4.752   6.696   2.339 -0.2831  3.4274 -2.2729
14169TIP3    H263923   4.837   6.607   2.250 -1.0534  0.6306 -0.3588
14170TIP3   OH263924   5.605   5.122  13.036 -0.2326 -0.2334 -0.0603
14170TIP3    H163925   5.553   5.195  13.003 -1.4766  0.0257  2.3137
14170TIP3    H263926   5.681   5.119  12.978  0.3245  3.5064  0.2444
14171TIP3   OH263927   1.817   3.023  16.598 -0.3936  0.3916 -0.0624
14171TIP3    H163928   1.725   3.044  16.614 -0.8224 -2.1468  1.4154
14171TIP3    H263929   1.854   3.012  16.685  0.5916 -1.2821 -0.6538
14172TIP3   OH263930   4.471   3.648   0.270 -0.9184 -0.1454  0.7240
14172TIP3    H163931   4.453   3.742   0.263  0.4125  0.0351 -0.8129
14172TIP3    H263932   4.389   3.607   0.244 -1.7320  0.5439  2.0432
14173TIP3   OH263933   1.216   5.504   3.647  0.4790  0.0857  0.4940
14173TIP3    H163934   1.187   5.428   3.598 -1.3990  2.3910 -2.3373
14173TIP3    H263935   1.158   5.508   3.723 -0.2208 -0.6495  0.0118
14174TIP3   OH263936   3.187   5.928   4.888  0.1074 -0.1269 -0.3367
14174TIP3    H163937   3.176   5.847   4.838  1.2721 -0.6851  0.2714
14174TIP3    H263938   3.281   5.932   4.906  0.0061  1.1596 -0.0155
14175TIP3   OH263939   1.916   1.883  15.099 -0.0854 -0.0968  0.1387
14175TIP3    H163940   1.990   1.832  15.066  0.9471  1.6435 -0.3555
14175TIP3    H263941   1.885   1.932  15.023 -0.6155  0.5060  0.7344
14176TIP3   OH263942   4.905   5.511   0.661 -0.1081 -0.3123 -0.3064
14176TIP3    H163943   4.906   5.416   0.655 -1.9389 -0.4223  0.2128
14176TIP3    H263944   4.884   5.541   0.573 -3.3796 -0.6704  0.1996
14177TIP3   OH263945   6.307   0.640   3.197 -0.5382  0.0061  0.2006
14177TIP3    H163946   6.212   0.632   3.189 -0.6338  1.1853 -0.0388
14177TIP3    H263947   6.324   0.734   3.194  0.8506 -0.2249 -2.5626
14178TIP3   OH263948   3.201   6.374  11.901  0.2655  0.2182 -0.1534
14178TIP3    H163949   3.248   6.293  11.885 -1.6443 -0.9298 -0.2568
14178TIP3    H263950   3.182   6.373  11.994 -2.6686 -1.2241 -0.6481
14179TIP3   OH263951   1.179   1.506  15.804  0.6343 -0.4457  0.2216
14179TIP3    H163952   1.273   1.494  15.820  0.7893  0.3107 -0.0915
14179TIP3    H263953   1.170   1.500  15.709  0.7436  1.8481  0.0078
14180TIP3   OH263954   1.903   5.828   4.232  0.2261  0.4664 -0.4724
14180TIP3    H163955   1.929   5.800   4.320  0.2048 -0.7041 -0.8219
14180TIP3    H263956   1.814   5.794   4.222  0.0393  1.0329 -0.7659
14181TIP3   OH263957   1.032   1.360   1.426  0.2631  0.2057 -0.5728
14181TIP3    H163958   0.971   1.410   1.480 -0.4101 -0.3696 -0.7795
14181TIP3    H263959   1.111   1.353   1.480 -0.5113 -0.6554  0.5078
14182TIP3   OH263960   4.340   5.427  13.971  0.2898  0.6504 -0.1326
14182TIP3    H163961   4.336   5.459  14.061  2.2750 -0.7301  0.5163
14182TIP3    H263962   4.421   5.465  13.936  0.0651  0.3507 -0.9974
14183TIP3   OH263963   0.234   1.886  14.575  0.0334  0.6765 -0.2382
14183TIP3    H163964   0.191   1.955  14.524  0.9251 -0.1984 -2.2834
14183TIP3    H263965   0.327   1.897  14.557  0.1991 -1.0606 -0.6989
14184TIP3   OH263966   1.840   4.546  14.799  0.3295 -0.2527  0.2822
14184TIP3    H163967   1.882   4.482  14.857 -0.0013  1.0701  2.0500
14184TIP3    H263968   1.755   4.564  14.840  0.0455  0.6833 -0.6658
14185TIP3   OH263969   1.398   3.272   2.810 -0.0355 -0.0622  0.1779
14185TIP3    H163970   1.322   3.214   2.813 -0.2864 -0.1683 -3.5586
14185TIP3    H263971   1.360   3.360   2.801  0.1054 -0.2201 -2.9751
14186TIP3   OH263972   0.855   6.493  11.317  0.3295  0.2447 -0.2942
14186TIP3    H163973   0.864   6.407  11.277 -1.7564 -1.2919  2.1680
14186TIP3    H263974   0.911   6.490  11.395 -1.8734 -0.1119  1.4017
14187TIP3   OH263975   0.660   4.269  11.276 -0.4299  0.1500  0.1218
14187TIP3    H163976   0.725   4.205  11.306 -0.2042  0.1445 -0.3728
14187TIP3    H263977   0.576   4.225  11.286 -0.3762  0.1917  0.8608
14188TIP3   OH263978   2.161   1.216  15.415 -0.1310  0.0955  0.7482
14188TIP3    H163979   2.193   1.285  15.357 -0.4580  0.0132  0.4665
14188TIP3    H263980   2.218   1.221  15.492 -0.3553  0.8934  0.8735
14189TIP3   OH263981   2.831   5.092   1.128  0.4503  0.0777 -0.4716
14189TIP3    H163982   2.915   5.127   1.099  1.3905 -2.0898 -0.5435
14189TIP3    H263983   2.816   5.016   1.073 -0.8026 -0.4819  0.5935
14190TIP3   OH263984   0.914   6.735   1.353  0.2261 -0.4102 -0.2452
14190TIP3    H163985   0.951   6.652   1.321 -1.3518 -1.6403  0.9262
14190TIP3    H263986   0.979   6.801   1.331  0.4593 -1.5595 -3.4348
14191TIP3   OH263987   0.033   1.253   2.692 -0.1124  0.5576 -0.0803
14191TIP3    H163988   0.065   1.177   2.643 -0.1470  1.6981 -1.9724
14191TIP3    H263989   0.094   1.323   2.670 -2.0371  1.9624 -1.2069
14192TIP3   OH263990   0.427   2.844  16.984  0.8176 -0.1165 -0.0270
14192TIP3    H163991   0.361   2.912  17.002  0.4263 -0.7004  0.8048
14192TIP3    H263992   0.380   2.777  16.934  0.8958 -0.3283  0.1820
14193TIP3   OH263993   1.902   1.078  14.802  0.4036 -0.2617  0.8701
14193TIP3    H163994   1.957   1.155  14.792 -1.0077  0.5774 -1.0625
14193TIP3    H263995   1.919   1.026  14.723 -1.3676 -0.0680  0.3162
14194TIP3   OH263996   2.828   2.868   4.949 -0.7032  0.3039 -0.8779
14194TIP3    H163997   2.804   2.872   5.041 -0.3465  0.2169 -0.7780
14194TIP3    H263998   2.917   2.903   4.946  0.1581 -1.7024 -0.8475
14195TIP3   OH263999   6.370   4.641   5.924  0.3120  0.2111 -0.5459
14195TIP3    H164000   6.298   4.703   5.937  1.1165  0.9482  0.6216
14195TIP3    H264001   6.369   4.587   6.003  1.8699  1.1442  0.1576
14196TIP3   OH264002   1.973   0.536  11.920  0.2278  0.4071  0.4378
14196TIP3    H164003   2.021   0.535  11.837  3.3067  0.7692  2.0491
14196TIP3    H264004   1.908   0.606  11.910  1.1643  1.0879 -1.3309
14197TIP3   OH264005   6.333   1.566   0.155  0.1507  0.5674 -0.4757
14197TIP3    H164006   6.370   1.489   0.198  0.8374  1.2373  0.1536
14197TIP3    H264007   6.272   1.603   0.219 -0.0081  0.6704 -0.6858
14198TIP3   OH264008   4.932   2.254   0.510  0.4639  0.1909  0.0866
14198TIP3    H164009   4.959   2.342   0.484  2.3399 -0.5163 -0.5530
14198TIP3    H264010   4.952   2.250   0.604 -1.5804  1.0848  0.6099
14199TIP3   OH264011   5.818   3.993  12.520 -0.3772  0.3391 -0.2822
14199TIP3    H164012   5.791   4.008  12.611 -1.1057 -0.8077 -0.2794
14199TIP3    H264013   5.913   3.980  12.526 -0.4034  0.3607  0.3076
14200TIP3   OH264014   2.517   0.786  17.151 -0.0332 -0.8524 -0.6948
14200TIP3    H164015   2.603   0.748  17.137 -0.0997 -1.6698  0.8783
14200TIP3    H264016   2.512   0.858  17.088  2.2833  0.0337  0.0394
14201TIP3   OH264017   3.095   6.241  13.082  0.2803  0.1509 -0.2461
14201TIP3    H164018   3.073   6.167  13.139 -3.1791  1.4629  0.3160
14201TIP3    H264019   3.026   6.242  13.015  1.5774  1.5233 -1.6594
14202TIP3   OH264020   1.270   6.566   1.204 -0.1111  0.2825  0.3544
14202TIP3    H164021   1.312   6.492   1.162 -0.9154 -0.4638  0.8246
14202TIP3    H264022   1.342   6.625   1.228  0.7367 -1.2013  1.6235
14203TIP3   OH264023   0.839   3.680  13.313  0.2027 -0.0153  0.0104
14203TIP3    H164024   0.800   3.631  13.241 -1.5321  0.7551  0.3748
14203TIP3    H264025   0.852   3.615  13.382 -2.0616 -0.0448  0.4878
14204TIP3   OH264026   3.339   5.665  16.245  0.5658 -0.4553  0.1931
14204TIP3    H164027   3.267   5.675  16.307  0.4926 -3.2060  0.6661
14204TIP3    H264028   3.306   5.704  16.164 -0.2117  1.1563  1.2386
14205TIP3   OH264029   0.034   3.455   5.682  0.2749 -0.7203 -0.3622
14205TIP3    H164030  -0.003   3.470   5.769 -1.2349 -1.0271 -0.9330
14205TIP3    H264031   0.107   3.518   5.676 -0.1525 -0.0862  0.7771
14206TIP3   OH264032   1.570   0.275   1.304 -0.3349  0.6352  0.1265
14206TIP3    H164033   1.568   0.366   1.332 -1.6422  0.5963  0.2046
14206TIP3    H264034   1.591   0.226   1.384 -2.1549  0.6810  0.6717
14207TIP3   OH264035   2.702   1.997   2.150  0.5107  0.4725 -0.2449
14207TIP3    H164036   2.684   1.942   2.073  0.2333  2.5220 -1.7469
14207TIP3    H264037   2.615   2.017   2.186  0.5994  0.1027  0.1827
14208TIP3   OH264038   6.410   0.324  16.267  0.5738  0.2688  0.0383
14208TIP3    H164039   6.487   0.291  16.315  0.3502  2.0611  1.7845
14208TIP3    H264040   6.335   0.299  16.322 -0.0911 -1.0375 -1.4023
14209TIP3   OH264041   1.357   5.155   3.255 -0.1884 -0.7822  1.0689
14209TIP3    H164042   1.396   5.087   3.200 -0.0610 -0.2693  0.5079
14209TIP3    H264043   1.268   5.166   3.221  0.1023 -0.0068  0.5179
14210TIP3   OH264044   0.764   5.828   1.056 -0.3158 -0.1207 -0.0153
14210TIP3    H164045   0.729   5.757   1.002  0.0236 -0.1016 -0.2686
14210TIP3    H264046   0.687   5.866   1.098 -0.6286  0.0530 -0.7206
14211TIP3   OH264047   0.491   1.579   1.978  0.5043  0.4186 -0.1027
14211TIP3    H164048   0.554   1.622   1.919 -0.7643  1.1300 -0.9875
14211TIP3    H264049   0.432   1.532   1.920  0.9525 -1.2987  0.7874
14212TIP3   OH264050   0.344   0.853  13.864  0.1742 -0.0387  0.0047
14212TIP3    H164051   0.255   0.870  13.834  0.0321  1.2656  1.0663
14212TIP3    H264052   0.400   0.893  13.798 -0.1175  2.0569  0.9561
14213TIP3   OH264053   3.395   6.529   1.896  0.1915 -0.1434  0.2596
14213TIP3    H164054   3.448   6.546   1.974  2.6580 -1.3147 -1.0381
14213TIP3    H264055   3.454   6.549   1.822 -1.8414  0.3444 -1.3255
14214TIP3   OH264056   0.510   4.506  12.429  0.0544 -0.3114 -0.1986
14214TIP3    H164057   0.475   4.454  12.502 -0.8401 -0.7115 -0.8840
14214TIP3    H264058   0.493   4.452  12.352 -1.0197  1.0424 -0.9475
14215TIP3   OH264059   5.794   4.591   1.442  0.5240  0.6259  0.6510
14215TIP3    H164060   5.837   4.615   1.524 -0.7833 -1.3521  2.0216
14215TIP3    H264061   5.753   4.507   1.460  1.0966 -0.4584 -2.4191
14216TIP3   OH264062   2.735   4.198   1.844  0.2702 -0.6488 -0.4375
14216TIP3    H164063   2.650   4.154   1.847 -0.0367 -0.1022 -0.9162
14216TIP3    H264064   2.749   4.219   1.752  1.4605 -1.7363 -0.5235
14217TIP3   OH264065   5.645   1.510   5.221  0.8417  0.1289 -0.1464
14217TIP3    H164066   5.694   1.433   5.249 -0.1635 -0.3845  0.2565
14217TIP3    H264067   5.705   1.557   5.163  2.4955  0.5259  1.7758
14218TIP3   OH264068   1.326   1.270  16.228  0.2289  0.2295 -0.4996
14218TIP3    H164069   1.351   1.359  16.250  0.9142 -0.2035  0.5500
14218TIP3    H264070   1.230   1.269  16.234  0.1168  1.2119 -1.8344
14219TIP3   OH264071   1.434   3.863  14.714  0.6411 -0.7191  0.2927
14219TIP3    H164072   1.363   3.870  14.650 -1.5671 -3.7112  2.1201
14219TIP3    H264073   1.415   3.931  14.778  0.4913 -0.3547 -0.1299
14220TIP3   OH264074   4.821   3.467   3.499  0.4282  0.6557  0.2999
14220TIP3    H164075   4.897   3.458   3.556 -0.4679 -0.4080  1.3784
14220TIP3    H264076   4.752   3.417   3.543 -0.4971  0.3985 -1.3728
14221TIP3   OH264077   0.034   1.680  12.290  0.0493 -0.6955 -0.1403
14221TIP3    H164078  -0.004   1.709  12.207 -0.1301  0.1701  0.2411
14221TIP3    H264079   0.117   1.639  12.264 -1.1162 -2.6772 -0.9894
14222TIP3   OH264080   6.104   2.453  16.081 -0.2687  0.2663  0.0522
14222TIP3    H164081   6.072   2.362  16.078  0.2896  0.0693 -0.0223
14222TIP3    H264082   6.108   2.473  16.175 -1.2875  0.5417  0.0481
14223TIP3   OH264083   5.638   1.951   5.628 -0.5814  0.2782 -0.3342
14223TIP3    H164084   5.690   1.950   5.548 -1.3479 -1.4568 -0.8473
14223TIP3    H264085   5.568   2.015   5.611 -0.5276  0.1855 -0.9034
14224TIP3   OH264086   4.250   3.085   1.597  0.3524  0.2565  0.3581
14224TIP3    H164087   4.313   3.157   1.586 -0.7626  1.1121 -0.8218
14224TIP3    H264088   4.298   3.007   1.571  0.4848  1.1051 -2.2236
14225TIP3   OH264089   6.671   0.696   2.383  0.0245 -0.0159  0.0165
14225TIP3    H164090   6.596   0.637   2.395 -0.5495  0.7600  0.2759
14225TIP3    H264091   6.634   0.773   2.340  0.5160  0.7197  0.8863
14226TIP3   OH264092   0.138   0.920   1.278  0.2967  0.0183  0.2463
14226TIP3    H164093   0.106   0.995   1.229  0.3619 -0.6242 -0.7959
14226TIP3    H264094   0.232   0.918   1.262  0.2131 -0.6120 -0.1858
14227TIP3   OH264095   0.104   5.071   5.855 -0.0777 -0.9568 -0.2627
14227TIP3    H164096   0.125   5.096   5.945  1.4923 -2.4514 -0.1585
14227TIP3    H264097   0.092   4.976   5.859 -2.0730 -0.8011 -1.2869
14228TIP3   OH264098   3.668   1.120   3.417  0.3981  0.2054  0.3829
14228TIP3    H164099   3.695   1.195   3.471 -1.0897  0.1934  1.2032
14228TIP3    H264100   3.578   1.141   3.391  0.7427 -0.2604 -1.3052
14229TIP3   OH264101   6.259   4.385   3.459  0.0136  0.7101 -0.1526
14229TIP3    H164102   6.243   4.338   3.378  0.6146 -2.9076  1.6040
14229TIP3    H264103   6.354   4.385   3.469 -0.0370  1.3005  0.4819
14230TIP3   OH264104   0.588   2.941  11.417  0.0126 -0.1978 -0.1835
14230TIP3    H164105   0.534   2.924  11.340  0.4370  1.3851 -0.8579
14230TIP3    H264106   0.623   2.855  11.441 -0.1509 -0.7282 -1.7305
14231TIP3   OH264107   4.306   2.663  11.793  0.0447  0.1598  0.1567
14231TIP3    H164108   4.351   2.702  11.868  1.5365  0.2676 -0.7583
14231TIP3    H264109   4.281   2.738  11.738 -0.7460  0.0633  0.3789
14232TIP3   OH264110   5.149   4.414  13.801 -0.3059  0.5404  0.2628
14232TIP3    H164111   5.101   4.482  13.849  0.6565  1.7157 -0.3649
14232TIP3    H264112   5.083   4.350  13.777 -1.7093  2.3592 -1.0160
14233TIP3   OH264113   3.071   0.287   0.789 -0.1656  0.3356 -0.0622
14233TIP3    H164114   3.024   0.370   0.795  0.6780  0.8814 -0.6244
14233TIP3    H264115   3.009   0.221   0.818 -0.3039  1.3455  2.1175
14234TIP3   OH264116   0.384   4.651  16.787 -0.2397  0.1595  0.6464
14234TIP3    H164117   0.430   4.725  16.748  0.1784 -0.4697 -0.0811
14234TIP3    H264118   0.293   4.680  16.796 -0.2012  0.5464 -0.1894
14235TIP3   OH264119   1.670   3.597  16.479 -0.8529 -0.1574  0.7909
14235TIP3    H164120   1.637   3.618  16.566 -1.4575  0.4190  0.4224
14235TIP3    H264121   1.593   3.599  16.422 -0.5595 -1.1023  0.3360
14236TIP3   OH264122   0.086   1.526   1.215  0.0419 -0.5466 -0.2019
14236TIP3    H164123   0.031   1.513   1.137  1.2927  1.1193 -1.4425
14236TIP3    H264124   0.038   1.589   1.268  1.8264  3.3116 -2.6875
14237TIP3   OH264125   2.444   3.323  11.465  0.2601  0.1767  0.4617
14237TIP3    H164126   2.374   3.264  11.437  0.2063  0.4196  0.0793
14237TIP3    H264127   2.398   3.400  11.499  0.3365  0.2514  0.3973
14238TIP3   OH264128   4.473   1.314   0.339  0.2027  0.0564 -0.4263
14238TIP3    H164129   4.555   1.364   0.345  0.2692  0.0194 -0.9810
14238TIP3    H264130   4.499   1.232   0.296 -0.4031  0.6780 -2.0259
14239TIP3   OH264131   6.752   6.565   4.252  0.3756  0.3223  0.4810
14239TIP3    H164132   6.804   6.635   4.292 -0.4224  0.8440  0.6228
14239TIP3    H264133   6.698   6.609   4.187 -0.8408  0.0142  1.2377
14240TIP3   OH264134   5.500   5.435   0.911  0.2602 -0.1879 -0.3358
14240TIP3    H164135   5.506   5.348   0.951  0.4035  0.3323  0.7978
14240TIP3    H264136   5.420   5.431   0.858  0.6101 -1.2082 -0.8184
14241TIP3   OH264137   6.476   4.027   1.710 -0.2160 -0.3430 -0.2075
14241TIP3    H164138   6.469   3.953   1.770 -1.8594 -0.4695 -0.4843
14241TIP3    H264139   6.385   4.057   1.699  0.2098  0.5922 -1.4741
14242TIP3   OH264140   3.878   2.836   4.112 -0.8343  0.5434  0.1501
14242TIP3    H164141   3.951   2.805   4.058 -0.7411 -0.4528  0.8197
14242TIP3    H264142   3.911   2.916   4.153 -0.8231  1.1723 -1.0625
14243TIP3   OH264143   2.001   5.337   6.382  0.2066 -0.6767 -0.4066
14243TIP3    H164144   2.020   5.254   6.426 -0.9483 -0.4469  0.5647
14243TIP3    H264145   2.084   5.362   6.343  0.7051 -2.0420 -0.2982
14244TIP3   OH264146   4.632   2.216   3.445  0.0554 -0.3151 -0.1466
14244TIP3    H164147   4.561   2.168   3.488 -1.2590  0.4164 -1.4270
14244TIP3    H264148   4.698   2.226   3.514 -0.9023 -1.3365  0.9830
14245TIP3   OH264149   4.047   6.043   4.363 -0.1939  0.1811  0.1121
14245TIP3    H164150   3.999   5.991   4.427  1.3623 -1.2757  0.1441
14245TIP3    H264151   4.115   6.087   4.413  1.7900 -1.8841 -0.5908
14246TIP3   OH264152   1.226   6.292   0.140 -0.2742 -0.2031 -0.1828
14246TIP3    H164153   1.160   6.257   0.200 -1.6458 -2.7045 -2.9024
14246TIP3    H264154   1.201   6.383   0.128 -1.0212 -0.1240  1.6222
14247TIP3   OH264155   1.823   5.210   2.888  0.0007 -0.1494 -0.0524
14247TIP3    H164156   1.774   5.241   2.964 -0.1581  0.2468 -0.3097
14247TIP3    H264157   1.817   5.115   2.892 -0.8155 -0.1080 -0.0900
14248TIP3   OH264158   4.134   4.082   4.210 -0.5096  0.4850 -0.1573
14248TIP3    H164159   4.116   4.093   4.303 -1.4265  1.1174 -0.3984
14248TIP3    H264160   4.102   4.162   4.169 -0.0827  0.2365 -1.0224
14249TIP3   OH264161   2.605   4.767  16.453 -0.4976  0.8686 -0.0367
14249TIP3    H164162   2.657   4.731  16.381 -0.8651 -0.6756  0.4265
14249TIP3    H264163   2.537   4.819  16.409  0.4574  1.5836 -0.7006
14250TIP3   OH264164   0.646   3.588  11.135 -0.4496  0.1582 -0.1703
14250TIP3    H164165   0.558   3.559  11.160  0.3260 -0.6445  1.8956
14250TIP3    H264166   0.688   3.509  11.099 -0.2036  0.2172 -0.0172
14251TIP3   OH264167   0.569   1.592   0.267  0.3858  0.1579  0.2500
14251TIP3    H164168   0.531   1.635   0.190 -0.3547 -2.0973 -0.7551
14251TIP3    H264169   0.543   1.647   0.341 -0.5682  1.3509 -0.9231
14252TIP3   OH264170   1.920   5.827  15.586 -0.4324 -0.4125 -0.2203
14252TIP3    H164171   2.016   5.831  15.586 -0.4106  0.6948  1.7919
14252TIP3    H264172   1.895   5.866  15.670 -2.6103 -2.0007 -0.0567
14253TIP3   OH264173   3.009   1.179   4.570  0.3136 -0.1104 -0.4844
14253TIP3    H164174   3.041   1.217   4.652  0.8742 -0.7700 -0.3977
14253TIP3    H264175   2.914   1.194   4.573  0.2397 -0.7163  0.5935
14254TIP3   OH264176   0.067   5.475   3.053 -0.0244 -0.1175  0.2733
14254TIP3    H164177   0.090   5.426   3.132  0.8160 -0.7483 -0.3389
14254TIP3    H264178   0.113   5.559   3.062  0.5307 -0.4069  0.2120
14255TIP3   OH264179   0.670   1.309   2.854 -0.6890 -0.2791  0.0836
14255TIP3    H164180   0.679   1.360   2.935  0.8329  0.5700 -0.5795
14255TIP3    H264181   0.649   1.221   2.884  0.7467 -0.2016  1.4786
14256TIP3   OH264182   2.895   1.024   6.786 -0.0169  0.0490 -0.2171
14256TIP3    H164183   2.926   1.053   6.872  0.4247 -1.0149  0.0011
14256TIP3    H264184   2.975   1.008   6.736 -0.1219 -2.5205  0.2803
14257TIP3   OH264185   0.382   1.713   2.531 -0.4579  0.1954  0.8694
14257TIP3    H164186   0.383   1.702   2.436 -1.8945 -1.4808  0.9996
14257TIP3    H264187   0.409   1.628   2.565 -0.5109  0.6063  1.9834
14258TIP3   OH264188   6.429   3.017   4.872 -0.2131 -0.0517 -0.5554
14258TIP3    H164189   6.348   3.008   4.822  0.3738  0.3484 -1.5953
14258TIP3    H264190   6.400   3.031   4.962 -1.2799 -1.4941 -0.6354
14259TIP3   OH264191   4.693   5.741  14.634 -0.2496  0.4981  0.2199
14259TIP3    H164192   4.643   5.820  14.615 -0.9652 -0.3132 -1.5291
14259TIP3    H264193   4.658   5.675  14.573  0.6405 -1.0364  1.2946
14260TIP3   OH264194   4.308   3.297  14.270  0.0173  0.8876 -0.0190
14260TIP3    H164195   4.292   3.203  14.276 -1.2574  1.1823  1.6641
14260TIP3    H264196   4.403   3.305  14.272  0.1634 -0.3699 -0.6623
14261TIP3   OH264197   2.049   0.984  15.276  0.0411  0.5214 -0.5243
14261TIP3    H164198   1.953   0.976  15.273 -0.1683  2.1581  0.7586
14261TIP3    H264199   2.065   1.065  15.323  2.0506  1.4288 -2.5912
14262TIP3   OH264200   1.750   4.745   3.123 -0.5597 -0.0590 -0.3615
14262TIP3    H164201   1.783   4.659   3.147 -1.4493 -0.4932 -0.6408
14262TIP3    H264202   1.761   4.798   3.202  2.5289  0.4057 -0.9724
14263TIP3   OH264203   6.243   2.677   3.773  0.1226 -0.4640  0.1389
14263TIP3    H164204   6.285   2.696   3.856 -0.0713  1.3810 -0.1413
14263TIP3    H264205   6.288   2.734   3.710  0.2903 -1.8509 -1.0374
14264TIP3   OH264206   6.298   4.558  17.048 -0.5562  0.1977 -0.0077
14264TIP3    H164207   6.362   4.556  17.119  0.0091 -1.3463 -0.5322
14264TIP3    H264208   6.214   4.551  17.092 -0.2491 -0.1113  0.5453
14265TIP3   OH264209   0.825   1.938  17.224 -0.0813  0.2685  0.2200
14265TIP3    H164210   0.914   1.952  17.191 -0.6932 -0.4534 -1.9324
14265TIP3    H264211   0.799   1.854  17.186 -0.8949 -0.6951  2.6972
14266TIP3   OH264212   1.781   0.306  15.885 -0.0553  0.3479 -0.5525
14266TIP3    H164213   1.850   0.277  15.824 -0.5915 -1.6437 -0.2683
14266TIP3    H264214   1.724   0.360  15.831  0.4320  0.0518 -1.3961
14267TIP3   OH264215   5.444   2.355  14.672 -0.1853  0.1370  0.6850
14267TIP3    H164216   5.483   2.442  14.684  1.6485 -0.5235 -0.0608
14267TIP3    H264217   5.463   2.309  14.754  0.2122 -0.0209  0.5118
14268TIP3   OH264218   3.135   5.516  11.993 -0.2823  0.0528 -0.4978
14268TIP3    H164219   3.215   5.539  11.945  0.8811 -0.8361  0.9367
14268TIP3    H264220   3.120   5.424  11.971 -1.0033  0.2403 -0.8383
14269TIP3   OH264221   4.849   5.598  17.390  0.3465  0.1678  0.0484
14269TIP3    H164222   4.891   5.521  17.352 -0.9598 -0.1862 -0.7360
14269TIP3    H264223   4.764   5.603  17.346  0.9605  2.9042 -1.0002
14270TIP3   OH264224   0.725   4.627   4.587 -0.1267  0.7689 -0.1533
14270TIP3    H164225   0.810   4.626   4.543  0.8048  0.1899  1.5716
14270TIP3    H264226   0.665   4.584   4.526  1.4195 -1.3361 -0.2761
14271TIP3   OH264227   6.406   3.044   5.372 -0.1669 -0.1030 -0.3492
14271TIP3    H164228   6.432   2.959   5.408  0.2197  0.3143  0.4030
14271TIP3    H264229   6.422   3.106   5.444 -3.5895  0.1719  0.3586
14272TIP3   OH264230   1.863   3.827  17.384 -0.3097  0.2677  0.3238
14272TIP3    H164231   1.809   3.868  17.451 -1.9511  1.2414 -1.4965
14272TIP3    H264232   1.826   3.739  17.374 -0.0236  0.0991  0.7100
14273TIP3   OH264233   4.172   4.431  13.785  0.6821 -0.2743  0.4179
14273TIP3    H164234   4.087   4.439  13.742  1.9355 -0.1442 -2.2497
14273TIP3    H264235   4.164   4.352  13.839 -1.0800 -0.3060  0.1689
14274TIP3   OH264236   1.710   6.238  17.065 -0.2455 -0.5493 -0.0078
14274TIP3    H164237   1.660   6.196  17.135 -0.9128  1.1717  0.6150
14274TIP3    H264238   1.783   6.280  17.110  0.4728 -1.1018 -0.6260
14275TIP3   OH264239   2.481   1.652   5.939  0.4321 -0.8731  0.0346
14275TIP3    H164240   2.515   1.679   6.024 -2.3897  2.3326  0.3327
14275TIP3    H264241   2.418   1.583   5.959  0.0707 -0.4055  0.5315
14276TIP3   OH264242   3.592   3.379   0.144  0.9247 -0.3331  0.1915
14276TIP3    H164243   3.684   3.352   0.145  1.6245  1.8468  0.1942
14276TIP3    H264244   3.581   3.428   0.225  0.1299  0.5440 -0.4372
14277TIP3   OH264245   3.475   3.771  12.315  0.3967 -0.0790  0.2340
14277TIP3    H164246   3.523   3.711  12.258 -0.2404  0.1505 -0.5666
14277TIP3    H264247   3.514   3.856  12.299  0.4817 -0.0773  0.4459
14278TIP3   OH264248   2.557   6.002   0.449  0.3524 -0.1999 -0.7361
14278TIP3    H164249   2.474   5.971   0.412 -0.7080  1.2458  0.2713
14278TIP3    H264250   2.554   6.097   0.437  0.8340  0.1181  1.2475
14279TIP3   OH264251   6.406   2.925  11.469  0.0852  0.1615 -0.0367
14279TIP3    H164252   6.468   2.997  11.481  1.5633 -0.9005 -0.9853
14279TIP3    H264253   6.388   2.924  11.375  0.6559 -1.1578 -0.1455
14280TIP3   OH264254   4.329   6.404  16.994 -0.1023  0.7779  0.3165
14280TIP3    H164255   4.405   6.377  17.045 -0.6846  1.3695  1.5430
14280TIP3    H264256   4.289   6.322  16.964  1.0320  0.4669 -0.3857
14281TIP3   OH264257   0.084   5.924  16.412 -0.0973  0.6530 -0.4569
14281TIP3    H164258   0.063   5.949  16.322 -1.0965 -1.0000 -0.7092
14281TIP3    H264259   0.075   6.006  16.462  0.3397  1.5646 -1.8096
14282TIP3   OH264260   3.174   5.237   1.989  0.2428 -0.0913 -0.1549
14282TIP3    H164261   3.229   5.253   1.912 -0.1536 -2.4704 -0.9985
14282TIP3    H264262   3.125   5.157   1.968  0.3728 -1.0291  2.6991
14283TIP3   OH264263   5.617   5.428   0.630  0.1155 -0.4679  0.7608
14283TIP3    H164264   5.687   5.400   0.690  0.9879 -0.4441 -0.2200
14283TIP3    H264265   5.568   5.348   0.611 -0.4119 -0.4087  1.7927
14284TIP3   OH264266   6.047   5.739  17.379 -0.2481 -0.0578 -0.3766
14284TIP3    H164267   6.080   5.695  17.457  1.2044 -0.1533 -1.0244
14284TIP3    H264268   6.068   5.831  17.393  2.7887 -0.4061 -1.9162
14285TIP3   OH264269   3.308   3.394  10.822 -0.1994 -0.2526  0.4428
14285TIP3    H164270   3.333   3.486  10.826  0.2243 -0.4095  2.7941
14285TIP3    H264271   3.362   3.358  10.752 -1.2444  1.4776 -1.3741
14286TIP3   OH264272   2.666   6.728   5.551  0.6307  0.2901 -0.0186
14286TIP3    H164273   2.678   6.642   5.510  0.1112  0.2184 -0.0285
14286TIP3    H264274   2.588   6.764   5.508  0.6799  0.6473  0.1878
14287TIP3   OH264275   3.531   0.710   4.926  0.1155 -0.2064  0.0154
14287TIP3    H164276   3.518   0.801   4.952  0.7562  0.1967 -1.0231
14287TIP3    H264277   3.510   0.660   5.005 -1.5590  0.7432  0.2252
14288TIP3   OH264278   0.009   1.853  16.484  0.3865 -0.1187  0.1375
14288TIP3    H164279  -0.058   1.812  16.538  0.3517 -0.2355  0.0085
14288TIP3    H264280   0.049   1.780  16.436  0.2764  0.0063 -0.1490
14289TIP3   OH264281   3.743   3.781   0.446 -0.0475  0.5554 -0.6671
14289TIP3    H164282   3.677   3.805   0.381  0.4955  0.7860 -1.1306
14289TIP3    H264283   3.816   3.747   0.395  0.0013 -0.1815 -0.1273
14290TIP3   OH264284   3.850   5.338  16.185 -0.0960  0.1464 -0.1562
14290TIP3    H164285   3.836   5.393  16.261 -1.4641 -0.4853  0.0763
14290TIP3    H264286   3.876   5.253  16.221  0.7027  0.2484 -0.4620
14291TIP3   OH264287   1.402   5.455  12.810  0.7728 -0.5257 -0.1583
14291TIP3    H164288   1.324   5.511  12.801  0.2269 -1.2911 -0.2943
14291TIP3    H264289   1.475   5.514  12.791  0.1362 -0.1533 -1.6323
14292TIP3   OH264290   4.968   2.542   3.681 -0.2397 -0.4907  0.1682
14292TIP3    H164291   5.029   2.559   3.610  2.9570 -0.2319  2.7203
14292TIP3    H264292   4.937   2.628   3.708 -0.7406 -0.5134 -0.3363
14293TIP3   OH264293   5.353   3.712  11.075  0.0426 -0.1146 -0.1336
14293TIP3    H164294   5.302   3.726  10.995 -0.8146 -2.0159  0.0222
14293TIP3    H264295   5.429   3.770  11.066 -0.0603 -0.2310 -2.2941
14294TIP3   OH264296   5.952   4.211   2.830 -0.0141  0.1588 -0.0013
14294TIP3    H164297   5.879   4.258   2.790  0.6721  0.5121 -0.8930
14294TIP3    H264298   5.928   4.119   2.823 -0.4657  0.2816 -0.0906
14295TIP3   OH264299   4.670   4.467  15.237  0.4241  0.1089  0.2904
14295TIP3    H164300   4.656   4.557  15.266  1.1639  0.1692  0.4825
14295TIP3    H264301   4.758   4.446  15.268  1.1521  0.0806 -1.7125
14296TIP3   OH264302   3.547   0.481  13.139  0.7462 -0.3176  0.6223
14296TIP3    H164303   3.495   0.450  13.065  1.1565  2.6094 -1.0576
14296TIP3    H264304   3.485   0.487  13.211 -0.8961  1.2642 -0.8150
14297TIP3   OH264305   5.157   0.527  14.340 -0.2488 -0.2989 -0.4442
14297TIP3    H164306   5.165   0.433  14.325 -1.2205 -0.6924  1.2218
14297TIP3    H264307   5.211   0.543  14.418  1.0083  0.7956 -1.4939
14298TIP3   OH264308   5.899   2.855  13.055 -1.0126 -0.1644 -0.0188
14298TIP3    H164309   5.835   2.791  13.023 -2.2464  0.8956  0.2168
14298TIP3    H264310   5.943   2.811  13.127 -0.7071 -1.3090 -0.8819
14299TIP3   OH264311   0.180   3.447   0.324 -0.4089  0.4584  0.3479
14299TIP3    H164312   0.209   3.531   0.358 -0.9180  1.0225 -0.5783
14299TIP3    H264313   0.086   3.458   0.309 -0.1157  0.4186 -1.7254
14300TIP3   OH264314   2.414   5.559  16.441  0.0010 -0.0049  0.3379
14300TIP3    H164315   2.460   5.614  16.378 -1.5825  0.7855 -0.1810
14300TIP3    H264316   2.484   5.522  16.496  1.1351  2.7655  0.9363
14301TIP3   OH264317   2.418   2.718   1.711  0.1720  0.3185 -0.1347
14301TIP3    H164318   2.512   2.700   1.705  0.2543  0.2442  1.1782
14301TIP3    H264319   2.381   2.641   1.754 -1.1050 -1.3101 -3.7508
14302TIP3   OH264320   1.494   0.286  15.776  0.3750  0.5291 -0.2053
14302TIP3    H164321   1.497   0.233  15.856  0.4196  0.9813  0.1001
14302TIP3    H264322   1.406   0.273  15.741  0.6036 -0.2593 -0.4870
14303TIP3   OH264323   2.529   1.835  16.681 -0.3209 -0.6476  0.0164
14303TIP3    H164324   2.514   1.877  16.766 -0.3923 -0.0656 -0.2730
14303TIP3    H264325   2.470   1.760  16.680  0.6766 -1.4771  1.0406
14304TIP3   OH264326   0.561   2.207   4.312 -0.5676  0.4690  0.5742
14304TIP3    H164327   0.623   2.221   4.240  1.3825 -0.5453  1.9530
14304TIP3    H264328   0.519   2.292   4.325 -1.8387  0.4245 -2.4441
14305TIP3   OH264329   4.909   5.252   1.698 -0.3901 -0.6934 -0.4882
14305TIP3    H164330   5.001   5.244   1.724  0.2630  1.2469 -2.0166
14305TIP3    H264331   4.862   5.265   1.781  1.0776  1.0627  0.1351
14306TIP3   OH264332   5.292   1.475  16.133  0.0783  0.3587 -0.2912
14306TIP3    H164333   5.340   1.419  16.072  0.0210 -0.3369  0.2807
14306TIP3    H264334   5.237   1.414  16.182  0.7786  0.7859  1.0738
14307TIP3   OH264335   6.160   3.813  16.598 -0.0564 -0.1715 -0.0912
14307TIP3    H164336   6.138   3.764  16.678 -2.5734  0.4189 -0.3434
14307TIP3    H264337   6.255   3.825  16.603  0.3905 -3.2527  0.9899
14308TIP3   OH264338   1.455   6.432  17.339  0.5918 -0.2786  0.2792
14308TIP3    H164339   1.389   6.386  17.287 -1.1597  0.1186  2.0310
14308TIP3    H264340   1.478   6.508  17.286  0.4967 -1.0103 -0.8520
14309TIP3   OH264341   0.503   2.837  11.156  1.0496 -0.4218 -0.4197
14309TIP3    H164342   0.580   2.877  11.117  0.6219  0.6832 -0.1590
14309TIP3    H264343   0.432   2.854  11.095  0.4986  0.8071  0.5163
14310TIP3   OH264344   0.475   3.805  15.149  0.3743 -0.4275  0.4333
14310TIP3    H164345   0.545   3.825  15.087  0.6231  1.7634  1.3053
14310TIP3    H264346   0.520   3.771  15.226  0.3926  0.0189  0.6220
14311TIP3   OH264347   2.240   0.887   5.013 -0.0771 -0.8957 -0.1971
14311TIP3    H164348   2.325   0.928   5.029 -0.0668 -0.4587 -1.2435
14311TIP3    H264349   2.255   0.793   5.022  0.6501 -0.8534 -0.8865
14312TIP3   OH264350   3.268   3.286   0.886  0.2523  0.2765  0.6965
14312TIP3    H164351   3.222   3.312   0.806  0.7040 -0.3208  0.2327
14312TIP3    H264352   3.202   3.293   0.955 -0.2102  0.5630  0.2333
14313TIP3   OH264353   3.644   2.693   5.192  0.1810 -0.0454 -0.1558
14313TIP3    H164354   3.588   2.703   5.116 -0.8709 -1.0936  0.4577
14313TIP3    H264355   3.696   2.615   5.174 -0.0566 -0.2861  0.1831
14314TIP3   OH264356   5.195   1.533   6.067 -0.2782 -0.0903  0.6909
14314TIP3    H164357   5.238   1.460   6.023  2.6292  1.0307  1.4149
14314TIP3    H264358   5.153   1.495   6.143 -0.5978 -1.2657 -0.0524
14315TIP3   OH264359   2.668   0.248  17.372 -1.2259  0.3862 -0.3473
14315TIP3    H164360   2.741   0.308  17.385 -0.4780 -0.1925 -1.6273
14315TIP3    H264361   2.681   0.214  17.283 -0.3100 -3.3258  1.0205
14316TIP3   OH264362   0.984   5.608  14.272 -0.3648  0.5305  0.2591
14316TIP3    H164363   0.940   5.604  14.357  0.4756 -0.2381  0.6828
14316TIP3    H264364   1.056   5.669  14.286 -1.6215  2.2806 -0.6108
14317TIP3   OH264365   4.382   5.135   1.737  0.9219 -0.7841  0.2642
14317TIP3    H164366   4.468   5.158   1.771  0.7431  0.4500 -0.0878
14317TIP3    H264367   4.377   5.177   1.651 -0.4414  0.1049  0.7428
14318TIP3   OH264368   5.117   1.664   0.290 -0.2265 -0.6172  0.3479
14318TIP3    H164369   5.041   1.712   0.324 -0.2593 -0.6565  0.3312
14318TIP3    H264370   5.083   1.619   0.212  0.0959  0.2891 -0.3344
14319TIP3   OH264371   3.344   5.887   1.545  0.2013 -0.3267 -0.3867
14319TIP3    H164372   3.281   5.819   1.523 -1.8857  1.2240  0.4687
14319TIP3    H264373   3.325   5.959   1.484  1.4138  0.0418 -0.3674
14320TIP3   OH264374   5.069   5.448  12.599  0.4911  0.3084  0.1901
14320TIP3    H164375   4.974   5.446  12.584  0.3858  0.5184  0.7986
14320TIP3    H264376   5.097   5.358  12.585  0.2010  0.2461 -0.0035
14321TIP3   OH264377   1.320   5.340   1.740  0.0297  0.5199 -0.7140
14321TIP3    H164378   1.233   5.315   1.770  0.3747  0.4734  0.2990
14321TIP3    H264379   1.367   5.257   1.734  0.1396  0.5875 -0.7789
14322TIP3   OH264380   2.499   0.457   4.173 -0.0133 -0.2403 -0.2925
14322TIP3    H164381   2.529   0.492   4.257  0.6759 -0.3845 -0.4753
14322TIP3    H264382   2.515   0.363   4.179  1.2681 -0.0892 -1.0763
14323TIP3   OH264383   4.396   4.826   3.465 -0.4924  0.1265 -1.0433
14323TIP3    H164384   4.308   4.788   3.466 -0.1705 -0.6432 -0.8586
14323TIP3    H264385   4.451   4.759   3.424 -0.1375  0.9568 -1.9625
14324TIP3   OH264386   2.518   2.623   5.859 -0.0696  0.0380 -0.2127
14324TIP3    H164387   2.554   2.582   5.937  1.5038  0.7361 -0.5359
14324TIP3    H264388   2.424   2.631   5.877  0.3250  0.6335  1.8239
14325TIP3   OH264389   1.826   1.294  12.894  0.1053 -0.2469  0.8163
14325TIP3    H164390   1.758   1.316  12.957  0.2405 -3.1360  2.1235
14325TIP3    H264391   1.784   1.303  12.808 -2.1045 -2.2528  1.5860
14326TIP3   OH264392   5.266   6.671   3.909 -0.4277 -0.5833  0.4749
14326TIP3    H164393   5.313   6.753   3.902  2.1201 -1.9914 -0.0098
14326TIP3    H264394   5.242   6.649   3.819 -0.2870 -0.8133  0.4922
14327TIP3   OH264395   6.668   4.462   5.195 -0.3108 -0.3542 -0.4283
14327TIP3    H164396   6.687   4.512   5.116  0.9405 -0.1896 -0.0374
14327TIP3    H264397   6.592   4.506   5.233 -0.0901  0.3919 -0.8327
14328TIP3   OH264398   2.806   2.126  12.182  0.5173 -0.6561  0.0447
14328TIP3    H164399   2.736   2.099  12.241 -1.0861 -0.0781 -1.5148
14328TIP3    H264400   2.798   2.222  12.177  1.2904 -0.6002 -0.3389
14329TIP3   OH264401   3.936   0.885   3.842  0.5289  0.3833  0.4422
14329TIP3    H164402   3.963   0.798   3.812 -1.4972 -0.1374 -0.0119
14329TIP3    H264403   3.986   0.945   3.788  0.6624 -0.5205 -0.4798
14330TIP3   OH264404   3.819   3.480   6.214 -0.2211  0.1648 -0.0379
14330TIP3    H164405   3.813   3.575   6.219  0.6431  0.1637  1.8623
14330TIP3    H264406   3.877   3.455   6.287 -0.0544 -1.7782 -0.7611
14331TIP3   OH264407   0.167   3.883   0.145 -0.0486  0.0830 -0.1574
14331TIP3    H164408   0.256   3.917   0.138 -1.0072  2.7989 -0.5427
14331TIP3    H264409   0.153   3.870   0.239  0.9972 -1.1823 -0.1608
14332TIP3   OH264410   4.311   1.448   5.923 -0.1265  0.0104  0.3291
14332TIP3    H164411   4.314   1.507   5.998  0.2134 -0.4386  0.6772
14332TIP3    H264412   4.229   1.469   5.879  0.0997  0.9027  0.3087
14333TIP3   OH264413   4.627   5.493   5.069  0.2644  0.1891 -0.3380
14333TIP3    H164414   4.544   5.529   5.099  0.0791  0.0105 -0.6315
14333TIP3    H264415   4.692   5.559   5.093  0.1479 -0.0294  0.6270
14334TIP3   OH264416   4.908   4.630   0.013  0.1055 -0.6203  0.3252
14334TIP3    H164417   4.941   4.691  -0.053 -3.0554  1.2652  0.2829
14334TIP3    H264418   4.911   4.544  -0.029  0.7292  0.1212 -1.2118
14335TIP3   OH264419   4.868   3.238   6.193 -0.3889 -0.0273  0.4045
14335TIP3    H164420   4.892   3.152   6.228 -0.6549 -0.2432  0.0737
14335TIP3    H264421   4.783   3.257   6.233 -0.0587  0.3493  0.9275
14336TIP3   OH264422   0.059   1.309   2.018  0.1083  0.3505  0.3674
14336TIP3    H164423   0.146   1.310   1.978 -0.2229  1.9800 -0.4077
14336TIP3    H264424   0.009   1.246   1.966  0.1511  1.2349 -0.7872
14337TIP3   OH264425   2.076   4.732  13.279 -0.4953  0.2670 -0.1476
14337TIP3    H164426   1.989   4.705  13.251  0.1061 -1.7243 -0.2718
14337TIP3    H264427   2.113   4.777  13.203 -1.1105  0.4005 -0.3711
14338TIP3   OH264428   2.036   6.148  13.147 -0.7095  0.3078  0.1919
14338TIP3    H164429   1.956   6.095  13.147 -0.8781  0.5616 -0.1116
14338TIP3    H264430   2.026   6.206  13.072 -0.4749  0.7019  0.4655
14339TIP3   OH264431   4.521   6.378  10.472 -0.1895  0.0866 -0.1471
14339TIP3    H164432   4.604   6.371  10.425 -0.6142  1.2617 -1.1155
14339TIP3    H264433   4.544   6.419  10.555  0.5613 -1.9809  0.7496
14340TIP3   OH264434   2.654   6.634  16.532 -0.3970 -0.0392 -0.1205
14340TIP3    H164435   2.648   6.622  16.437 -0.0256  0.5026 -0.2185
14340TIP3    H264436   2.635   6.548  16.568  1.4777 -0.7801 -0.7729
14341TIP3   OH264437   6.344   6.373  10.562 -0.2831  0.0476  0.2904
14341TIP3    H164438   6.357   6.351  10.654  1.8382 -0.4071 -0.0722
14341TIP3    H264439   6.383   6.460  10.553 -0.4147  0.0549 -0.2125
14342TIP3   OH264440   5.436   0.070   4.650  0.3647 -0.2119  0.0251
14342TIP3    H164441   5.498   0.135   4.683  0.5371 -0.5417  0.3547
14342TIP3    H264442   5.411   0.103   4.564  1.2657 -0.2575 -0.2656
14343TIP3   OH264443   3.628   3.328   2.691  0.0676 -0.3721  0.1685
14343TIP3    H164444   3.658   3.324   2.600  0.0074 -3.5465  0.1678
14343TIP3    H264445   3.532   3.324   2.684  0.0446 -0.2196  0.3846
14344TIP3   OH264446   1.042   6.201   0.331 -0.2357  0.2347 -0.1856
14344TIP3    H164447   0.959   6.207   0.284 -0.5847 -0.1763  0.3771
14344TIP3    H264448   1.045   6.112   0.363 -0.2842  0.6847  1.1047
14345TIP3   OH264449   5.632   3.262  15.605  0.0873  0.4418 -0.2192
14345TIP3    H164450   5.707   3.272  15.547  1.2755  0.2744  1.2287
14345TIP3    H264451   5.665   3.211  15.679 -2.5353 -3.5288 -1.4922
14346TIP3   OH264452   0.735   2.011  10.768  0.4433  0.3211 -0.1092
14346TIP3    H164453   0.725   1.934  10.825  0.5508  0.4570  0.0979
14346TIP3    H264454   0.647   2.049  10.764  0.5475  0.6418  0.4476
14347TIP3   OH264455   3.663   1.324   0.380  0.0505  0.4860 -0.3137
14347TIP3    H164456   3.735   1.387   0.383 -0.7043  1.3951 -0.6502
14347TIP3    H264457   3.608   1.355   0.308  0.0159 -0.9710 -0.9395
14348TIP3   OH264458   0.132   5.014  14.294  0.4963  0.8009 -0.3035
14348TIP3    H164459   0.061   4.978  14.348  1.0595  0.2913  0.1194
14348TIP3    H264460   0.100   5.005  14.204 -0.4584  1.6685 -0.0746
14349TIP3   OH264461   1.681   0.401  12.766 -0.2456 -0.0798 -0.0492
14349TIP3    H164462   1.743   0.466  12.734 -0.8229  0.4322 -0.1471
14349TIP3    H264463   1.660   0.348  12.688  1.6524 -1.6142  0.4070
14350TIP3   OH264464   1.836   5.192  15.731 -0.3659 -0.2511 -0.3251
14350TIP3    H164465   1.813   5.252  15.802  0.1775 -0.6814  0.2307
14350TIP3    H264466   1.904   5.136  15.769 -1.1894 -1.5270 -0.6871
14351TIP3   OH264467   5.603   0.962   4.689  0.0344 -0.1218  0.5757
14351TIP3    H164468   5.544   0.989   4.760 -1.6397  0.5679 -1.0077
14351TIP3    H264469   5.680   1.018   4.700  0.5602 -1.1591  2.7995
14352TIP3   OH264470   5.925   2.363  14.101 -0.2401 -0.2977 -0.2165
14352TIP3    H164471   6.017   2.360  14.076 -0.3380  1.4468 -0.9383
14352TIP3    H264472   5.926   2.384  14.195  0.0946  0.6722 -0.4349
14353TIP3   OH264473   3.498   6.287   5.630  0.3862 -0.2609 -0.0033
14353TIP3    H164474   3.466   6.216   5.685  0.5988 -0.5285 -0.2221
14353TIP3    H264475   3.422   6.316   5.580 -0.8169  2.5002  3.0453
14354TIP3   OH264476   5.795   4.240  16.806 -0.1456 -0.3041  0.1732
14354TIP3    H164477   5.768   4.256  16.716  0.2969 -1.4194 -0.1763
14354TIP3    H264478   5.871   4.296  16.820 -0.5237  0.2507  0.0274
14355TIP3   OH264479   0.263   3.742  10.507  0.8140  0.2886 -0.5336
14355TIP3    H164480   0.336   3.797  10.535 -0.3033  1.0561  1.0196
14355TIP3    H264481   0.252   3.763  10.414  4.7642 -2.4773 -1.9477
14356TIP3   OH264482   6.285   0.381   2.736  0.0362 -0.1879  0.3800
14356TIP3    H164483   6.271   0.474   2.751 -0.2766  0.1422 -1.6945
14356TIP3    H264484   6.213   0.338   2.783 -2.3427  0.9098 -2.0217
14357TIP3   OH264485   2.113   1.714   0.408 -0.8146  0.4600 -0.5128
14357TIP3    H164486   2.077   1.681   0.326 -0.0006 -1.1706 -0.2562
14357TIP3    H264487   2.079   1.653   0.475 -1.3430  1.6676  0.3527
14358TIP3   OH264488   3.626   4.387   0.901 -0.0905 -0.3540  0.6209
14358TIP3    H164489   3.611   4.437   0.981 -1.0894 -0.7917  0.7287
14358TIP3    H264490   3.707   4.422   0.865 -0.5836  1.0999  0.8747
14359TIP3   OH264491   2.078   5.082  15.831 -0.2003 -0.7956 -0.3967
14359TIP3    H164492   2.082   5.159  15.887 -1.3951 -1.2058  0.2859
14359TIP3    H264493   2.113   5.011  15.886 -0.6912 -1.0613 -0.4251
14360TIP3   OH264494   5.637   5.578  11.400 -0.3554 -0.0851  0.2635
14360TIP3    H164495   5.709   5.576  11.337 -0.2644 -1.2684  0.3811
14360TIP3    H264496   5.626   5.487  11.427 -2.7073 -0.1566 -0.6716
14361TIP3   OH264497   0.216   2.174   5.643 -0.3149  0.5885  0.6421
14361TIP3    H164498   0.177   2.225   5.573 -2.3879  0.4512  1.6141
14361TIP3    H264499   0.144   2.159   5.705  0.8176 -1.4162  1.5747
14362TIP3   OH264500   2.709   2.642  11.592 -0.4965 -0.3971  0.6916
14362TIP3    H164501   2.684   2.655  11.683 -0.3919  0.1083  0.6524
14362TIP3    H264502   2.725   2.548  11.584  0.4026 -0.3111  1.4190
14363TIP3   OH264503   1.746   0.072   4.639 -0.9426 -0.2431 -0.9148
14363TIP3    H164504   1.739   0.052   4.546  0.1105 -0.0870 -1.0363
14363TIP3    H264505   1.833   0.111   4.649 -2.7884  4.3720 -0.6956
14364TIP3   OH264506   5.150   3.391  12.926  0.2170  0.5691 -0.2473
14364TIP3    H164507   5.117   3.476  12.898  1.3966  0.6642 -1.4798
14364TIP3    H264508   5.133   3.332  12.853  0.5987  0.0679  0.0517
14365TIP3   OH264509   6.165   3.227  16.169 -0.2810  0.1899 -0.6457
14365TIP3    H164510   6.254   3.238  16.136 -0.3506 -1.5543 -1.5367
14365TIP3    H264511   6.154   3.132  16.177 -0.7833  0.3948  3.0821
14366TIP3   OH264512   3.566   2.355   0.747 -0.3178 -0.0336 -0.2586
14366TIP3    H164513   3.579   2.288   0.680 -0.7552  0.1843 -0.5688
14366TIP3    H264514   3.476   2.385   0.733 -0.3009  0.2426  0.2176
14367TIP3   OH264515   1.275   6.009  13.332 -0.2633 -0.1381 -0.0445
14367TIP3    H164516   1.213   6.081  13.324  0.2982  0.3492 -0.1182
14367TIP3    H264517   1.300   6.009  13.424  0.3073  0.2602 -0.1895
14368TIP3   OH264518   0.842   4.646  13.730 -0.1746 -0.3036 -0.0891
14368TIP3    H164519   0.750   4.646  13.758 -0.1966 -1.4592 -0.1069
14368TIP3    H264520   0.890   4.613  13.807  0.5047  2.1912  0.6527
14369TIP3   OH264521   0.553   2.309   2.850  0.7933  0.9143 -0.1135
14369TIP3    H164522   0.534   2.237   2.791 -3.4150  1.4479  0.3047
14369TIP3    H264523   0.623   2.276   2.907  1.3537 -1.5014 -2.0499
14370TIP3   OH264524   2.252   5.253   0.685 -0.6186  0.1088  0.5472
14370TIP3    H164525   2.218   5.184   0.741  1.5251 -0.6898  0.9605
14370TIP3    H264526   2.240   5.219   0.596 -2.8761  0.8425  0.4952
14371TIP3   OH264527   3.138   2.916   4.092  0.5231 -0.2628  0.2573
14371TIP3    H164528   3.089   2.924   4.010  2.4751  0.3488 -0.9141
14371TIP3    H264529   3.087   2.967   4.155 -0.2725  0.4775 -0.9351
14372TIP3   OH264530   2.860   3.647   5.567 -0.3231 -0.5416 -0.1233
14372TIP3    H164531   2.936   3.625   5.512 -1.2948 -1.0859 -1.2953
14372TIP3    H264532   2.869   3.590   5.644  0.9658  0.1086  0.2381
14373TIP3   OH264533   5.576   1.650  17.379  0.3610  0.0856  0.1496
14373TIP3    H164534   5.584   1.672  17.286 -0.5938  0.7732  0.2150
14373TIP3    H264535   5.657   1.605  17.400 -0.7319 -3.2154 -1.8627
14374TIP3   OH264536   2.515   0.241  15.559 -0.4987  0.1183 -0.3598
14374TIP3    H164537   2.501   0.189  15.480  0.0744  0.3670 -0.6293
14374TIP3    H264538   2.463   0.197  15.626 -0.1674 -0.7011 -0.6272
14375TIP3   OH264539   1.546   5.420   6.441  0.4779  0.3308  0.1378
14375TIP3    H164540   1.468   5.440   6.389  1.6259  0.2974 -1.6805
14375TIP3    H264541   1.537   5.327   6.461 -1.0696  0.7976  2.0311
14376TIP3   OH264542   2.499   4.707  12.367 -0.2727 -0.0709 -0.5953
14376TIP3    H164543   2.425   4.649  12.351  0.2714 -0.8871 -0.2228
14376TIP3    H264544   2.554   4.696  12.289  0.1378 -0.5412 -0.2417
14377TIP3   OH264545   5.177   3.107   2.850 -0.1160 -0.8872 -0.0849
14377TIP3    H164546   5.252   3.127   2.907  1.7896 -0.9673 -2.3773
14377TIP3    H264547   5.186   3.169   2.777 -2.4266 -0.7964 -0.3668
14378TIP3   OH264548   4.443   2.465   2.447 -0.0613  0.2109  0.0446
14378TIP3    H164549   4.522   2.517   2.434 -0.0562  0.1038 -0.3514
14378TIP3    H264550   4.443   2.444   2.541  1.8795 -2.1812 -0.3976
14379TIP3   OH264551   5.309   4.614  16.299  0.1203 -0.6603 -0.0480
14379TIP3    H164552   5.218   4.638  16.284 -0.2482 -1.2020  1.1888
14379TIP3    H264553   5.321   4.621  16.394  2.2046  2.2967 -0.3989
14380TIP3   OH264554   6.203   5.557  14.613  0.4391 -0.2930 -0.2654
14380TIP3    H164555   6.181   5.494  14.544  0.5826 -0.5842 -0.0454
14380TIP3    H264556   6.149   5.633  14.593  0.7417 -0.2384 -0.9109
14381TIP3   OH264557   0.888   1.726  11.443 -0.0779 -0.1330 -0.0601
14381TIP3    H164558   0.935   1.666  11.385  1.4763  2.4738 -1.7731
14381TIP3    H264559   0.820   1.764  11.387 -0.9955 -0.2349  0.9619
14382TIP3   OH264560   5.026   3.041  16.221  0.1180 -0.1642 -0.3714
14382TIP3    H164561   4.960   3.105  16.249  0.4621  0.5325 -1.1205
14382TIP3    H264562   5.014   3.034  16.126 -0.3341 -1.7044 -0.2449
14383TIP3   OH264563   4.804   2.710   4.111 -0.0483  0.6129  0.2209
14383TIP3    H164564   4.877   2.750   4.158  0.0107 -1.2376  1.8215
14383TIP3    H264565   4.845   2.654   4.045 -0.0297  0.4702  0.3515
14384TIP3   OH264566   1.969   1.419  15.850 -0.4233  0.2390  0.0080
14384TIP3    H164567   1.957   1.363  15.927  0.2801 -1.2272 -0.9015
14384TIP3    H264568   2.004   1.360  15.783 -1.9743  1.2221 -1.7728
14385TIP3   OH264569   6.125   5.098   0.459  0.0634 -0.6354  0.3815
14385TIP3    H164570   6.156   5.011   0.482 -0.3383 -0.9858 -0.3634
14385TIP3    H264571   6.149   5.109   0.367  0.3230  0.1355  0.5337
14386TIP3   OH264572   4.057   1.604  11.750 -0.5455  0.6904  0.0843
14386TIP3    H164573   4.082   1.526  11.702  0.5997  0.9988  0.1624
14386TIP3    H264574   3.986   1.574  11.808  0.2978 -0.4434  0.5668
14387TIP3   OH264575   1.324   3.897   1.787  0.3125  0.6219 -0.2248
14387TIP3    H164576   1.252   3.850   1.827  0.1384  0.0629 -1.1583
14387TIP3    H264577   1.379   3.829   1.749  1.6816  0.9984  1.0055
14388TIP3   OH264578   4.793   4.731  15.930 -0.0899 -0.4785 -0.3462
14388TIP3    H164579   4.720   4.770  15.978  0.0217  0.3726 -0.8532
14388TIP3    H264580   4.864   4.725  15.995 -0.3264 -0.4787 -0.0873
14389TIP3   OH264581   2.000   5.684   5.120 -0.6250  0.3493 -0.1615
14389TIP3    H164582   1.961   5.631   5.189  0.1990 -2.0505 -1.4275
14389TIP3    H264583   1.998   5.628   5.042  0.4332  2.1362 -1.5519
14390TIP3   OH264584   0.659   0.290   5.806  1.0169 -0.4283  0.0318
14390TIP3    H164585   0.601   0.346   5.754  0.5993 -0.2636  0.6594
14390TIP3    H264586   0.600   0.236   5.858  1.4201 -0.1004  0.8550
14391TIP3   OH264587   1.835   0.758   4.586 -0.5628 -0.6796 -0.1695
14391TIP3    H164588   1.821   0.851   4.606 -1.9848 -0.8245 -0.3856
14391TIP3    H264589   1.874   0.722   4.666 -2.1548 -0.3563  0.8106
14392TIP3   OH264590   5.455   5.724  10.997 -0.6569  0.6872 -0.2602
14392TIP3    H164591   5.405   5.805  10.994  1.0695  1.7812 -1.7160
14392TIP3    H264592   5.520   5.739  11.066 -0.0611  0.7285 -0.8233
14393TIP3   OH264593   2.781   5.573  12.780  0.3058 -0.7636 -0.5043
14393TIP3    H164594   2.689   5.548  12.772 -0.1594  0.5846  0.3949
14393TIP3    H264595   2.829   5.493  12.758 -1.0487 -1.3105 -1.6789
14394TIP3   OH264596   0.410   0.099  15.367 -0.1715 -0.2651 -0.3506
14394TIP3    H164597   0.332   0.091  15.312 -0.5061  1.3322 -0.1512
14394TIP3    H264598   0.424   0.193  15.376  0.6201 -0.4954  1.2637
14395TIP3   OH264599   0.490   1.989  12.703  0.0126  0.2072 -0.0110
14395TIP3    H164600   0.397   2.002  12.722  0.0563  0.4831  0.0206
14395TIP3    H264601   0.517   2.069  12.659 -0.0244 -0.3155 -1.0071
14396TIP3   OH264602   1.281   2.609   1.717 -0.0994  0.2786 -0.1194
14396TIP3    H164603   1.208   2.660   1.683  0.9228  0.7317 -1.7413
14396TIP3    H264604   1.278   2.527   1.668  0.5535  0.3455 -0.2763
14397TIP3   OH264605   1.495   6.225   1.770 -0.3339 -0.1102  0.0437
14397TIP3    H164606   1.464   6.313   1.794  1.4242  0.2148  1.3207
14397TIP3    H264607   1.580   6.240   1.730 -1.2709 -1.0513 -2.5216
14398TIP3   OH264608   0.359   2.942  14.103  0.0506  0.6434 -0.3225
14398TIP3    H164609   0.440   2.913  14.145  0.3361  0.1944 -1.1696
14398TIP3    H264610   0.344   2.879  14.033 -1.5513  0.1574  0.4059
14399TIP3   OH264611   4.420   3.947  15.580  0.0992  0.5922  0.6982
14399TIP3    H164612   4.413   4.042  15.580  0.0357  0.5867  0.6050
14399TIP3    H264613   4.333   3.916  15.602  0.0404  0.5483  0.4071
14400TIP3   OH264614   5.542   6.753  14.958  0.5196  0.3343  0.0352
14400TIP3    H164615   5.635   6.751  14.982  0.6966  1.7742 -0.3964
14400TIP3    H264616   5.525   6.668  14.918  2.0701  0.5864 -1.2559
14401TIP3   OH264617   3.319   3.834   1.802  0.1118 -0.6068  0.4440
14401TIP3    H164618   3.316   3.810   1.895  1.0021  4.1829  1.9794
14401TIP3    H264619   3.240   3.887   1.788  1.2453  0.8880 -0.7185
14402TIP3   OH264620   3.522   5.829   4.564 -0.4690  0.5364  0.1210
14402TIP3    H164621   3.562   5.747   4.592  0.7825  1.1306  0.1372
14402TIP3    H264622   3.587   5.896   4.584 -1.2339  1.4705 -0.4175
14403TIP3   OH264623   6.274   0.193   2.527  0.2019  0.3862 -0.1766
14403TIP3    H164624   6.254   0.266   2.587 -1.5813 -0.2709  0.1055
14403TIP3    H264625   6.322   0.131   2.581  0.5587  0.7618 -0.0526
14404TIP3   OH264626   4.036   6.180   3.442  0.1684  1.0727 -0.0368
14404TIP3    H164627   4.040   6.157   3.535 -0.9139  3.8706  0.7895
14404TIP3    H264628   4.122   6.215   3.422  1.1007 -1.3824 -0.7363
14405TIP3   OH264629   0.709   6.601   4.888 -0.1693  0.4776  0.1874
14405TIP3    H164630   0.684   6.680   4.840  0.1878  0.1297 -0.5786
14405TIP3    H264631   0.669   6.529   4.838  1.0236  0.0325 -0.1619
14406TIP3   OH264632   0.598   0.294  14.207  0.3549  0.3058  0.0898
14406TIP3    H164633   0.565   0.348  14.279  1.9647 -0.4967  1.5100
14406TIP3    H264634   0.616   0.355  14.137 -1.1903  1.1285  0.3698
14407TIP3   OH264635   2.708   2.390   4.725  0.1315  0.7592 -0.3174
14407TIP3    H164636   2.733   2.479   4.748  0.9689  0.3719  0.3430
14407TIP3    H264637   2.703   2.344   4.809 -0.3413  0.1910 -0.6418
14408TIP3   OH264638   3.515   5.297   2.987  0.1976 -0.4524 -0.2413
14408TIP3    H164639   3.453   5.225   2.986 -0.0503 -0.2418 -1.3617
14408TIP3    H264640   3.460   5.376   2.987  0.4561 -0.2657 -0.9531
14409TIP3   OH264641   6.079   6.642  15.870 -0.0153  0.0071 -0.0022
14409TIP3    H164642   6.118   6.599  15.793 -2.4005  0.1760 -1.3942
14409TIP3    H264643   6.069   6.733  15.845 -1.5953 -0.0960  0.1370
14410TIP3   OH264644   0.033   0.526   5.529  0.2228 -0.5344  0.0998
14410TIP3    H164645   0.032   0.553   5.621 -2.5888  0.2334 -0.0852
14410TIP3    H264646   0.043   0.608   5.480 -3.5594 -0.1496 -0.3203
14411TIP3   OH264647   1.703   4.885   2.172  0.3415 -0.0355 -0.1522
14411TIP3    H164648   1.657   4.813   2.215  1.8392 -0.4407  0.8610
14411TIP3    H264649   1.796   4.866   2.188  0.8010  1.5141 -0.8620
14412TIP3   OH264650   1.576   2.146  14.088 -0.2579 -0.0378  0.0448
14412TIP3    H164651   1.543   2.236  14.090  0.3802  0.1951  0.2643
14412TIP3    H264652   1.644   2.143  14.155 -2.0396 -1.3855  1.9204
14413TIP3   OH264653   0.300   6.547   5.899 -0.0634 -0.1344 -0.5929
14413TIP3    H164654   0.370   6.483   5.903  0.7285  0.7479 -0.0377
14413TIP3    H264655   0.234   6.516   5.961  0.6965  0.0296  0.3068
14414TIP3   OH264656   4.329   2.608  15.218  1.0670  0.6075  0.1524
14414TIP3    H164657   4.321   2.703  15.215 -0.7363  0.5538  1.6014
14414TIP3    H264658   4.309   2.579  15.129  0.3153  1.5333  0.0052
14415TIP3   OH264659   6.168   4.600   1.060  0.2078 -0.0421  0.0903
14415TIP3    H164660   6.077   4.608   1.090  0.2121 -3.3431  1.3959
14415TIP3    H264661   6.201   4.690   1.059 -2.8549  1.2064  0.1617
14416TIP3   OH264662   1.334   0.390   2.301  0.2682 -0.1946 -0.3767
14416TIP3    H164663   1.426   0.399   2.326  0.7658  0.2303 -2.2101
14416TIP3    H264664   1.328   0.303   2.262 -0.8749 -1.5543  2.5849
14417TIP3   OH264665   1.848   0.704  12.347 -0.5750 -0.5964 -0.1361
14417TIP3    H164666   1.852   0.717  12.441 -0.3393  0.4106 -0.2769
14417TIP3    H264667   1.755   0.693  12.328 -0.5328 -1.9242  0.3448
14418TIP3   OH264668   3.230   3.152  14.841  0.4809  0.1146  0.5054
14418TIP3    H164669   3.282   3.221  14.801  0.1347 -0.0470 -0.2527
14418TIP3    H264670   3.293   3.099  14.890  1.0235 -0.0268 -0.3259
14419TIP3   OH264671   0.764   6.711  17.374  0.3523  0.7494  0.7686
14419TIP3    H164672   0.737   6.772  17.305  3.4627  2.8947  1.2434
14419TIP3    H264673   0.817   6.646  17.329  1.2085  1.3417  0.8941
14420TIP3   OH264674   2.255   5.386   1.592 -0.1255 -0.2733 -0.1573
14420TIP3    H164675   2.294   5.444   1.657  0.1769 -1.1857  0.5061
14420TIP3    H264676   2.173   5.356   1.633 -0.3493 -0.2004 -0.5475
14421TIP3   OH264677   2.497   4.490  15.048  0.2335  0.2663  0.7458
14421TIP3    H164678   2.587   4.512  15.070  0.7223 -1.5177  0.6509
14421TIP3    H264679   2.503   4.444  14.965 -0.7801  0.2157  0.6884
14422TIP3   OH264680   4.107   2.636   1.306 -0.5176 -0.1246  0.0987
14422TIP3    H164681   4.168   2.658   1.236 -1.1548  0.0267 -0.4263
14422TIP3    H264682   4.041   2.581   1.264 -1.0895  0.2404  0.4988
14423TIP3   OH264683   5.691   2.927   1.940  0.3184 -0.4111 -0.0290
14423TIP3    H164684   5.597   2.936   1.925  0.3974 -0.5425 -0.6416
14423TIP3    H264685   5.731   2.958   1.858  0.8578  0.8862  0.6860
14424TIP3   OH264686   2.835   4.627  12.354  0.3184  0.0700  0.3313
14424TIP3    H164687   2.890   4.616  12.432 -1.2652 -2.6065  1.2441
14424TIP3    H264688   2.792   4.712  12.366  3.1900  1.6607  0.1793
14425TIP3   OH264689   3.741   1.627   4.662 -0.3295 -0.5105  0.4668
14425TIP3    H164690   3.822   1.576   4.658  0.2107  0.2509  1.2034
14425TIP3    H264691   3.766   1.715   4.633 -0.5762  0.0697  1.9180
14426TIP3   OH264692   5.534   5.295   4.397  0.4021 -0.5536 -0.0561
14426TIP3    H164693   5.489   5.297   4.481  2.2105  0.2205  0.9619
14426TIP3    H264694   5.547   5.387   4.374 -1.0161 -0.7179 -1.7840
14427TIP3   OH264695   0.992   6.086  16.227  0.2400 -0.2935 -0.5959
14427TIP3    H164696   0.975   6.092  16.320  0.9465  0.4168 -0.4981
14427TIP3    H264697   1.038   6.168  16.205  0.1999 -0.5028 -1.5321
14428TIP3   OH264698   2.686   0.317   1.599 -0.8258 -0.1243 -0.1102
14428TIP3    H164699   2.723   0.403   1.620 -0.1489  0.2858 -2.6977
14428TIP3    H264700   2.601   0.317   1.643 -0.9080  1.9282 -0.1561
14429TIP3   OH264701   2.508   5.637  15.917  0.1441  0.2450 -0.0196
14429TIP3    H164702   2.598   5.620  15.890  0.5830  0.8247  1.0178
14429TIP3    H264703   2.466   5.671  15.839  1.0793  0.8318 -0.2836
14430TIP3   OH264704   5.610   0.287   5.869 -0.5594 -0.0974  0.6779
14430TIP3    H164705   5.658   0.264   5.948  2.3700  2.7483 -0.0970
14430TIP3    H264706   5.530   0.329   5.902 -2.1509 -3.7180  1.9826
14431TIP3   OH264707   4.508   5.913  17.297 -0.0364 -0.4228 -0.3605
14431TIP3    H164708   4.524   5.955  17.382 -1.4055 -0.6186  0.0316
14431TIP3    H264709   4.534   5.978  17.232 -0.2210  0.2556  0.2288
14432TIP3   OH264710   5.530   5.248   1.236 -0.3165 -0.0076 -0.4132
14432TIP3    H164711   5.482   5.196   1.299  1.0288 -0.9540 -0.1277
14432TIP3    H264712   5.548   5.188   1.164 -1.5330  0.9636 -1.5815
14433TIP3   OH264713   1.250   6.463  12.783 -0.4518  0.1799 -0.2507
14433TIP3    H164714   1.273   6.417  12.702 -2.0018 -0.7619 -0.1919
14433TIP3    H264715   1.227   6.551  12.756 -1.4271 -0.2699 -0.9021
14434TIP3   OH264716   3.275   3.264   5.055  0.1117 -0.4287  0.6326
14434TIP3    H164717   3.260   3.346   5.008  1.6933  0.2159  1.1913
14434TIP3    H264718   3.191   3.218   5.051 -0.0020 -0.1542 -2.2882
14435TIP3   OH264719   6.524   6.413  13.984 -0.4180  0.6576 -0.2683
14435TIP3    H164720   6.559   6.494  13.948  2.1458 -0.7344 -1.2375
14435TIP3    H264721   6.531   6.350  13.912  2.8299 -1.7102  1.8356
14436TIP3   OH264722   0.793   4.725  11.204  0.0675 -0.0196  0.1014
14436TIP3    H164723   0.825   4.662  11.139 -0.2755  0.2942 -0.3765
14436TIP3    H264724   0.701   4.702  11.217  0.4751 -0.9535  1.5176
14437TIP3   OH264725   0.405   5.149  15.899  0.2399  0.3081  0.0135
14437TIP3    H164726   0.488   5.145  15.851  0.2867  0.7044  0.0567
14437TIP3    H264727   0.429   5.181  15.986 -0.0024  0.7867 -0.0907
14438TIP3   OH264728   0.772   3.997  11.239 -0.3973  0.1471  0.2249
14438TIP3    H164729   0.696   3.960  11.283 -0.4575  0.3348  0.2809
14438TIP3    H264730   0.743   4.010  11.148  0.7656 -3.4305 -0.8130
14439TIP3   OH264731   0.675   0.869   3.985 -0.1724  0.5958  0.4103
14439TIP3    H164732   0.669   0.964   3.992 -0.6062  0.4991  1.4947
14439TIP3    H264733   0.694   0.839   4.074  0.3086 -0.3110  0.0192
14440TIP3   OH264734   4.534   1.172  12.785 -0.6812  0.4666  0.0973
14440TIP3    H164735   4.502   1.151  12.697 -0.4947  0.1799  0.0965
14440TIP3    H264736   4.563   1.263  12.779  3.2453 -0.6622 -1.3052
14441TIP3   OH264737   1.009   3.482  15.903 -0.0226  0.6476  0.1481
14441TIP3    H164738   0.919   3.475  15.871  0.4211  1.1057 -1.2861
14441TIP3    H264739   1.062   3.440  15.835  0.9165  1.0568  0.6026
14442TIP3   OH264740   2.363   6.297  16.052  0.6327 -0.3520 -0.2029
14442TIP3    H164741   2.352   6.378  16.003 -0.7040 -1.6127 -2.0770
14442TIP3    H264742   2.275   6.262  16.062  1.2400 -1.8884  0.0305
14443TIP3   OH264743   6.495   4.471  14.925  0.2588  0.0975 -0.3885
14443TIP3    H164744   6.510   4.524  14.847  0.1379  0.2751 -0.2918
14443TIP3    H264745   6.571   4.414  14.931  0.7914  0.8286 -0.0263
14444TIP3   OH264746   5.792   0.199  13.650  0.2592 -0.2616 -0.1706
14444TIP3    H164747   5.882   0.200  13.682 -0.3477 -0.9595  1.7004
14444TIP3    H264748   5.769   0.107  13.643 -0.4046 -0.0911 -0.3601
14445TIP3   OH264749   3.562   1.156   5.218  0.2585 -0.2396  0.2386
14445TIP3    H164750   3.617   1.130   5.291  0.2061 -0.0633  0.3403
14445TIP3    H264751   3.617   1.214   5.165  0.2792 -0.3254  0.1656
14446TIP3   OH264752   0.758   2.785   4.355  0.1582  1.0582 -0.2120
14446TIP3    H164753   0.713   2.869   4.368 -0.5332  0.4376  1.6000
14446TIP3    H264754   0.745   2.737   4.436  3.4505  0.5001  0.1234
14447TIP3   OH264755   1.775   4.967  11.831 -0.6298 -0.0070 -0.2131
14447TIP3    H164756   1.849   4.910  11.853 -2.7280 -2.9460 -0.2296
14447TIP3    H264757   1.749   5.007  11.914  1.7855  2.3561 -0.4312
14448TIP3   OH264758   3.017   6.586  11.683  0.0447  0.1988  0.8492
14448TIP3    H164759   3.002   6.633  11.602  2.2579 -1.2040 -0.4781
14448TIP3    H264760   2.989   6.646  11.752 -2.7358  1.0893 -0.9234
14449TIP3   OH264761   3.367   2.646   4.487 -0.3892  0.3970 -0.1462
14449TIP3    H164762   3.437   2.617   4.429 -0.0049  1.1204 -0.0636
14449TIP3    H264763   3.411   2.702   4.551 -0.5158 -1.7274  1.9210
14450TIP3   OH264764   2.712   6.429  15.857 -0.2826  0.3568  0.3095
14450TIP3    H164765   2.754   6.409  15.941  2.8039  0.4604 -1.0765
14450TIP3    H264766   2.674   6.346  15.828  1.1086 -0.3830  0.5404
14451TIP3   OH264767   5.467   3.437  10.994  0.3044  0.6438 -0.6138
14451TIP3    H164768   5.502   3.420  11.081 -1.0510 -0.5026 -0.2514
14451TIP3    H264769   5.420   3.520  11.002 -2.7130 -1.0302  0.7531
14452TIP3   OH264770   0.813   2.069  15.964 -0.3026 -0.3394 -0.0568
14452TIP3    H164771   0.788   1.979  15.986  1.6800 -1.8321 -3.2330
14452TIP3    H264772   0.894   2.083  16.012 -1.0553  0.1615  1.1271
14453TIP3   OH264773   5.762   3.052   1.700  0.1181 -0.5534 -0.2161
14453TIP3    H164774   5.856   3.069   1.708 -0.0785 -0.0701  1.4611
14453TIP3    H264775   5.750   3.028   1.608  1.8497 -0.4713 -0.5028
14454TIP3   OH264776   5.476   3.349  10.664  0.1122 -0.4056  0.1250
14454TIP3    H164777   5.542   3.338  10.732  1.7124 -0.9478 -1.4354
14454TIP3    H264778   5.514   3.413  10.604 -0.5929 -1.0374 -1.0390
14455TIP3   OH264779   1.739   2.801  10.359  0.3454 -0.2738  0.2405
14455TIP3    H164780   1.786   2.871  10.405 -0.8612 -0.1594  1.3523
14455TIP3    H264781   1.659   2.843  10.326  1.2634 -0.2929 -2.2562
14456TIP3   OH264782   6.527   5.967  10.510 -0.6563  0.5406 -0.5069
14456TIP3    H164783   6.452   6.025  10.498 -0.6532  0.4371 -1.0689
14456TIP3    H264784   6.593   6.022  10.552 -0.9712  0.6911 -0.2071
14457TIP3   OH264785   6.514   5.943  15.835  0.0862  0.0206 -0.0399
14457TIP3    H164786   6.474   5.970  15.752  1.1358  1.0566 -0.2374
14457TIP3    H264787   6.608   5.949  15.819  0.3107  0.5764  1.3362
14458TIP3   OH264788   0.346   2.937  12.965 -0.3244 -0.1509 -0.2784
14458TIP3    H164789   0.326   3.026  12.936 -0.0421 -0.6434 -2.0933
14458TIP3    H264790   0.370   2.890  12.885  1.7200 -1.2861  0.9168
14459TIP3   OH264791   5.412   0.248  14.111  0.2144 -0.3622 -0.0340
14459TIP3    H164792   5.363   0.322  14.149 -1.5100 -0.1892 -2.3663
14459TIP3    H264793   5.498   0.252  14.154 -1.0284  0.7059  2.6091
14460TIP3   OH264794   2.510   3.496   0.372  0.0713 -0.2016  0.1665
14460TIP3    H164795   2.540   3.578   0.411 -0.9593 -0.7294  2.1586
14460TIP3    H264796   2.581   3.472   0.312  1.8373  0.5810  1.8179
14461TIP3   OH264797   2.043   5.723   0.664 -0.1584  0.1273 -0.6375
14461TIP3    H164798   1.949   5.708   0.671 -0.0799  0.0893  0.6446
14461TIP3    H264799   2.052   5.817   0.652 -0.3599  0.1720 -0.4530
14462TIP3   OH264800   6.571   4.470  16.559 -0.1249  0.2577  0.3293
14462TIP3    H164801   6.650   4.458  16.507  0.6889  1.5930  1.2036
14462TIP3    H264802   6.535   4.382  16.568  1.1173 -0.3451 -0.3018
14463TIP3   OH264803   6.345   4.668  15.084 -0.2442 -0.5094  0.1292
14463TIP3    H164804   6.393   4.604  15.031  1.0119  0.5658 -0.0554
14463TIP3    H264805   6.373   4.753  15.051 -1.0015  0.1622  1.1647
14464TIP3   OH264806   2.484   4.100   1.864  0.3148 -0.2120 -0.2263
14464TIP3    H164807   2.487   4.005   1.876 -0.8997 -0.2107  0.2797
14464TIP3    H264808   2.417   4.130   1.925 -0.8127  0.7165 -1.8259
14465TIP3   OH264809   0.647   1.638   3.619  0.1957  0.3471 -0.0623
14465TIP3    H164810   0.726   1.691   3.632  2.1505 -2.0428 -1.5496
14465TIP3    H264811   0.667   1.554   3.660  0.1890 -1.7510 -3.9333
14466TIP3   OH264812   2.945   1.903  14.161  0.5002  0.4253 -0.8219
14466TIP3    H164813   2.881   1.843  14.121  0.5369  0.7589 -1.3976
14466TIP3    H264814   2.914   1.915  14.251  0.3760 -0.2907 -0.7676
14467TIP3   OH264815   1.222   4.875   1.342 -0.0387  0.1020  0.0807
14467TIP3    H164816   1.308   4.842   1.315  0.6433  1.3955  0.5751
14467TIP3    H264817   1.169   4.796   1.356  1.1121 -0.7238 -0.0897
14468TIP3   OH264818   2.921   4.529  16.055  0.4722  0.0895  0.2386
14468TIP3    H164819   2.865   4.452  16.063 -1.6197  1.2870 -1.8591
14468TIP3    H264820   2.901   4.581  16.133  0.8388 -0.7696  0.9352
14469TIP3   OH264821   6.192   0.240  11.625 -0.1479 -0.4262 -0.1230
14469TIP3    H164822   6.135   0.302  11.580  0.8642  0.5930 -0.0346
14469TIP3    H264823   6.145   0.218  11.706 -0.1229  0.9175  0.2707
14470TIP3   OH264824   6.403   1.882  12.140 -0.7435 -0.7727 -0.0758
14470TIP3    H164825   6.428   1.975  12.133 -0.8888 -0.6651  0.8035
14470TIP3    H264826   6.428   1.845  12.055  2.5637 -0.7141  0.7481
14471TIP3   OH264827   1.705   2.330   5.828  0.5024  0.0639 -0.7074
14471TIP3    H164828   1.705   2.295   5.917  0.9050  2.4182  0.3072
14471TIP3    H264829   1.613   2.336   5.805  0.2784  1.0931  0.3226
14472TIP3   OH264830   4.307   0.946   4.934  0.4517 -0.1200  0.2541
14472TIP3    H164831   4.372   0.947   5.004 -1.6446 -0.1735  2.2810
14472TIP3    H264832   4.341   1.007   4.869  2.6865 -0.4293  1.0545
14473TIP3   OH264833   2.163   1.429  16.629 -0.0663 -0.2516 -0.5938
14473TIP3    H164834   2.118   1.498  16.678  0.3362  0.7051 -1.5311
14473TIP3    H264835   2.095   1.387  16.577 -0.2746 -0.4223 -0.1873
14474TIP3   OH264836   2.642   0.956   6.740 -0.2515 -0.0792  0.2532
14474TIP3    H164837   2.731   0.970   6.773  0.1225  1.6322 -1.3091
14474TIP3    H264838   2.589   0.946   6.819  1.1632 -0.0331  1.2508
14475TIP3   OH264839   1.383   5.821   0.327  0.2214  0.2783  0.1999
14475TIP3    H164840   1.347   5.748   0.277 -0.0048 -0.1481  0.9629
14475TIP3    H264841   1.378   5.895   0.268 -1.0138  0.0151 -0.0601
14476TIP3   OH264842   2.801   0.549   1.683 -0.3625  0.6288 -0.8630
14476TIP3    H164843   2.756   0.579   1.604  2.2358 -0.6830 -2.9932
14476TIP3    H264844   2.820   0.629   1.732 -0.5412  1.6531 -2.4194
14477TIP3   OH264845   2.376   4.074  12.381  0.4594 -0.0333  0.2314
14477TIP3    H164846   2.319   4.142  12.346  0.9699  0.4634  0.3415
14477TIP3    H264847   2.385   4.010  12.310  1.8493  1.1783 -0.7504
14478TIP3   OH264848   1.007   6.521   2.724  0.3756 -0.5061  0.0815
14478TIP3    H164849   1.018   6.449   2.662  1.7728  1.3934 -2.0333
14478TIP3    H264850   0.965   6.590   2.673  1.9783  1.3002  1.0652
14479TIP3   OH264851   3.977   6.403   0.499  0.5225  0.1521  0.0028
14479TIP3    H164852   3.889   6.364   0.501  0.1558  0.9958  0.7957
14479TIP3    H264853   3.990   6.438   0.587  1.0039  1.4699 -0.5703
14480TIP3   OH264854   6.670   6.495  11.636  0.0199  0.4356  0.2956
14480TIP3    H164855   6.684   6.492  11.542  0.5344  0.6188  0.3615
14480TIP3    H264856   6.724   6.568  11.666  1.7342 -1.0357  1.0270
14481TIP3   OH264857   4.318   3.368   4.253  0.1735 -0.3086  0.0178
14481TIP3    H164858   4.239   3.419   4.270  1.2689  2.2366 -1.8717
14481TIP3    H264859   4.286   3.281   4.231 -1.8777 -0.1631  2.0688
14482TIP3   OH264860   2.038   5.316   1.760 -0.2467 -0.4519  0.9600
14482TIP3    H164861   2.049   5.232   1.805 -1.2657 -1.8468 -1.2234
14482TIP3    H264862   1.983   5.368   1.820  0.6532 -1.1908  2.4912
14483TIP3   OH264863   3.765   3.793  16.316 -0.3110 -0.0376  0.6212
14483TIP3    H164864   3.837   3.820  16.258 -1.5622  0.9740 -0.5348
14483TIP3    H264865   3.761   3.698  16.307  0.2169  0.0014 -0.1157
14484TIP3   OH264866   6.496   3.453   1.137 -0.0087  0.4733  0.4309
14484TIP3    H164867   6.488   3.513   1.063 -0.9812  1.9512  1.6707
14484TIP3    H264868   6.405   3.428   1.157  0.3398 -0.9496  0.3295
14485TIP3   OH264869   0.338   5.624   0.967 -0.0540 -0.2349  0.2503
14485TIP3    H164870   0.248   5.655   0.974  0.4473  1.2862  0.3940
14485TIP3    H264871   0.343   5.583   0.880 -0.4714  1.1493 -0.4566
14486TIP3   OH264872   4.957   4.882   4.754 -0.0847 -0.6304  0.4133
14486TIP3    H164873   4.948   4.976   4.763 -0.0099 -0.6136  0.3223
14486TIP3    H264874   5.052   4.867   4.758  0.0761 -0.4751 -1.6645
14487TIP3   OH264875   3.352   5.010  15.106 -0.2383  0.0052  0.0920
14487TIP3    H164876   3.267   4.966  15.117 -0.0873 -0.4343 -0.4497
14487TIP3    H264877   3.340   5.065  15.028 -1.2718  3.0137  2.1736
14488TIP3   OH264878   1.075   2.924  16.270  0.3135 -0.0744 -0.4274
14488TIP3    H164879   1.090   2.949  16.179  1.5504 -0.4355 -0.3460
14488TIP3    H264880   0.985   2.894  16.272  0.8540 -2.0502 -2.0417
14489TIP3   OH264881   6.299   5.665   2.804  0.0279  0.1276 -0.0974
14489TIP3    H164882   6.238   5.672   2.732  1.1606  0.6705 -1.0429
14489TIP3    H264883   6.311   5.571   2.818 -1.5504  0.0033  0.5979
14490TIP3   OH264884   0.776   3.997  17.138  0.2967 -0.2559  0.0226
14490TIP3    H164885   0.712   4.059  17.173  2.0925  1.7896 -0.1020
14490TIP3    H264886   0.812   3.954  17.216  0.1452  0.0136  0.2439
14491TIP3   OH264887   6.732   2.659   3.242  0.3192  0.6177 -0.5052
14491TIP3    H164888   6.670   2.711   3.293 -0.0981 -0.6027  0.2941
14491TIP3    H264889   6.807   2.647   3.300 -0.3910 -1.2541  0.1039
14492TIP3   OH264890   4.043   2.373  17.332 -0.3929  0.4643 -0.3441
14492TIP3    H164891   4.097   2.344  17.405 -0.2865 -0.5034 -0.7956
14492TIP3    H264892   3.982   2.436  17.371  0.1987  0.5859  0.4112
14493TIP3   OH264893   1.655   2.374  11.265  0.3850 -0.1509 -0.1416
14493TIP3    H164894   1.722   2.418  11.317  0.8863 -1.3852  0.3139
14493TIP3    H264895   1.695   2.362  11.179  0.5022 -0.2914 -0.0688
14494TIP3   OH264896   2.263   5.718   5.827  0.0260 -0.8581 -0.0933
14494TIP3    H164897   2.315   5.767   5.763 -1.3137  0.4241 -0.2515
14494TIP3    H264898   2.271   5.627   5.798  0.0440 -0.3982 -1.6727
14495TIP3   OH264899   4.808   3.461   2.252 -0.2179 -0.4500 -0.1305
14495TIP3    H164900   4.770   3.526   2.193  0.0565  1.3534  1.5897
14495TIP3    H264901   4.897   3.447   2.219  0.1328  0.9799  0.1592
14496TIP3   OH264902   1.612   2.306   5.469  0.0022  0.4956 -0.5843
14496TIP3    H164903   1.535   2.351   5.434  0.0983  0.8155 -0.3795
14496TIP3    H264904   1.646   2.364   5.537 -1.1066 -0.8135  1.1656
14497TIP3   OH264905   3.256   5.339  12.767 -0.0497 -0.3779  0.2104
14497TIP3    H164906   3.246   5.267  12.704 -3.1500  1.2796 -1.4397
14497TIP3    H264907   3.335   5.385  12.739 -0.7236 -0.3620 -1.8307
14498TIP3   OH264908   0.575   4.419  15.767 -0.0180  0.3863  0.1703
14498TIP3    H164909   0.580   4.514  15.782 -0.6447  0.5622 -0.6358
14498TIP3    H264910   0.482   4.403  15.750  0.4233  0.0730 -2.3937
14499TIP3   OH264911   4.597   6.427   0.071 -0.9397  0.0276  0.6590
14499TIP3    H164912   4.510   6.392   0.051 -1.3506  1.2867  0.1986
14499TIP3    H264913   4.655   6.383   0.008 -1.1896 -0.9383  1.0745
14500TIP3   OH264914   0.601   2.090  17.175  0.1568 -0.3751  0.5133
14500TIP3    H164915   0.544   2.013  17.166 -1.0713  0.5349  0.0682
14500TIP3    H264916   0.682   2.057  17.212 -1.1187 -1.5481  2.3910
14501TIP3   OH264917   3.432   0.241   6.647 -0.4319  0.5242  0.3552
14501TIP3    H164918   3.476   0.284   6.721  1.4723 -0.8241  0.0759
14501TIP3    H264919   3.459   0.150   6.653 -3.4924 -0.4814  0.2811
14502TIP3   OH264920   1.872   2.440  11.502  0.2811  0.2081 -0.4210
14502TIP3    H164921   1.791   2.393  11.523 -0.1758  0.9676 -0.4393
14502TIP3    H264922   1.843   2.517  11.453  1.0009  0.5873 -0.2619
14503TIP3   OH264923   1.986   2.100  14.520  0.1215  0.5000  0.2928
14503TIP3    H164924   2.064   2.045  14.510  1.2662  2.1082  0.0731
14503TIP3    H264925   2.011   2.165  14.586 -1.4626  0.3259  1.0997
14504TIP3   OH264926   5.089   4.856   3.916 -0.1999 -0.4813 -0.3369
14504TIP3    H164927   5.184   4.841   3.908 -0.2248 -0.3927 -0.8668
14504TIP3    H264928   5.061   4.799   3.987  0.3860  0.0589  0.3423
14505TIP3   OH264929   5.025   6.045  12.191  0.0163  0.1839  0.2683
14505TIP3    H164930   5.081   5.968  12.181  0.0266  0.2597 -0.2720
14505TIP3    H264931   5.036   6.093  12.109  2.1323  2.1854  1.6036
14506TIP3   OH264932   1.458   1.772  15.860  0.7997 -0.5999 -0.1037
14506TIP3    H164933   1.451   1.677  15.858 -1.7503 -0.4888  0.3695
14506TIP3    H264934   1.454   1.798  15.768  1.6077 -0.9355 -0.2409
14507TIP3   OH264935   5.111   6.058  10.821  0.0547 -0.3539  0.5204
14507TIP3    H164936   5.119   6.145  10.860  0.7715 -0.7553  1.3189
14507TIP3    H264937   5.130   6.072  10.728  0.1666  0.3456  0.6407
14508TIP3   OH264938   1.696   1.902   0.303 -0.0356  0.2377 -0.5787
14508TIP3    H164939   1.737   1.833   0.355 -1.9523 -0.5358 -0.0043
14508TIP3    H264940   1.682   1.862   0.218 -0.6496  0.1020 -0.4146
14509TIP3   OH264941   4.739   2.490  16.552  0.0019  0.9233 -0.1815
14509TIP3    H164942   4.766   2.577  16.581  1.7111  1.1031 -2.0914
14509TIP3    H264943   4.819   2.438  16.552 -0.7996 -0.3774 -0.1060
14510TIP3   OH264944   3.578   2.175   0.344  0.0724 -0.2438 -0.0309
14510TIP3    H164945   3.655   2.154   0.292  1.0476  0.4720  1.0782
14510TIP3    H264946   3.523   2.228   0.286  1.2229  0.7009 -0.2929
14511TIP3   OH264947   0.342   4.373  12.597  0.7810 -0.4435 -0.3804
14511TIP3    H164948   0.330   4.447  12.656 -1.0625  0.9815 -2.3788
14511TIP3    H264949   0.296   4.300  12.640 -0.4184  0.5162  0.0343
14512TIP3   OH264950   2.855   2.519   0.470 -0.3316 -0.1029 -0.7976
14512TIP3    H164951   2.770   2.517   0.426 -0.3086  2.2123 -1.0657
14512TIP3    H264952   2.917   2.540   0.400  0.7950 -3.4070 -0.9431
14513TIP3   OH264953   5.039   6.330   3.196  0.4638  0.1364 -0.2501
14513TIP3    H164954   5.089   6.355   3.119 -0.9741 -0.2861 -1.3764
14513TIP3    H264955   5.017   6.413   3.238  0.1451  0.4636 -1.0428
14514TIP3   OH264956   1.683   3.676   6.376 -0.3874 -0.0035  0.7054
14514TIP3    H164957   1.723   3.598   6.414 -1.9806 -1.5768 -0.6477
14514TIP3    H264958   1.617   3.702   6.440 -1.8394 -1.5805 -0.0474
14515TIP3   OH264959   1.129   1.404  15.281  0.1968 -0.0524 -0.1586
14515TIP3    H164960   1.087   1.472  15.229  0.5567  0.7172  0.5439
14515TIP3    H264961   1.223   1.417  15.269  0.2674 -0.7706 -0.4531
14516TIP3   OH264962   6.390   4.817  14.773  0.3343 -0.6329  0.5691
14516TIP3    H164963   6.350   4.735  14.745  1.2228 -0.9568  0.1993
14516TIP3    H264964   6.316   4.877  14.786 -0.2088 -0.5038 -2.3211
14517TIP3   OH264965   6.278   4.709  14.288 -0.6923 -0.1260 -0.1214
14517TIP3    H164966   6.259   4.675  14.201  1.3302 -0.3054 -0.5240
14517TIP3    H264967   6.259   4.636  14.347  3.1225 -1.9799 -0.9342
14518TIP3   OH264968   3.206   5.461  15.755  1.0405 -0.0195  0.3657
14518TIP3    H164969   3.226   5.376  15.795  2.0028 -0.2008 -0.4441
14518TIP3    H264970   3.289   5.489  15.716  0.5405  0.9272 -0.0472
14519TIP3   OH264971   4.281   1.919  14.080  0.0668 -0.3636  0.0611
14519TIP3    H164972   4.304   1.878  13.996 -0.8692 -0.9558  0.0756
14519TIP3    H264973   4.271   1.846  14.140  2.4536  0.1407  1.1800
14520TIP3   OH264974   3.154   4.460  14.550  0.1877 -0.5852 -0.3581
14520TIP3    H164975   3.116   4.472  14.637  2.7114 -0.4575  0.8415
14520TIP3    H264976   3.200   4.376  14.556  0.2415 -0.6595 -1.6488
14521TIP3   OH264977   5.881   4.652   2.537  0.2422 -0.6233  0.0481
14521TIP3    H164978   5.947   4.702   2.489 -0.6829  0.2492 -0.3288
14521TIP3    H264979   5.845   4.714   2.600 -1.1353 -0.7048 -0.6329
14522TIP3   OH264980   4.418   6.209   6.353 -0.1176 -0.5427 -0.1872
14522TIP3    H164981   4.355   6.276   6.380 -1.0063 -1.4010 -0.0509
14522TIP3    H264982   4.484   6.209   6.422 -0.8867 -0.8023  0.5649
14523TIP3   OH264983   4.532   0.753  11.603 -0.6846 -0.2628  0.0975
14523TIP3    H164984   4.471   0.790  11.539 -1.2457  0.8034  1.2084
14523TIP3    H264985   4.617   0.790  11.580 -1.1713  1.4549  0.9400
14524TIP3   OH264986   1.129   3.152   3.880 -0.2220 -0.2832 -0.1246
14524TIP3    H164987   1.059   3.135   3.817  0.7585  0.5748 -1.5238
14524TIP3    H264988   1.175   3.068   3.888  0.5783 -0.0618 -1.8229
14525TIP3   OH264989   5.726   5.530   4.353  0.0558 -0.1155 -0.1430
14525TIP3    H164990   5.741   5.557   4.262 -0.2283  1.5943  0.3014
14525TIP3    H264991   5.694   5.608   4.397 -0.9385 -1.2200  1.1789
14526TIP3   OH264992   4.717   3.200   2.317 -0.1466 -0.3502  0.1803
14526TIP3    H164993   4.646   3.202   2.253 -0.5296  0.0546  0.6063
14526TIP3    H264994   4.761   3.284   2.307  0.8105 -0.9282 -0.6600
14527TIP3   OH264995   3.393   6.558   5.004  0.1798 -0.5532  0.0157
14527TIP3    H164996   3.426   6.486   4.951  1.5504  0.8533 -1.1263
14527TIP3    H264997   3.375   6.518   5.090  1.7939 -2.0625 -0.2878
14528TIP3   OH264998   6.153   3.650   5.010 -0.2224 -0.1687  0.3073
14528TIP3    H164999   6.138   3.688   5.096  0.4038  0.4553  0.1551
14528TIP3    H265000   6.190   3.564   5.028 -1.7116 -0.7573  0.6574
14529TIP3   OH265001   0.789   1.893   2.739 -0.1638 -0.5742  0.0916
14529TIP3    H165002   0.701   1.928   2.750  1.0592  2.3021  1.8851
14529TIP3    H265003   0.835   1.958   2.686  1.3230 -1.1367  0.6273
14530TIP3   OH265004   0.502   5.547   4.825  0.1293  0.2103  0.2340
14530TIP3    H165005   0.414   5.550   4.790  0.0305 -0.8104  0.3764
14530TIP3    H265006   0.553   5.500   4.760  0.5623  0.7429  0.1780
14531TIP3   OH265007   3.948   3.536   4.454  0.2186 -0.4055 -0.3656
14531TIP3    H165008   3.990   3.606   4.406 -0.0469  0.4422  0.6036
14531TIP3    H265009   3.985   3.542   4.542 -1.6333  0.1523  0.4262
14532TIP3   OH265010   3.175   0.638  12.873  0.7827  0.0056 -0.5433
14532TIP3    H165011   3.156   0.545  12.859  1.3773  0.0206 -1.5878
14532TIP3    H265012   3.126   0.661  12.952  0.3145 -1.0944 -0.4904
14533TIP3   OH265013   3.610   0.622   1.098  0.3056 -0.1246  0.2743
14533TIP3    H165014   3.530   0.613   1.150 -0.0199  0.7082 -0.0649
14533TIP3    H265015   3.579   0.629   1.007  0.6810  1.2768  0.2329
14534TIP3   OH265016   5.683   4.472  14.089 -0.0435  0.0764  0.1033
14534TIP3    H165017   5.628   4.550  14.079 -0.7235 -0.3766  0.2515
14534TIP3    H265018   5.755   4.486  14.028 -0.2442  0.7413  0.0040
14535TIP3   OH265019   3.955   3.409   3.752  0.2728 -0.5621 -0.0768
14535TIP3    H165020   4.009   3.408   3.673  2.6089 -1.5952  1.4286
14535TIP3    H265021   3.870   3.441   3.722  0.8270 -1.6082 -3.1248
14536TIP3   OH265022   4.671   2.534  16.063 -0.7743  0.0163 -0.4099
14536TIP3    H165023   4.687   2.628  16.062 -3.7585  0.7202  2.2397
14536TIP3    H265024   4.591   2.522  16.013 -1.5462 -0.7707  0.9385
14537TIP3   OH265025   6.251   2.390   0.516  0.8009  0.6999  0.1684
14537TIP3    H165026   6.267   2.316   0.457  3.2474 -0.3206  1.9693
14537TIP3    H265027   6.250   2.467   0.458  0.7934 -0.4634 -1.4331
14538TIP3   OH265028   3.564   4.110   0.875 -0.5518  0.7720  0.0178
14538TIP3    H165029   3.623   4.183   0.856 -0.2653  0.4325 -0.4301
14538TIP3    H265030   3.504   4.108   0.800 -0.4925  0.4839 -0.0225
14539TIP3   OH265031   1.022   2.815  12.872 -0.4027  0.2867 -0.1211
14539TIP3    H165032   1.059   2.730  12.894  1.9206  1.4197  0.7775
14539TIP3    H265033   1.084   2.878  12.910 -0.5329  2.3848 -3.0555
14540TIP3   OH265034   0.255   4.600  12.745  0.0754  0.0372  0.4064
14540TIP3    H165035   0.275   4.620  12.837 -1.0089  0.9914  0.4444
14540TIP3    H265036   0.180   4.540  12.749  1.5363 -1.9083  0.1909
14541TIP3   OH265037   0.856   2.062   6.331 -0.1514  0.1883 -0.1517
14541TIP3    H165038   0.822   2.142   6.292 -0.9102  0.0343  0.1882
14541TIP3    H265039   0.781   2.002   6.335 -0.0811  0.1578  1.4169
14542TIP3   OH265040   3.513   0.117   0.599  0.1853 -0.2843  0.2213
14542TIP3    H165041   3.500   0.053   0.530 -0.4172  1.3748 -1.2786
14542TIP3    H265042   3.425   0.139   0.628  0.0891  2.3004 -1.6889
14543TIP3   OH265043   4.078   6.522   3.659 -0.2339  0.2020  0.0090
14543TIP3    H165044   4.000   6.537   3.605 -0.4309 -1.4528 -0.2355
14543TIP3    H265045   4.133   6.464   3.606  0.3792 -0.0297  0.8734
14544TIP3   OH265046   4.522   4.403  16.020  0.1059 -0.0227 -0.2179
14544TIP3    H165047   4.556   4.361  15.941 -0.6007  1.0123 -1.1197
14544TIP3    H265048   4.598   4.450  16.056  0.1402  0.6528 -1.0999
14545TIP3   OH265049   3.978   0.439  16.183  0.0154 -0.1863  0.3006
14545TIP3    H165050   3.890   0.476  16.184  0.1381  0.1112  0.9179
14545TIP3    H265051   4.026   0.492  16.247  1.2379  1.0964 -1.5921
14546TIP3   OH265052   1.137   0.489  16.945  0.0956 -1.2596 -0.5229
14546TIP3    H165053   1.192   0.512  17.020  0.7535 -1.6589 -0.8761
14546TIP3    H265054   1.153   0.558  16.881 -0.1333 -1.1569 -0.4729
14547TIP3   OH265055   2.308   3.757   0.440 -0.0458 -0.2720  0.6303
14547TIP3    H165056   2.222   3.753   0.400  0.2394 -3.0582  0.0677
14547TIP3    H265057   2.368   3.772   0.367  0.0341  0.9433  0.9246
14548TIP3   OH265058   2.220   5.893  14.710 -0.1026  0.0930 -0.6122
14548TIP3    H165059   2.161   5.908  14.636 -1.0867 -0.5792  0.0197
14548TIP3    H265060   2.213   5.799  14.728 -0.2961  0.3301  0.6646
14549TIP3   OH265061   0.723   5.039   3.161  0.1983 -0.5014  0.3639
14549TIP3    H165062   0.730   5.012   3.069  0.6686 -1.2315  0.6044
14549TIP3    H265063   0.668   5.118   3.159  2.0893  0.8512 -0.7756
14550TIP3   OH265064   6.132   2.581   2.936  0.2914 -0.1760 -0.1884
14550TIP3    H165065   6.121   2.647   2.868 -1.7437  1.8038  1.8851
14550TIP3    H265066   6.218   2.599   2.973 -0.1241  1.1942  0.1686
14551TIP3   OH265067   4.728   3.928  14.227 -0.0577  0.1271  0.3105
14551TIP3    H165068   4.683   3.866  14.170 -0.1257 -0.2653  0.7907
14551TIP3    H265069   4.666   3.947  14.297  0.1082  0.4426  0.3783
14552TIP3   OH265070   2.427   3.240   5.356  0.8338  0.1642  0.2023
14552TIP3    H165071   2.506   3.283   5.387  1.5006 -0.7938 -0.1354
14552TIP3    H265072   2.367   3.312   5.336  2.2225  1.0035 -1.1897
14553TIP3   OH265073   0.492   2.375   5.044 -0.0725  0.3081 -0.4865
14553TIP3    H165074   0.447   2.447   4.999  2.4287  2.2258 -0.1308
14553TIP3    H265075   0.585   2.388   5.022  0.5250 -2.5462  0.0223
14554TIP3   OH265076   0.019   1.909   4.773  0.4881  0.0862  0.1535
14554TIP3    H165077   0.035   1.815   4.783 -0.3657  0.0101  1.0273
14554TIP3    H265078   0.070   1.935   4.697  1.2216 -0.9655  0.2714
14555TIP3   OH265079   4.201   4.440  17.390 -0.5530 -0.0783 -0.1378
14555TIP3    H165080   4.182   4.475  17.303 -1.2611  0.0842  0.0754
14555TIP3    H265081   4.138   4.369  17.401 -1.6553  1.0291  0.9320
14556TIP3   OH265082   0.189   6.677   4.679 -0.6097 -0.3795  0.1039
14556TIP3    H165083   0.241   6.740   4.729 -0.0546 -1.3927  0.8372
14556TIP3    H265084   0.163   6.725   4.601 -0.8351  0.9986  0.9807
14557TIP3   OH265085   6.141   0.463  17.214 -0.0438 -0.2111 -0.0539
14557TIP3    H165086   6.108   0.549  17.239  0.7968 -0.3821  1.8658
14557TIP3    H265087   6.129   0.409  17.293 -0.1087 -1.7124 -1.0531
14558TIP3   OH265088   4.195   0.529   6.142 -0.3627  0.0134  0.0400
14558TIP3    H165089   4.105   0.539   6.172 -0.6155  0.6739 -0.9121
14558TIP3    H265090   4.238   0.611   6.167 -0.0393 -0.2676  0.4209
14559TIP3   OH265091   3.954   2.756   2.919  0.3187 -0.1797  0.5647
14559TIP3    H165092   3.882   2.720   2.867 -0.3753  0.1056  1.3019
14559TIP3    H265093   3.911   2.804   2.989  1.2370  0.4510  0.7137
14560TIP3   OH265094   0.449   1.807   4.600 -0.1993  0.2399  0.3958
14560TIP3    H165095   0.453   1.740   4.668 -0.8523 -0.8066 -0.5780
14560TIP3    H265096   0.523   1.788   4.543  0.2225  0.9888  0.6727
14561TIP3   OH265097   4.189   0.892  12.839  0.3695 -0.0436 -0.2524
14561TIP3    H165098   4.252   0.867  12.772  1.4204 -0.5224  0.8630
14561TIP3    H265099   4.153   0.809  12.870  0.4929  0.1132  0.3255
14562TIP3   OH265100   2.384   6.457   1.049  0.4609 -0.2756  0.1230
14562TIP3    H165101   2.355   6.366   1.037 -0.7851  0.2926 -1.7375
14562TIP3    H265102   2.307   6.501   1.086  1.3350 -0.1104  1.8237
14563TIP3   OH265103   0.513   1.123  12.584  0.2723 -0.0486  0.0683
14563TIP3    H165104   0.509   1.052  12.648 -0.7025 -0.6803 -0.6634
14563TIP3    H265105   0.560   1.086  12.510 -0.3380  0.0109 -0.3613
14564TIP3   OH265106   3.761   4.963   1.101  0.5228  0.0799 -0.1711
14564TIP3    H165107   3.839   5.004   1.139  1.4329 -0.4084 -1.4596
14564TIP3    H265108   3.794   4.892   1.046 -0.7884  0.1889 -1.1668
14565TIP3   OH265109   2.971   0.228  11.480  0.7220  0.5389 -0.6451
14565TIP3    H165110   3.058   0.228  11.520  1.1402 -1.0822 -1.4619
14565TIP3    H265111   2.962   0.315  11.442  0.9514  1.5889  1.5656
14566TIP3   OH265112   1.632   2.992   5.412  0.3770 -0.1258  0.0915
14566TIP3    H165113   1.687   3.065   5.438  1.4662 -0.5447 -0.9065
14566TIP3    H265114   1.573   3.028   5.345 -0.8886  0.4174  1.4435
14567TIP3   OH265115   5.715   5.637  16.487  0.5213 -0.4320 -0.2711
14567TIP3    H165116   5.760   5.713  16.525  1.7538 -1.6801  0.8943
14567TIP3    H265117   5.733   5.642  16.394 -1.0563  1.7330 -0.5584
14568TIP3   OH265118   3.370   0.452  15.293 -0.4506  0.0990 -0.5830
14568TIP3    H165119   3.374   0.360  15.265  0.1500 -0.4121  1.0368
14568TIP3    H265120   3.415   0.453  15.378 -1.1764  1.7463 -0.1739
14569TIP3   OH265121   5.949   2.062  11.981 -0.0444 -0.1354  0.5566
14569TIP3    H165122   5.936   2.148  12.021  0.2017 -0.3391  1.0890
14569TIP3    H265123   5.983   2.008  12.053  0.9112 -0.3720 -0.0583
14570TIP3   OH265124   4.795   1.044  15.559  0.4447 -0.2276  0.5946
14570TIP3    H165125   4.834   1.044  15.472  0.1983 -0.9670  0.4746
14570TIP3    H265126   4.719   0.986  15.551 -0.1396  0.4557  1.0607
14571TIP3   OH265127   2.948   2.535   4.187  0.9406 -0.1173 -0.4471
14571TIP3    H165128   3.033   2.538   4.143  0.7223  0.4157 -0.8271
14571TIP3    H265129   2.944   2.616   4.238 -0.1300  0.7794 -1.8928
14572TIP3   OH265130   4.099   3.952  13.812 -0.0771 -0.4486  0.4127
14572TIP3    H165131   4.157   4.020  13.845  1.4150 -1.2030 -0.5418
14572TIP3    H265132   4.138   3.870  13.842 -1.0484 -0.9588  0.3340
14573TIP3   OH265133   5.822   0.188   2.588  0.6634 -0.4676  0.3767
14573TIP3    H165134   5.841   0.219   2.676  1.7917  0.7758 -0.2843
14573TIP3    H265135   5.876   0.110   2.578 -1.3105 -2.1311  1.6161
14574TIP3   OH265136   5.590   5.990   0.386 -0.0795 -0.0872 -0.0472
14574TIP3    H165137   5.526   5.923   0.407  0.1723 -0.3159 -0.0053
14574TIP3    H265138   5.652   5.947   0.327  0.6755 -0.2061  0.8137
14575TIP3   OH265139   2.484   4.593   3.155  0.5328 -0.0768 -0.7303
14575TIP3    H165140   2.564   4.643   3.174 -0.5390  1.0215  1.3023
14575TIP3    H265141   2.434   4.650   3.097  0.3207  0.1864 -0.2932
14576TIP3   OH265142   4.920   4.068   4.414 -0.3262 -0.5686 -0.2401
14576TIP3    H165143   4.872   4.121   4.478  1.0050 -0.6576  0.8702
14576TIP3    H265144   4.989   4.026   4.465  1.7015  0.4835 -1.9954
14577TIP3   OH265145   4.703   2.723  11.055  0.4698  0.0420 -0.0616
14577TIP3    H165146   4.796   2.743  11.066  0.2186  1.3270 -0.1465
14577TIP3    H265147   4.665   2.738  11.141  0.3168 -0.3761 -0.0534
14578TIP3   OH265148   0.820   5.272  13.942 -0.5000 -0.0871  0.5306
14578TIP3    H165149   0.873   5.328  13.885  0.7730 -0.0250  1.7418
14578TIP3    H265150   0.819   5.317  14.026 -1.0571 -0.9563  0.9996
14579TIP3   OH265151   2.391   0.978   1.122  0.0150 -0.0998  0.5145
14579TIP3    H165152   2.349   0.897   1.092  1.5940 -1.6083  2.1740
14579TIP3    H265153   2.338   1.048   1.082 -2.0457 -1.8989 -0.1248
14580TIP3   OH265154   0.269   4.874   1.137 -0.6750 -0.5551 -0.0023
14580TIP3    H165155   0.177   4.896   1.124 -1.0878 -1.2835  1.4030
14580TIP3    H265156   0.293   4.824   1.059 -1.3881 -0.1229 -0.5073
14581TIP3   OH265157   4.218   5.082  13.015  0.1394 -0.1578 -0.3363
14581TIP3    H165158   4.196   5.131  12.935 -0.7694  0.6070  0.3498
14581TIP3    H265159   4.190   4.992  12.997  1.0801 -0.2644 -1.3201
14582TIP3   OH265160   5.320   5.841  13.044 -0.1579 -0.3206  0.2002
14582TIP3    H165161   5.402   5.879  13.076  0.2501 -0.9537 -0.0670
14582TIP3    H265162   5.269   5.916  13.015  0.7199  0.0171 -0.5339
14583TIP3   OH265163   5.474   4.025   1.274 -0.0141  0.0671 -0.1826
14583TIP3    H165164   5.430   3.941   1.284  0.5235 -0.1835  0.0563
14583TIP3    H265165   5.474   4.063   1.362  2.2573 -0.9325  0.3078
14584TIP3   OH265166   3.675   3.436   5.772  0.0176  0.0548  0.2410
14584TIP3    H165167   3.658   3.525   5.741  1.2158 -0.5292 -2.3301
14584TIP3    H265168   3.738   3.401   5.710 -0.6309 -2.7023  1.0223
14585TIP3   OH265169   5.890   2.468  11.601 -0.2333 -0.0010 -0.2744
14585TIP3    H165170   5.923   2.417  11.528 -0.2398 -1.0057  0.3967
14585TIP3    H265171   5.934   2.553  11.594  2.3680 -1.1815  0.4293
14586TIP3   OH265172   3.490   1.181  12.709  0.2318  0.1966 -0.2064
14586TIP3    H165173   3.485   1.118  12.781  5.2400 -0.5499 -0.2051
14586TIP3    H265174   3.492   1.266  12.752 -1.9805  0.1721  0.0695
14587TIP3   OH265175   6.110   4.284  12.646 -0.0240  0.0247 -0.0036
14587TIP3    H165176   6.092   4.204  12.597  1.3670 -0.2946 -0.0193
14587TIP3    H265177   6.145   4.254  12.730  0.0925  0.6131  0.1646
14588TIP3   OH265178   6.067   3.684  16.123  0.2590  0.1884  0.0189
14588TIP3    H165179   6.114   3.612  16.165 -0.6766  0.2714  1.2441
14588TIP3    H265180   6.127   3.758  16.128  0.3003  0.1050  0.9123
14589TIP3   OH265181   2.740   3.945   2.224  0.6905 -0.0973 -0.1793
14589TIP3    H165182   2.728   3.895   2.143  1.2939 -0.7348  0.1146
14589TIP3    H265183   2.832   3.970   2.223  0.6586  0.0381  0.2306
14590TIP3   OH265184   2.285   3.661  13.180 -0.0352  0.0836  0.3175
14590TIP3    H165185   2.323   3.732  13.233  1.0383 -0.2938  0.0881
14590TIP3    H265186   2.346   3.588  13.192  0.0580 -0.1084 -1.1686
14591TIP3   OH265187   0.574   3.244   3.950  0.0227 -0.1944 -0.0505
14591TIP3    H165188   0.484   3.220   3.930 -0.6440 -0.0713  2.5036
14591TIP3    H265189   0.622   3.161   3.947 -0.0786 -0.2201 -1.6980
14592TIP3   OH265190   0.308   6.193  13.822  0.0393  0.1808 -0.2418
14592TIP3    H165191   0.223   6.150  13.816  0.5809 -1.1899  1.1967
14592TIP3    H265192   0.345   6.161  13.904  0.6059  3.2210  0.8251
14593TIP3   OH265193   4.978   3.942  17.323 -0.0839 -0.3117  0.0941
14593TIP3    H165194   4.990   4.037  17.323 -0.5146 -0.2406 -1.1806
14593TIP3    H265195   5.041   3.909  17.388 -0.3013  0.8791  0.9320
14594TIP3   OH265196   1.511   2.471   2.655 -0.6955 -0.5182 -1.0244
14594TIP3    H165197   1.466   2.556   2.653  1.2321  0.9112  3.1878
14594TIP3    H265198   1.453   2.415   2.707  0.6884  0.3516  1.6605
14595TIP3   OH265199   5.114   2.784  16.736  0.0663 -0.3888  0.1900
14595TIP3    H165200   5.126   2.691  16.719  0.3567 -0.1498 -0.9451
14595TIP3    H265201   5.190   2.808  16.790  3.2742  0.3696 -4.1301
14596TIP3   OH265202   5.334   3.199   5.453 -0.0472 -0.1662 -0.7116
14596TIP3    H165203   5.252   3.245   5.470 -0.0179  0.1357 -1.3711
14596TIP3    H265204   5.350   3.210   5.359 -0.0701 -1.5913 -0.9058
14597TIP3   OH265205   1.445   2.726   2.530  0.1811  0.6696 -0.3555
14597TIP3    H165206   1.429   2.734   2.436 -0.0236 -0.1037 -0.4009
14597TIP3    H265207   1.530   2.682   2.536 -0.5632 -0.8131 -0.2237
14598TIP3   OH265208   2.506   5.402   0.202  0.3747  0.4070 -0.4908
14598TIP3    H165209   2.501   5.333   0.268 -0.2584 -1.3289 -2.2561
14598TIP3    H265210   2.581   5.378   0.148 -0.8096  0.1638 -2.0897
14599TIP3   OH265211   1.374   1.103   6.462 -0.0419  0.4753 -0.6620
14599TIP3    H165212   1.290   1.101   6.506 -0.3609  1.3207 -1.2053
14599TIP3    H265213   1.417   1.021   6.488 -0.0888  1.0591  1.4148
14600TIP3   OH265214   2.085   1.736   1.028 -0.2283 -0.1509  0.3491
14600TIP3    H165215   2.155   1.687   0.984 -1.1440 -1.1776 -0.0077
14600TIP3    H265216   2.118   1.748   1.117  0.4057 -0.6161  0.1892
14601TIP3   OH265217   3.674   0.437   0.012  0.0016 -0.2828 -0.8825
14601TIP3    H165218   3.732   0.362  -0.002  0.8858  0.3937 -0.8817
14601TIP3    H265219   3.684   0.458   0.105  1.4789  1.2183 -1.3404
14602TIP3   OH265220   1.786   1.471  14.035  0.0032 -0.0380  0.2831
14602TIP3    H165221   1.881   1.459  14.034 -0.0094 -0.1282  0.2136
14602TIP3    H265222   1.750   1.385  14.055 -0.0622  0.0081  0.3644
14603TIP3   OH265223   2.917   2.746  16.453 -0.6575 -0.1326 -0.1908
14603TIP3    H165224   2.979   2.730  16.382  0.8968  1.3937  0.7300
14603TIP3    H265225   2.832   2.755  16.409 -0.2706 -2.2631 -1.4904
14604TIP3   OH265226   0.208   2.344   6.045  0.3814 -0.0560  0.1630
14604TIP3    H165227   0.295   2.385   6.054  0.4910 -0.1087 -0.6401
14604TIP3    H265228   0.148   2.407   6.085  0.8208 -0.1788  1.0511
14605TIP3   OH265229   3.050   3.105  12.993  0.3565  0.6520 -0.7508
14605TIP3    H165230   3.126   3.085  13.047 -0.9788  0.3605  1.1105
14605TIP3    H265231   3.079   3.086  12.903  2.8694  1.8532 -0.2731
14606TIP3   OH265232   5.678   3.070   5.455 -0.3318  0.5177 -0.3812
14606TIP3    H165233   5.585   3.046   5.453  0.5575 -3.5367 -2.3990
14606TIP3    H265234   5.704   3.058   5.547 -1.5187  0.6042 -0.0207
14607TIP3   OH265235   0.272   4.486  16.593  0.5926  0.3248 -0.9586
14607TIP3    H165236   0.308   4.552  16.654  0.0093 -0.7462  0.6139
14607TIP3    H265237   0.191   4.457  16.635 -1.3028  1.4304 -3.5795
14608TIP3   OH265238   6.406   6.604   5.013 -0.3337  0.0484 -0.2343
14608TIP3    H165239   6.455   6.526   4.988  0.2651  0.4051 -0.1838
14608TIP3    H265240   6.472   6.665   5.044 -0.9348  0.0717  1.0566
14609TIP3   OH265241   4.274   1.347  16.389 -0.5732 -0.1544 -0.4528
14609TIP3    H165242   4.327   1.384  16.319 -0.6177  0.6003 -0.0962
14609TIP3    H265243   4.335   1.336  16.462 -0.7476  0.0251 -0.2791
14610TIP3   OH265244   1.775   1.667   5.851 -0.4339  0.3804 -0.0888
14610TIP3    H165245   1.806   1.684   5.939 -0.8394  0.4973  0.0353
14610TIP3    H265246   1.682   1.692   5.853 -0.9330 -1.2957 -0.0336
14611TIP3   OH265247   2.270   5.808  16.139 -0.5118  0.0797  0.3029
14611TIP3    H165248   2.203   5.820  16.072 -1.2462  1.0538  1.1787
14611TIP3    H265249   2.222   5.775  16.215  0.0394  0.6027  0.8814
14612TIP3   OH265250   6.029   1.223   4.163 -0.7863 -0.6225 -0.3004
14612TIP3    H165251   6.003   1.315   4.153  3.3104  1.0884  2.1654
14612TIP3    H265252   5.990   1.196   4.247  2.6497  1.1300  2.1306
14613TIP3   OH265253   1.972   6.486  16.678  0.2674  0.0802  0.3256
14613TIP3    H165254   1.970   6.440  16.761 -0.9728 -2.1048 -0.8236
14613TIP3    H265255   1.885   6.526  16.671  0.5783  0.7710  0.3396
14614TIP3   OH265256   3.711   6.558  15.368 -0.3347 -0.2999  0.4108
14614TIP3    H165257   3.719   6.465  15.346 -0.1291 -0.0076 -0.8222
14614TIP3    H265258   3.633   6.562  15.424 -0.5692 -1.1695  0.1698
14615TIP3   OH265259   3.734   4.598  13.659 -0.4805  0.0551 -0.5551
14615TIP3    H165260   3.810   4.644  13.622 -0.3225 -0.1722 -0.5108
14615TIP3    H265261   3.704   4.656  13.729  0.5486 -0.5351  0.4170
14616TIP3   OH265262   1.775   6.656  14.538 -0.0866  0.4839 -0.1739
14616TIP3    H165263   1.704   6.647  14.602  0.4813  0.9046  0.5451
14616TIP3    H265264   1.807   6.746  14.551  1.2260 -0.0158  0.2390
14617TIP3   OH265265   4.854   2.521  14.106  0.3360 -0.3385  0.0847
14617TIP3    H165266   4.925   2.555  14.051  1.1609 -1.9288  0.1088
14617TIP3    H265267   4.801   2.468  14.047  0.6809 -1.2818  0.6054
14618TIP3   OH265268   3.397   6.044  16.947 -0.4501  0.0362 -0.2026
14618TIP3    H165269   3.487   6.011  16.940 -0.1668  0.8627 -0.5364
14618TIP3    H265270   3.345   5.966  16.968  0.0033 -0.9209 -2.3456
14619TIP3   OH265271   6.037   2.325   5.048 -0.9171  0.4006  0.9673
14619TIP3    H165272   5.942   2.332   5.037 -0.9604 -1.6214 -0.5794
14619TIP3    H265273   6.049   2.291   5.136 -1.6488  0.1566  0.9746
14620TIP3   OH265274   4.515   4.407   1.362 -0.7124 -0.7252 -0.3984
14620TIP3    H165275   4.479   4.430   1.448  0.1823 -1.8574  0.3096
14620TIP3    H265276   4.598   4.363   1.382  1.6579  2.6272 -1.9585
14621TIP3   OH265277   2.378   1.377   6.013  0.0072 -0.0287 -0.4915
14621TIP3    H165278   2.349   1.423   6.092  0.6468  1.2371 -0.9534
14621TIP3    H265279   2.318   1.304   6.004 -0.3328  0.0416  0.9353
14622TIP3   OH265280   1.502   0.958  14.994  1.0699 -0.1854  0.2792
14622TIP3    H165281   1.456   0.925  14.917 -0.2770  1.6724  0.2044
14622TIP3    H265282   1.486   0.892  15.061  0.4537 -0.8079 -0.4482
14623TIP3   OH265283   2.361   6.338  14.724 -0.2026 -0.8993  0.0550
14623TIP3    H165284   2.367   6.389  14.805 -1.2131  0.3384 -0.6100
14623TIP3    H265285   2.354   6.248  14.753 -0.9793 -0.4414  1.3786
14624TIP3   OH265286   2.814   0.762  15.265  0.2728 -0.0638 -0.1778
14624TIP3    H165287   2.748   0.761  15.334 -0.0834 -1.2530 -0.5200
14624TIP3    H265288   2.849   0.673  15.264 -1.0447 -0.6568 -2.7608
14625TIP3   OH265289   1.690   4.666   1.467  0.4537  0.2562 -0.3211
14625TIP3    H165290   1.766   4.639   1.416  1.6679  0.2489  1.3811
14625TIP3    H265291   1.661   4.586   1.511 -0.8463  0.1628 -1.3040
14626TIP3   OH265292   4.871   5.963   2.950  0.0886 -0.5989 -0.1522
14626TIP3    H165293   4.875   5.932   3.041  0.7367 -0.6318 -0.1838
14626TIP3    H265294   4.816   5.899   2.905 -2.2549  0.6909  0.6905
14627TIP3   OH265295   5.836   1.411  16.295  0.1639  0.0794  0.3333
14627TIP3    H165296   5.904   1.376  16.236 -1.3445 -0.8558 -0.9225
14627TIP3    H265297   5.878   1.412  16.381  2.3151  1.0935 -0.6213
14628TIP3   OH265298   5.779   5.677  11.957 -0.3381  0.5225  0.3727
14628TIP3    H165299   5.714   5.612  11.986 -1.0990  0.9177 -0.3740
14628TIP3    H265300   5.862   5.644  11.989 -0.6504 -1.0463 -0.3327
14629TIP3   OH265301   3.597   6.428   5.887 -0.9370  0.1300 -0.4744
14629TIP3    H165302   3.575   6.518   5.863 -0.7622 -0.1455 -1.7130
14629TIP3    H265303   3.512   6.384   5.893 -0.9648  0.1216 -0.9168
14630TIP3   OH265304   0.939   6.599  12.207  0.4331  0.2057  0.3883
14630TIP3    H165305   0.929   6.688  12.173 -0.4755  0.4832  1.3306
14630TIP3    H265306   0.852   6.575  12.238  1.0216 -0.3384  1.7252
14631TIP3   OH265307   4.805   6.551  15.628  0.1551 -0.1880  0.3380
14631TIP3    H165308   4.737   6.524  15.566 -0.1804  0.2629  0.5016
14631TIP3    H265309   4.781   6.640  15.652  0.8480  0.0007  0.3502
14632TIP3   OH265310   0.919   4.632  10.963 -0.0595 -0.1721  0.0745
14632TIP3    H165311   0.922   4.539  10.986 -2.5056 -0.3829 -0.2712
14632TIP3    H265312   0.995   4.645  10.907  0.2810 -1.9815  0.0542
14633TIP3   OH265313   2.795   5.501   4.615  0.0415 -0.0349 -0.6795
14633TIP3    H165314   2.716   5.501   4.560  0.8030  0.5068 -1.8010
14633TIP3    H265315   2.852   5.567   4.575  1.2323 -0.7080 -0.1340
14634TIP3   OH265316   5.233   3.435   1.319 -0.1708 -0.0011 -0.3907
14634TIP3    H165317   5.210   3.401   1.406  1.4507  0.2106  0.1539
14634TIP3    H265318   5.242   3.356   1.265 -1.9952 -0.0952 -0.6136
14635TIP3   OH265319   0.005   0.524   1.241 -0.1508  0.3007 -0.1953
14635TIP3    H165320  -0.067   0.580   1.210  1.3221  1.5028 -1.6607
14635TIP3    H265321   0.027   0.559   1.327 -1.5771 -0.3750  0.4755
14636TIP3   OH265322   6.222   0.281   3.963 -0.0981 -0.0663  0.0397
14636TIP3    H165323   6.173   0.237   4.033 -0.1811 -1.5084 -0.8756
14636TIP3    H265324   6.174   0.259   3.884  0.3146  1.0761 -0.5398
14637TIP3   OH265325   4.943   0.900  15.918 -0.6672 -0.3104 -0.3847
14637TIP3    H165326   4.993   0.819  15.909  0.2034  0.1720  0.0020
14637TIP3    H265327   4.853   0.871  15.932 -0.1813 -1.2458  0.9894
14638TIP3   OH265328   0.429   1.363   5.192 -0.2758  0.1392  0.0035
14638TIP3    H165329   0.483   1.441   5.179  0.7847 -0.5714  0.0417
14638TIP3    H265330   0.411   1.332   5.103 -0.4204  0.2342 -0.0011
14639TIP3   OH265331   4.617   6.311  15.240  0.5036 -0.0602 -0.2393
14639TIP3    H165332   4.579   6.234  15.281 -0.3230  1.1334  1.3297
14639TIP3    H265333   4.685   6.277  15.182  1.0469 -1.8749  1.4034
14640TIP3   OH265334   2.916   2.779   0.626 -0.1918  0.4808 -0.1388
14640TIP3    H165335   2.925   2.711   0.559 -0.8052  1.1667 -0.9468
14640TIP3    H265336   2.861   2.739   0.693  0.7074 -0.3311  0.1333
14641TIP3   OH265337   3.659   3.600  14.428  0.0002  1.0364 -0.2406
14641TIP3    H165338   3.629   3.675  14.376 -1.6449 -0.0975 -1.0178
14641TIP3    H265339   3.673   3.530  14.364 -2.8817 -0.6530  0.8120
14642TIP3   OH265340   6.122   0.899  15.515 -0.5615  0.1252  0.4790
14642TIP3    H165341   6.153   0.828  15.570  0.3555  0.4094  0.3472
14642TIP3    H265342   6.149   0.979  15.561  2.5360  0.3968 -1.5590
14643TIP3   OH265343   2.871   2.911  12.551  0.0919 -0.0770  0.3056
14643TIP3    H165344   2.964   2.926  12.568 -0.0421 -1.1300  2.1703
14643TIP3    H265345   2.859   2.817  12.561 -1.2200  0.0744  0.3571
14644TIP3   OH265346   4.282   3.496  16.375 -0.7245 -0.4362  0.5146
14644TIP3    H165347   4.352   3.464  16.319 -1.0821 -0.0438 -0.1775
14644TIP3    H265348   4.271   3.428  16.442  0.0182 -0.6945  0.3804
14645TIP3   OH265349   3.658   0.301  17.021  0.4009  0.1145 -0.1497
14645TIP3    H165350   3.573   0.344  17.013 -0.1333 -1.1570 -2.1855
14645TIP3    H265351   3.717   0.370  17.049 -1.1444  1.2155  0.5485
14646TIP3   OH265352   2.326   2.337   4.457  0.1142  0.3641 -0.1984
14646TIP3    H165353   2.376   2.340   4.376 -1.2972 -1.6798 -1.2431
14646TIP3    H265354   2.355   2.257   4.500  1.4455  1.8372  1.7995
14647TIP3   OH265355   5.970   1.591   1.771  0.0858 -0.1207 -0.0263
14647TIP3    H165356   5.891   1.561   1.726  0.5571  1.1409 -1.8186
14647TIP3    H265357   5.944   1.671   1.815  0.1892 -0.0946 -0.0119
14648TIP3   OH265358   6.709   1.329   1.716  0.8697  0.2040 -0.4941
14648TIP3    H165359   6.692   1.400   1.777 -0.7403 -1.2304  0.8527
14648TIP3    H265360   6.623   1.306   1.682  1.1960 -1.6499 -0.1795
14649TIP3   OH265361   2.069   6.009  14.112  0.1416 -0.2873  0.2215
14649TIP3    H165362   2.103   6.098  14.105  1.2033 -0.6107  1.1072
14649TIP3    H265363   2.009   6.001  14.038 -0.8961  1.5516  0.8050
14650TIP3   OH265364   6.041   5.752   2.467 -0.1541 -0.2435 -0.1157
14650TIP3    H165365   6.122   5.799   2.446  0.1721  0.4363  2.2988
14650TIP3    H265366   6.070   5.669   2.504 -0.2901  1.0218  3.2224
14651TIP3   OH265367   0.098   3.655  17.379  0.4254 -0.1878  0.1702
14651TIP3    H165368   0.187   3.626  17.362  0.3973 -0.6003  0.6838
14651TIP3    H265369   0.107   3.716  17.453  0.3073 -0.0671  0.0851
14652TIP3   OH265370   3.339   3.184  15.515 -0.2668  0.0137  0.5706
14652TIP3    H165371   3.282   3.195  15.591 -1.9615 -1.9258 -0.3174
14652TIP3    H265372   3.335   3.090  15.496 -0.1451  0.4583 -2.0542
14653TIP3   OH265373   1.244   2.195   0.891 -0.6589 -0.5151 -0.0551
14653TIP3    H165374   1.186   2.120   0.909 -0.5568 -0.6824 -0.4220
14653TIP3    H265375   1.312   2.159   0.834 -1.0459  0.0485 -0.8775
14654TIP3   OH265376   0.335   6.451  12.242 -0.1059  0.7649 -0.0710
14654TIP3    H165377   0.322   6.539  12.208 -1.2250  0.5948 -0.1262
14654TIP3    H265378   0.288   6.450  12.325 -2.1890 -0.4514 -1.1748
14655TIP3   OH265379   3.318   0.454  14.119  0.5543 -0.0043 -0.4516
14655TIP3    H165380   3.290   0.384  14.060  0.6522 -0.1196 -0.3599
14655TIP3    H265381   3.283   0.429  14.204 -0.8004  0.8631 -0.7181
14656TIP3   OH265382   6.699   5.650  16.672  0.6667 -0.8197  0.2818
14656TIP3    H165383   6.648   5.585  16.721 -0.0202 -0.5001  0.0034
14656TIP3    H265384   6.709   5.723  16.733 -0.3850 -0.3277 -0.1149
14657TIP3   OH265385   3.192   6.458  13.003 -0.5305 -0.3243 -1.0337
14657TIP3    H165386   3.251   6.489  13.071 -1.2725 -0.8223 -0.1496
14657TIP3    H265387   3.175   6.367  13.025  0.8175 -1.1427 -3.0236
14658TIP3   OH265388   4.778   6.403  13.000  0.0681  0.6131  0.2647
14658TIP3    H165389   4.771   6.318  13.043  1.5095  0.7558  0.8189
14658TIP3    H265390   4.689   6.422  12.970 -0.1868 -1.3071 -0.3169
14659TIP3   OH265391   4.105   4.779   4.681  0.2178  0.3113  0.4745
14659TIP3    H165392   4.093   4.848   4.747  0.1208 -0.1818  0.9808
14659TIP3    H265393   4.042   4.712   4.705  0.5102 -0.0832  0.1528
14660TIP3   OH265394   3.660   5.007   3.401  0.0891  0.1973  0.9427
14660TIP3    H165395   3.567   4.990   3.391 -0.2394  0.6735  2.8628
14660TIP3    H265396   3.690   5.032   3.313 -1.3732 -0.8665  0.1086
14661TIP3   OH265397   5.756   6.418  11.967  0.3274 -0.2144  0.4652
14661TIP3    H165398   5.799   6.502  11.984 -1.6415  0.9392  0.0559
14661TIP3    H265399   5.768   6.403  11.873 -0.4840  0.3173  0.2690
14662TIP3   OH265400   6.744   6.426   3.530 -0.3325  0.2846  0.3074
14662TIP3    H165401   6.809   6.492   3.505  0.8585 -0.9536  0.0594
14662TIP3    H265402   6.795   6.351   3.561 -1.6786 -0.1971  1.4808
14663TIP3   OH265403   5.301   5.537  11.525 -0.2811 -0.1555  0.1535
14663TIP3    H165404   5.317   5.590  11.446 -1.9881  1.0238  0.5530
14663TIP3    H265405   5.322   5.448  11.498 -1.9566  0.0327 -2.0375
14664TIP3   OH265406   1.383   6.632  16.874  0.7959 -0.0475  0.6079
14664TIP3    H165407   1.339   6.714  16.894 -0.9841 -1.1010  1.2530
14664TIP3    H265408   1.328   6.565  16.915  1.4126 -1.6719 -1.0999
14665TIP3   OH265409   2.204   0.554  17.252  0.3394  0.3131  0.5544
14665TIP3    H165410   2.238   0.466  17.240  0.3707  0.1481  1.7651
14665TIP3    H265411   2.193   0.588  17.163 -1.2178 -1.4841 -0.0007
14666TIP3   OH265412   0.098   1.638   2.996  0.5630 -0.0064  0.2025
14666TIP3    H165413   0.095   1.569   3.061 -0.3747 -2.0679 -1.8818
14666TIP3    H265414   0.006   1.654   2.973  0.8095  1.4070  0.0738
14667TIP3   OH265415   2.579   1.507   3.700 -0.3564 -0.0226 -0.2088
14667TIP3    H165416   2.517   1.439   3.676  0.1487 -0.7529  0.4998
14667TIP3    H265417   2.664   1.463   3.700 -0.0927  0.4652  0.8336
14668TIP3   OH265418   6.088   5.935  16.565 -0.0087  0.4675 -0.7941
14668TIP3    H165419   6.003   5.901  16.593  0.4549 -0.8680 -0.9282
14668TIP3    H265420   6.107   6.006  16.627 -1.4423  1.1431 -1.0925
14669TIP3   OH265421   5.973   6.394  12.807 -0.3364  0.4713 -0.0680
14669TIP3    H165422   5.978   6.367  12.716  0.0236 -0.4547  0.2119
14669TIP3    H265423   6.057   6.435  12.825  0.0038 -0.2715  0.1117
14670TIP3   OH265424   0.893   2.484  15.155  0.3494 -0.0558 -0.5375
14670TIP3    H165425   0.952   2.453  15.086  0.5072 -0.5985 -0.1593
14670TIP3    H265426   0.933   2.566  15.185  1.1567 -0.6477  0.0274
14671TIP3   OH265427   5.152   0.351  16.944 -0.4396 -0.1876 -0.2722
14671TIP3    H165428   5.124   0.424  17.000 -0.3127  0.9584 -1.6200
14671TIP3    H265429   5.234   0.321  16.983 -0.8398 -0.0670  0.6977
14672TIP3   OH265430   1.094   3.361   1.707 -0.5776  1.1523  0.4173
14672TIP3    H165431   1.008   3.367   1.666 -0.8683 -0.0358  0.8009
14672TIP3    H265432   1.135   3.284   1.667  0.7069  2.2259 -0.4417
14673TIP3   OH265433   4.643   4.636  12.302  0.1217  0.1626 -0.6382
14673TIP3    H165434   4.721   4.631  12.357 -2.0022 -1.7584  2.5657
14673TIP3    H265435   4.663   4.581  12.226  1.7838 -0.4958  0.2136
14674TIP3   OH265436   5.887   5.240  11.867 -0.1280  0.3099 -0.0465
14674TIP3    H165437   5.880   5.191  11.785  3.3654 -3.5512  1.5769
14674TIP3    H265438   5.940   5.317  11.845 -0.1370 -0.0880 -1.5896
14675TIP3   OH265439   3.314   5.705  13.601  0.3680 -0.0175  0.0655
14675TIP3    H165440   3.287   5.695  13.509  0.3724 -0.1627  0.0808
14675TIP3    H265441   3.235   5.736  13.646 -0.2402 -1.9690  0.4169
14676TIP3   OH265442   4.590   4.062  12.081 -0.3026 -0.5659  0.1896
14676TIP3    H165443   4.652   4.071  12.154 -0.0588  0.1263 -0.1038
14676TIP3    H265444   4.626   4.117  12.012 -1.3432 -0.0149  0.0810
14677TIP3   OH265445   6.740   5.035  16.875  0.0303 -0.4093  0.1850
14677TIP3    H165446   6.725   5.056  16.783  1.4440 -1.1840 -0.2505
14677TIP3    H265447   6.653   5.038  16.915 -0.2655  3.4034 -0.4035
14678TIP3   OH265448   1.987   3.886   0.952 -0.3677  0.4570 -0.0116
14678TIP3    H165449   2.071   3.898   0.997 -0.1312 -0.8477 -0.0684
14678TIP3    H265450   1.922   3.882   1.023 -0.1497 -0.3415  0.1528
14679TIP3   OH265451   1.941   5.964  12.468 -0.1905  0.2476  0.0645
14679TIP3    H165452   1.849   5.976  12.443 -0.3282 -0.3703  0.2467
14679TIP3    H265453   1.989   6.029  12.417 -0.5088 -0.6850 -1.4891
14680TIP3   OH265454   2.918   5.895   5.745  0.0524 -0.4716 -0.1764
14680TIP3    H165455   2.877   5.935   5.822 -1.9239 -0.7139 -1.0564
14680TIP3    H265456   2.860   5.823   5.721 -1.1670  1.4507 -3.6973
14681TIP3   OH265457   5.857   1.275  15.552 -0.1140 -0.0064  0.6136
14681TIP3    H165458   5.831   1.187  15.580  0.9644 -0.3983  0.4089
14681TIP3    H265459   5.892   1.262  15.464  0.1051  0.6233  0.6081
14682TIP3   OH265460   0.394   3.090  11.897  0.1105  0.6617 -0.0928
14682TIP3    H165461   0.335   3.075  11.970  0.3787  1.1953  0.2372
14682TIP3    H265462   0.382   3.013  11.840 -1.1261  0.9036 -0.1943
14683TIP3   OH265463   0.622   3.148   2.689 -0.1559  0.2292  0.2354
14683TIP3    H165464   0.679   3.073   2.707 -1.9510 -1.2451  0.1365
14683TIP3    H265465   0.658   3.187   2.609  1.6880  0.4166  1.1197
14684TIP3   OH265466   1.889   3.674   3.828  0.2745 -0.5214  0.1746
14684TIP3    H165467   1.932   3.600   3.871 -0.5644  0.2106  2.4084
14684TIP3    H265468   1.861   3.639   3.743  2.7003 -1.8052 -0.1859
14685TIP3   OH265469   5.971   3.483   0.247 -0.7846 -0.3041  0.0715
14685TIP3    H165470   5.985   3.576   0.259  2.1264 -0.4126 -1.6529
14685TIP3    H265471   5.998   3.444   0.330  0.7402  0.2391 -0.1366
14686TIP3   OH265472   4.286   5.802   5.317 -0.0628  0.7381 -0.4331
14686TIP3    H165473   4.369   5.819   5.273 -0.3769  2.1223 -0.5451
14686TIP3    H265474   4.220   5.830   5.253 -0.5548  1.4014  0.3522
14687TIP3   OH265475   3.159   5.558   4.437 -0.2272 -0.0257 -0.0440
14687TIP3    H165476   3.253   5.569   4.422 -0.3368 -0.0489 -0.7941
14687TIP3    H265477   3.135   5.483   4.382 -0.3951 -1.0102  1.3327
14688TIP3   OH265478   1.467   2.791  11.486 -0.0432 -0.0166  0.1368
14688TIP3    H165479   1.429   2.712  11.448  0.1151 -0.4623  0.8649
14688TIP3    H265480   1.420   2.863  11.446 -0.4231 -0.4971 -0.2920
14689TIP3   OH265481   1.251   2.950  11.604  0.9412  0.8467 -0.0548
14689TIP3    H165482   1.343   2.943  11.630  0.8064  0.2501  0.2851
14689TIP3    H265483   1.232   2.865  11.563  0.5948  1.0383 -0.2939
14690TIP3   OH265484   2.185   4.707  12.425  0.6576 -0.1191 -0.0650
14690TIP3    H165485   2.183   4.712  12.520 -0.9650 -0.7213 -0.0346
14690TIP3    H265486   2.166   4.796  12.396 -1.2858 -0.4025  0.2243
14691TIP3   OH265487   1.449   1.808   3.290 -0.5672 -0.5313  0.0439
14691TIP3    H165488   1.542   1.814   3.313 -0.3841 -1.1242 -0.5127
14691TIP3    H265489   1.431   1.889   3.243 -0.6260  0.1093  1.1251
14692TIP3   OH265490   4.603   0.651  15.752 -0.4061 -0.0464  0.3325
14692TIP3    H165491   4.687   0.634  15.796 -0.0237  0.6561 -0.0958
14692TIP3    H265492   4.556   0.707  15.813  0.3722  1.4333 -0.3690
14693TIP3   OH265493   3.573   4.545  15.212  0.3719  0.3293 -0.0307
14693TIP3    H165494   3.611   4.533  15.125 -0.4160 -1.7155 -0.1548
14693TIP3    H265495   3.527   4.629  15.206  0.9540  0.5892 -1.3404
14694TIP3   OH265496   2.756   4.543  14.302 -0.2192  0.4444  0.5180
14694TIP3    H165497   2.718   4.534  14.389 -0.4291  1.5285  0.5528
14694TIP3    H265498   2.739   4.459  14.260  0.8611 -0.5086  1.8890
14695TIP3   OH265499   3.555   6.083   6.087  0.3814  0.4850  0.6478
14695TIP3    H165500   3.628   6.039   6.131  0.8401 -0.0828 -0.6240
14695TIP3    H265501   3.526   6.150   6.149  0.8981 -0.3700  1.8582
14696TIP3   OH265502   3.184   2.805   6.922  0.1821 -0.3853  0.2585
14696TIP3    H165503   3.168   2.710   6.919  2.0966 -0.7709  0.6784
14696TIP3    H265504   3.270   2.816   6.881  0.6311  0.9788  1.4764
14697TIP3   OH265505   0.660   1.751   4.436  0.3247 -0.5401 -0.9880
14697TIP3    H165506   0.694   1.662   4.425  2.5993  0.4141 -2.2248
14697TIP3    H265507   0.592   1.759   4.369 -1.1911 -1.8635  0.2967
14698TIP3   OH265508   0.874   3.725   5.779 -0.3676 -0.0416 -0.0633
14698TIP3    H165509   0.932   3.797   5.805 -0.4887  0.2887 -0.6985
14698TIP3    H265510   0.885   3.718   5.684 -1.9303  0.5287 -0.3178
14699TIP3   OH265511   1.011   1.104  11.090  0.8297  0.1500  0.0465
14699TIP3    H165512   1.047   1.163  11.156  1.6178 -1.5950  1.2393
14699TIP3    H265513   1.085   1.051  11.061  0.4285  0.6131 -2.0145
14700TIP3   OH265514   4.520   5.573  14.530 -0.3143  0.0123 -0.3575
14700TIP3    H165515   4.462   5.560  14.455  0.0969 -0.0428 -0.6733
14700TIP3    H265516   4.467   5.619  14.595 -0.7000 -0.0195 -0.6501
14701TIP3   OH265517   3.694   4.515  13.106 -0.0076 -0.0285  0.3169
14701TIP3    H165518   3.752   4.540  13.033 -1.7992 -0.8303 -1.4741
14701TIP3    H265519   3.624   4.580  13.104 -1.1808 -1.2594 -0.0790
14702TIP3   OH265520   0.374   3.517  12.803 -0.7003 -0.5402 -0.1717
14702TIP3    H165521   0.399   3.429  12.774  1.3736 -0.1255  0.2035
14702TIP3    H265522   0.322   3.502  12.882  0.7585 -1.4155  0.6573
14703TIP3   OH265523   2.934   5.699   0.370  0.0602 -0.1086  0.1289
14703TIP3    H165524   2.838   5.699   0.365  0.1089  0.2341 -1.0363
14703TIP3    H265525   2.958   5.792   0.369  0.3932 -0.1798  0.8963
14704TIP3   OH265526   2.787   1.712  14.066 -0.6953  0.3602 -0.3476
14704TIP3    H165527   2.704   1.758  14.079 -0.3246  0.9790 -0.0921
14704TIP3    H265528   2.763   1.630  14.023 -1.5817 -0.0489  0.8575
14705TIP3   OH265529   5.135   2.406   5.807  0.0840 -0.5116  0.2410
14705TIP3    H165530   5.199   2.409   5.877 -0.0871 -2.1933  0.5048
14705TIP3    H265531   5.120   2.313   5.791 -1.5124 -0.1742 -0.5212
14706TIP3   OH265532   4.103   3.669  11.086 -1.0002  0.0963  0.1511
14706TIP3    H165533   4.010   3.644  11.082 -0.9689 -0.0905  0.5278
14706TIP3    H265534   4.103   3.754  11.129 -0.9740 -0.0626  0.4728
14707TIP3   OH265535   0.964   1.826   0.508 -0.0883 -0.6234 -0.3014
14707TIP3    H165536   0.922   1.835   0.594 -0.2915 -2.2337 -0.1975
14707TIP3    H265537   1.058   1.822   0.528  0.1229  1.8977 -0.4450
14708TIP3   OH265538   1.072   6.144   1.464 -0.1886  0.4839 -0.2380
14708TIP3    H165539   1.148   6.150   1.521  1.3935  0.4659 -2.2164
14708TIP3    H265540   1.014   6.082   1.507  0.4263  1.2855  1.8494
14709TIP3   OH265541   0.588   5.600   1.834 -0.1055 -0.1205 -0.4699
14709TIP3    H165542   0.520   5.545   1.873  1.6011 -0.9701  1.4485
14709TIP3    H265543   0.563   5.689   1.857 -1.1691 -0.3146 -0.8038
14710TIP3   OH265544   2.884   0.571  11.723  0.5673 -0.6421  0.3743
14710TIP3    H165545   2.929   0.592  11.805  0.7176 -0.5258  0.2613
14710TIP3    H265546   2.795   0.604  11.735  1.0654  1.0193 -0.1973
14711TIP3   OH265547   3.360   4.023  15.073  0.1167  0.2483 -0.3678
14711TIP3    H165548   3.422   4.049  15.141  0.8549 -1.7228 -0.2238
14711TIP3    H265549   3.279   4.070  15.095  0.9851  1.3878  0.5377
14712TIP3   OH265550   3.088   1.245  11.477 -0.2678 -0.0857  0.2367
14712TIP3    H165551   3.083   1.320  11.537  0.4697  0.7746 -0.7429
14712TIP3    H265552   3.082   1.284  11.390  0.3769 -1.1474 -0.2992
14713TIP3   OH265553   4.661   2.691  11.330 -0.4371 -0.6967 -0.3254
14713TIP3    H165554   4.631   2.603  11.304 -1.4760 -0.5149  0.1797
14713TIP3    H265555   4.712   2.676  11.409 -0.2006 -0.8963 -0.5143
14714TIP3   OH265556   6.356   4.425   2.024 -0.6714 -0.4423 -0.4485
14714TIP3    H165557   6.287   4.430   1.957 -2.2734 -0.0043  1.1497
14714TIP3    H265558   6.330   4.351   2.080 -0.8802  0.8497  1.2332
14715TIP3   OH265559   5.561   6.451   2.986 -0.6150  0.3038 -0.1443
14715TIP3    H165560   5.499   6.386   3.018 -0.8387  0.4454 -0.2905
14715TIP3    H265561   5.535   6.467   2.896 -0.0618 -0.0041 -0.3673
14716TIP3   OH265562   6.622   5.812  11.192  0.2678  0.6088  0.2708
14716TIP3    H165563   6.656   5.894  11.155 -0.1038  0.2850 -0.8219
14716TIP3    H265564   6.649   5.745  11.130 -0.2897  0.0316  0.6413
14717TIP3   OH265565   6.617   0.762   0.016 -0.0400  0.1366  0.0927
14717TIP3    H165566   6.624   0.836  -0.044  1.9796  0.0955  0.2237
14717TIP3    H265567   6.575   0.798   0.094 -0.2969  0.7994 -0.3448
14718TIP3   OH265568   6.021   1.554  15.455  0.2836 -0.4384 -0.5648
14718TIP3    H165569   6.017   1.633  15.401 -2.6043  0.9741  1.4323
14718TIP3    H265570   5.979   1.487  15.402 -1.0203  0.5022 -0.7820
14719TIP3   OH265571   0.954   5.806   2.563  0.5299  0.1506  0.1501
14719TIP3    H165572   0.907   5.749   2.624 -0.6469  0.4704 -0.4423
14719TIP3    H265573   0.987   5.746   2.495  0.2756  0.0245  0.1360
14720TIP3   OH265574   2.320   3.761   3.254 -0.3101 -0.0074 -0.1734
14720TIP3    H165575   2.257   3.829   3.229 -1.8762 -1.3396 -0.0312
14720TIP3    H265576   2.373   3.801   3.323 -2.5439  0.4792  1.3865
14721TIP3   OH265577   4.733   2.305  14.350  0.0486  0.1345 -0.7606
14721TIP3    H165578   4.705   2.384  14.304  2.6126  0.5248 -1.8095
14721TIP3    H265579   4.764   2.336  14.435 -0.2095  0.0632 -0.6396
14722TIP3   OH265580   0.060   4.638  15.750 -0.4823  0.4690 -0.0673
14722TIP3    H165581  -0.032   4.617  15.760 -0.6368  0.5609 -1.1336
14722TIP3    H265582   0.082   4.609  15.661  0.8940 -0.8711  0.6595
14723TIP3   OH265583   2.993   4.346  13.037 -0.6482 -0.2790  0.2105
14723TIP3    H165584   2.958   4.336  12.949  1.1767 -0.4803 -0.5479
14723TIP3    H265585   3.065   4.282  13.042  0.3993  0.9173  1.2102
14724TIP3   OH265586   1.824   5.728  14.848 -0.0534  0.3059 -0.4692
14724TIP3    H165587   1.743   5.710  14.896 -0.3229  0.5182 -0.8386
14724TIP3    H265588   1.856   5.810  14.885  0.4013 -0.1648  0.2050
14725TIP3   OH265589   6.205   4.435   0.352  0.0083 -0.1905  0.3377
14725TIP3    H165590   6.250   4.483   0.422 -0.9691  1.2584  0.0288
14725TIP3    H265591   6.112   4.440   0.376 -0.1890 -1.2277 -0.1552
14726TIP3   OH265592   0.971   5.497  12.823  0.1804  0.2122 -0.3646
14726TIP3    H165593   0.882   5.485  12.858  0.3624 -1.0917 -0.2961
14726TIP3    H265594   0.957   5.537  12.737 -0.3621  1.7320  0.3803
14727TIP3   OH265595   6.134   6.688  14.908  0.1286 -0.4705 -0.0340
14727TIP3    H165596   6.193   6.754  14.943 -0.3847 -0.0415  0.0365
14727TIP3    H265597   6.130   6.707  14.814 -3.1955  2.2483  0.4936
14728TIP3   OH265598   3.106   3.747   3.648  0.2870  0.8296  0.4964
14728TIP3    H165599   3.192   3.704   3.646 -0.1193  0.0061  0.2272
14728TIP3    H265600   3.063   3.711   3.725 -0.5579 -0.2629 -0.4570
14729TIP3   OH265601   0.280   2.735   0.322  0.5112 -0.4176 -0.2714
14729TIP3    H165602   0.249   2.762   0.236 -1.7737 -0.6528  0.4051
14729TIP3    H265603   0.200   2.723   0.374  1.8266  0.6747  2.1952
14730TIP3   OH265604   1.194   6.013   5.136  0.1620 -0.3808 -0.0576
14730TIP3    H165605   1.099   6.013   5.125  0.2084  3.0443 -1.8018
14730TIP3    H265606   1.207   6.025   5.230 -1.0296 -2.1071  0.3787
14731TIP3   OH265607   4.912   0.529  10.797 -0.1507 -0.7789  0.1134
14731TIP3    H165608   4.917   0.592  10.726  0.9374 -0.7977  0.1622
14731TIP3    H265609   4.866   0.576  10.867  1.2983  0.2302  0.4139
14732TIP3   OH265610   0.632   0.041  13.029  0.0390  0.3792 -0.2750
14732TIP3    H165611   0.654  -0.052  13.045  1.8006  0.4686 -1.8340
14732TIP3    H265612   0.664   0.086  13.107 -1.6862 -0.3771  0.9350
14733TIP3   OH265613   6.102   1.884  14.956 -0.3414 -0.1108  0.3755
14733TIP3    H165614   6.183   1.841  14.979 -0.8086 -0.2496  1.8645
14733TIP3    H265615   6.127   1.951  14.891  0.5476 -1.7731 -1.0666
14734TIP3   OH265616   6.396   4.008  12.187 -0.4508  0.2544  0.4308
14734TIP3    H165617   6.388   3.994  12.093 -0.9177 -0.1294  0.5267
14734TIP3    H265618   6.340   4.084  12.206 -0.3302  0.3526  0.3964
14735TIP3   OH265619   4.336   4.934  15.314  0.0762 -0.1257  0.2502
14735TIP3    H165620   4.432   4.939  15.318  0.1444  1.3568 -1.5702
14735TIP3    H265621   4.308   4.950  15.404  1.5307 -0.1965  0.7524
14736TIP3   OH265622   2.329   6.466   1.465 -0.0798  0.5482 -0.2566
14736TIP3    H165623   2.385   6.534   1.428 -1.1877  1.0309 -1.1017
14736TIP3    H265624   2.244   6.508   1.476 -0.6884 -0.5899 -0.4208
14737TIP3   OH265625   5.463   6.441  16.680  0.1439 -0.0010 -0.1307
14737TIP3    H165626   5.477   6.524  16.726 -0.5186  0.1157 -0.1272
14737TIP3    H265627   5.470   6.374  16.748  0.7177  0.0456 -0.1410
14738TIP3   OH265628   0.714   5.561   0.049 -0.2212 -0.7417 -0.0147
14738TIP3    H165629   0.647   5.578   0.116  0.4692 -0.0397  0.5105
14738TIP3    H265630   0.772   5.497   0.090 -2.0240 -3.5128 -1.4642
14739TIP3   OH265631   5.875   2.171   4.366 -0.0083  0.3269 -0.0427
14739TIP3    H165632   5.919   2.086   4.358  0.8332  0.7895 -0.4987
14739TIP3    H265633   5.845   2.190   4.277 -2.5926 -0.7144  0.5368
14740TIP3   OH265634   1.773   2.874   0.255  0.5275 -0.6066  0.0845
14740TIP3    H165635   1.858   2.853   0.292 -0.1322 -0.0759  2.0459
14740TIP3    H265636   1.739   2.791   0.223  1.2978 -1.0252  0.3304
14741TIP3   OH265637   6.645   5.113  16.158 -0.3538  0.2776 -0.2422
14741TIP3    H165638   6.716   5.076  16.105 -1.6542 -1.1497 -1.0601
14741TIP3    H265639   6.613   5.039  16.210  0.4491  1.4940  2.1395
14742TIP3   OH265640   2.256   6.022   4.007 -0.7049  0.2345 -0.2776
14742TIP3    H165641   2.164   5.996   4.018 -1.2983  2.3599  0.1705
14742TIP3    H265642   2.266   6.036   3.913 -1.6253  2.5054 -0.0953
14743TIP3   OH265643   1.841   3.337  11.437  0.4560 -0.0615 -0.0898
14743TIP3    H165644   1.820   3.248  11.409  0.8866 -0.6985  1.4913
14743TIP3    H265645   1.936   3.345  11.422  0.5618 -0.1585  0.5226
14744TIP3   OH265646   0.097   4.999  17.118  0.4330 -0.7012 -0.5142
14744TIP3    H165647   0.053   4.926  17.160 -0.4895 -0.7721 -1.5634
14744TIP3    H265648   0.044   5.018  17.040  0.7268  0.9834 -0.3491
14745TIP3   OH265649   6.445   6.539  11.768 -0.7249 -0.3361 -0.1483
14745TIP3    H165650   6.387   6.466  11.745  1.2772 -2.5653  1.3258
14745TIP3    H265651   6.529   6.516  11.729  0.3977  0.2693  1.7387
14746TIP3   OH265652   5.510   1.919  14.354  0.0949 -0.3084 -0.0402
14746TIP3    H165653   5.490   1.990  14.414  0.2859  0.4615 -0.8653
14746TIP3    H265654   5.570   1.958  14.290 -0.5355 -0.9398 -1.0483
14747TIP3   OH265655   3.137   3.390  16.419  0.2174  0.0999 -0.2772
14747TIP3    H165656   3.215   3.338  16.439 -0.2343 -0.5106 -0.0965
14747TIP3    H265657   3.148   3.470  16.471 -0.7956 -1.3111  2.2908
14748TIP3   OH265658   4.933   0.074  13.946  0.7763 -0.1675  0.9822
14748TIP3    H165659   4.930   0.057  13.851 -0.1218  1.0257  0.7751
14748TIP3    H265660   5.019   0.113  13.960  0.2427  1.3154  0.3320
14749TIP3   OH265661   6.329   5.377   5.164  0.4923  0.0453 -0.1267
14749TIP3    H165662   6.341   5.304   5.103 -0.5112 -0.5909  0.3998
14749TIP3    H265663   6.313   5.453   5.108 -1.0020 -0.6395 -0.6750
14750TIP3   OH265664   5.609   3.452  15.992  0.0807 -0.0988  0.2343
14750TIP3    H165665   5.694   3.416  15.970  0.3690  1.0136 -0.5304
14750TIP3    H265666   5.546   3.396  15.946  0.5272  0.3808 -0.9935
14751TIP3   OH265667   2.709   0.573   2.434  0.4531 -0.5447  0.0923
14751TIP3    H165668   2.741   0.509   2.497  3.4538  0.3596 -0.3940
14751TIP3    H265669   2.673   0.643   2.488  1.7329 -0.4045  0.7999
14752TIP3   OH265670   3.036   0.940   6.175  0.6804 -0.0645 -0.4125
14752TIP3    H165671   2.961   0.998   6.160 -0.4050 -1.5623 -0.9813
14752TIP3    H265672   3.040   0.932   6.271  0.3670  0.3554 -0.3581
14753TIP3   OH265673   0.337   5.716  14.060  0.2722 -0.1747 -0.3194
14753TIP3    H165674   0.411   5.684  14.111 -1.2365 -1.0189  1.4475
14753TIP3    H265675   0.292   5.637  14.030 -1.5236  0.2250  1.1341
14754TIP3   OH265676   5.062   6.378   4.816  0.4911  0.6782 -0.5142
14754TIP3    H165677   4.984   6.364   4.764 -1.8654  0.1219  2.8174
14754TIP3    H265678   5.125   6.314   4.784 -1.8693 -1.6534 -0.8006
14755TIP3   OH265679   4.375   0.671   1.959  0.0745  0.0278  0.4251
14755TIP3    H165680   4.467   0.699   1.961  0.0491  0.2145 -0.5189
14755TIP3    H265681   4.328   0.741   2.004  0.4957 -0.5215  1.7543
14756TIP3   OH265682   1.432   5.001   4.935  0.2825 -0.0692  0.1082
14756TIP3    H165683   1.436   5.033   4.845 -0.7048 -0.7232 -0.1755
14756TIP3    H265684   1.413   5.079   4.987 -0.8798  0.0261 -0.4417
14757TIP3   OH265685   4.505   0.327  12.304 -0.1330 -0.8530  0.2497
14757TIP3    H165686   4.448   0.347  12.378  0.0915  0.0525  0.1913
14757TIP3    H265687   4.589   0.369  12.325  0.3689 -1.7418  0.1054
14758TIP3   OH265688   0.313   1.448  13.356 -0.0819  0.4004 -0.7799
14758TIP3    H165689   0.405   1.473  13.360  0.8758 -2.8236  0.1547
14758TIP3    H265690   0.302   1.412  13.268 -0.6530  1.2215 -1.0665
14759TIP3   OH265691   4.765   2.136  14.050  0.1072 -0.4386  0.1701
14759TIP3    H165692   4.786   2.140  14.143 -1.1843 -0.0907  0.4549
14759TIP3    H265693   4.849   2.118  14.008  0.5206 -1.7466  1.4864
14760TIP3   OH265694   0.379   5.165   4.293 -0.1124 -0.1898 -0.3234
14760TIP3    H165695   0.434   5.243   4.301  0.2354 -0.6296  2.4911
14760TIP3    H265696   0.437   5.098   4.258  0.4800 -0.0158  0.3094
14761TIP3   OH265697   3.221   6.410   0.049  0.0300  0.4430 -0.1960
14761TIP3    H165698   3.150   6.445  -0.004  1.5215  2.7061 -0.8507
14761TIP3    H265699   3.233   6.473   0.119  2.5263  1.1599 -1.1373
14762TIP3   OH265700   3.451   5.644   2.244  0.2262  1.0380  0.1235
14762TIP3    H165701   3.378   5.650   2.305 -0.8615  0.7131 -1.1162
14762TIP3    H265702   3.423   5.581   2.178  1.9134  0.3508 -0.0086
14763TIP3   OH265703   0.397   4.949   3.319 -0.2131 -0.1660  0.7185
14763TIP3    H165704   0.390   4.963   3.225 -0.2061 -0.0289  0.7372
14763TIP3    H265705   0.383   4.855   3.331 -0.7687 -0.0980  0.6298
14764TIP3   OH265706   1.610   3.191   6.035  0.6210  0.6146 -0.3801
14764TIP3    H165707   1.603   3.164   6.127 -0.5124  0.4433 -0.5030
14764TIP3    H265708   1.685   3.142   6.002 -0.0476 -0.7139 -0.0123
14765TIP3   OH265709   2.093   6.490   3.263 -0.1859  0.2892  0.0076
14765TIP3    H165710   2.028   6.424   3.287 -0.2638  0.6100  0.6965
14765TIP3    H265711   2.175   6.456   3.300 -0.7847  2.2088  3.5481
14766TIP3   OH265712   0.461   6.165  16.488 -0.2752 -0.1275  0.8481
14766TIP3    H165713   0.499   6.203  16.408  2.4064 -3.1284  0.4818
14766TIP3    H265714   0.388   6.223  16.509  1.8111  3.6036 -1.0081
14767TIP3   OH265715   1.780   0.897   0.035  0.3324 -0.3322 -0.0925
14767TIP3    H165716   1.850   0.835   0.017  0.1473 -0.2303 -1.2843
14767TIP3    H265717   1.702   0.856  -0.003 -0.0188  0.1005  0.1541
14768TIP3   OH265718   3.816   0.807  15.840  0.2153  0.0257  0.2554
14768TIP3    H165719   3.898   0.759  15.828 -0.1665 -0.1885 -1.9344
14768TIP3    H265720   3.835   0.896  15.810  0.5821  1.0427  3.1594
14769TIP3   OH265721   3.131   1.407  11.269 -0.6170  0.2251 -0.2109
14769TIP3    H165722   3.118   1.373  11.181  2.1529 -1.3496 -0.1478
14769TIP3    H265723   3.140   1.501  11.257 -1.4177  0.1659 -1.4337
14770TIP3   OH265724   3.299   0.240   0.010  0.0707  0.0893  0.0660
14770TIP3    H165725   3.328   0.246   0.101  0.1352 -1.1147  0.1324
14770TIP3    H265726   3.212   0.279   0.010 -0.3307 -0.7763  0.8459
14771TIP3   OH265727   2.266   0.010  13.093 -0.5060  0.1103  0.4437
14771TIP3    H165728   2.208   0.070  13.140 -0.2114  1.4029 -0.7533
14771TIP3    H265729   2.334   0.067  13.056  1.2458 -1.2828  1.3402
14772TIP3   OH265730   5.678   0.704   3.175  0.5238 -0.2530  0.3474
14772TIP3    H165731   5.697   0.754   3.255  1.2776 -0.0199  0.0225
14772TIP3    H265732   5.710   0.616   3.194  1.8395  0.1094 -0.1546
14773TIP3   OH265733   3.364   3.409   4.584 -0.3867  0.2885  0.1321
14773TIP3    H165734   3.375   3.411   4.489 -0.4585  0.2287  0.1224
14773TIP3    H265735   3.316   3.489   4.604 -1.7869 -0.4875 -0.0640
14774TIP3   OH265736   4.332   0.563   3.154  0.1705  0.6583  0.1212
14774TIP3    H165737   4.292   0.484   3.118  1.0964  0.1510  0.1880
14774TIP3    H265738   4.367   0.536   3.238 -1.1045  1.5956  0.9959
14775TIP3   OH265739   3.351   5.603  11.838  0.2422  0.3410 -0.1767
14775TIP3    H165740   3.358   5.660  11.762 -0.6326 -0.3294 -0.7875
14775TIP3    H265741   3.441   5.576  11.857  0.8137  2.6891  0.7707
14776TIP3   OH265742   2.539   4.044  13.309 -0.8332  0.1458 -0.4466
14776TIP3    H165743   2.500   4.131  13.315 -0.3625  0.3498 -0.2526
14776TIP3    H265744   2.633   4.060  13.316 -0.7408 -0.3733 -0.4765
14777TIP3   OH265745   0.276   5.241  17.184 -0.6514  0.1676 -0.2250
14777TIP3    H165746   0.218   5.313  17.160  0.2585  1.2330  0.6492
14777TIP3    H265747   0.219   5.164  17.184 -1.7069  0.9052 -0.9356
14778TIP3   OH265748   5.366   0.515   5.098 -0.2782  0.0456  0.1753
14778TIP3    H165749   5.287   0.560   5.068 -0.9346  0.9731  2.9970
14778TIP3    H265750   5.354   0.424   5.068 -1.1669  0.7039 -1.5997
14779TIP3   OH265751   0.971   0.804  16.054  0.3092 -0.0552  0.1175
14779TIP3    H165752   0.998   0.773  15.967  2.0335  0.9884  0.2246
14779TIP3    H265753   0.900   0.746  16.080  1.9748 -2.5206 -0.5593
14780TIP3   OH265754   1.986   1.340  12.205 -0.0246 -0.2980 -0.1716
14780TIP3    H165755   2.046   1.288  12.152  0.5103  0.9681 -0.8369
14780TIP3    H265756   2.042   1.393  12.261 -0.5741 -1.0216  1.1103
14781TIP3   OH265757   2.696   2.737   0.778  0.1291 -0.1165  0.2345
14781TIP3    H165758   2.645   2.817   0.792 -1.5545 -1.0367 -0.2749
14781TIP3    H265759   2.631   2.667   0.785  0.6139 -1.1932 -3.6613
14782TIP3   OH265760   5.722   3.639   4.352  0.4479  0.5228  0.1932
14782TIP3    H165761   5.691   3.702   4.287 -2.1889 -1.0336 -0.1948
14782TIP3    H265762   5.646   3.585   4.372  2.1657 -1.5212  1.7218
14783TIP3   OH265763   1.508   0.014  11.593  0.0061  0.8689 -0.1702
14783TIP3    H165764   1.435   0.075  11.582 -2.1865 -1.2993  1.2539
14783TIP3    H265765   1.472  -0.070  11.566  1.3232 -0.6191  2.3992
14784TIP3   OH265766   4.583   5.616  12.662  0.1473  0.0352 -0.3473
14784TIP3    H165767   4.519   5.648  12.725  0.3048 -1.9189  0.9074
14784TIP3    H265768   4.668   5.629  12.706  0.2140 -1.9890  0.2444
14785TIP3   OH265769   6.099   0.514   0.473 -0.0700 -0.5699 -0.0069
14785TIP3    H165770   6.009   0.484   0.489  0.4794 -1.3829  1.7624
14785TIP3    H265771   6.115   0.580   0.540  0.0857  0.9072 -1.4334
14786TIP3   OH265772   4.895   6.215  16.842 -0.2997 -0.1518  0.5895
14786TIP3    H165773   4.817   6.265  16.818  0.4716  0.6098 -0.4383
14786TIP3    H265774   4.916   6.165  16.763  0.8268  0.4505  0.4820
14787TIP3   OH265775   3.486   4.342  13.019 -0.5589 -0.0210  0.5539
14787TIP3    H165776   3.541   4.412  12.985  2.8372 -3.2228 -1.2803
14787TIP3    H265777   3.411   4.339  12.959  1.4183 -0.5537 -2.0870
14788TIP3   OH265778   6.645   0.889  11.127 -0.5920  0.0329 -0.0073
14788TIP3    H165779   6.680   0.958  11.072  0.8224 -0.8986 -0.3377
14788TIP3    H265780   6.703   0.814  11.112 -0.6311 -0.4993  2.1215
14789TIP3   OH265781   0.192   0.870   4.934 -0.6504 -0.0655 -0.2039
14789TIP3    H165782   0.147   0.856   5.018 -1.4932 -4.2789 -1.0982
14789TIP3    H265783   0.260   0.803   4.932  0.0575  0.6380 -2.4247
14790TIP3   OH265784   6.473   5.429  14.230  0.1512  0.0694 -0.1555
14790TIP3    H165785   6.557   5.449  14.273 -0.2302  0.9201  0.2104
14790TIP3    H265786   6.471   5.334  14.226  0.2557 -0.0396  1.6145
14791TIP3   OH265787   3.182   0.344   2.773  0.0594  0.3034  0.2362
14791TIP3    H165788   3.166   0.252   2.752 -0.2682  0.1325  1.1813
14791TIP3    H265789   3.270   0.346   2.809  0.5327  0.5590 -0.9124
14792TIP3   OH265790   5.904   3.352  15.464 -0.5155 -0.7298 -0.9424
14792TIP3    H165791   5.928   3.369  15.556  2.5502 -1.4993 -1.4852
14792TIP3    H265792   5.875   3.437  15.431 -0.2855 -0.1085  0.3707
14793TIP3   OH265793   5.200   1.937  11.903  0.8514 -0.3731  0.5135
14793TIP3    H165794   5.140   1.971  11.836  0.7141 -1.3355  0.1249
14793TIP3    H265795   5.163   1.852  11.927  0.5770  0.1954  2.2604
14794TIP3   OH265796   5.156   4.011   3.809 -0.9258  0.2283  0.1854
14794TIP3    H165797   5.249   4.002   3.830 -1.2040  0.6276  1.7170
14794TIP3    H265798   5.128   3.924   3.783  0.2124  0.4191 -1.8451
14795TIP3   OH265799   5.651   0.787   3.847  0.6847  0.0207  0.7503
14795TIP3    H165800   5.686   0.749   3.766 -0.5505 -0.5268  0.4591
14795TIP3    H265801   5.681   0.728   3.916  0.0248 -0.6715  0.4590
14796TIP3   OH265802   4.371   0.680   0.568  0.1933 -0.4570 -0.1257
14796TIP3    H165803   4.370   0.732   0.488  0.4795 -0.1950  0.0358
14796TIP3    H265804   4.390   0.591   0.539  0.4161 -0.3416 -0.3382
14797TIP3   OH265805   5.095   5.929  15.138 -0.1083  0.8979  0.1414
14797TIP3    H165806   5.180   5.888  15.155 -0.8668 -0.3659  1.0701
14797TIP3    H265807   5.066   5.891  15.056 -0.4560  0.1263  0.6085
14798TIP3   OH265808   0.104   0.453  17.122  0.0436  0.2915  0.0987
14798TIP3    H165809   0.059   0.377  17.157 -1.4245  1.8815  1.8736
14798TIP3    H265810   0.104   0.440  17.027 -0.3973 -1.7526  0.3434
14799TIP3   OH265811   4.269   0.324   6.478  0.1470  0.6585  0.4311
14799TIP3    H165812   4.252   0.271   6.400 -0.0696  2.2846 -0.6790
14799TIP3    H265813   4.333   0.274   6.528 -0.5848 -0.9752 -0.1986
14800TIP3   OH265814   2.301   4.200  13.961  0.2299 -0.0166  0.2293
14800TIP3    H165815   2.358   4.232  13.891  2.6678 -1.0058  1.6370
14800TIP3    H265816   2.353   4.135  14.007 -1.3790  0.3383  2.7813
14801TIP3   OH265817   3.266   4.340   0.827  0.2106 -0.3966  0.5680
14801TIP3    H165818   3.336   4.353   0.764  0.1830 -0.9375  0.4182
14801TIP3    H265819   3.311   4.320   0.909  0.2422 -1.5625  0.2897
14802TIP3   OH265820   2.563   5.702   6.312  0.3659  0.3594  0.0919
14802TIP3    H165821   2.472   5.731   6.305  0.4290  0.6624  0.4789
14802TIP3    H265822   2.572   5.673   6.403  0.0659 -1.7465 -0.4962
14803TIP3   OH265823   1.411   1.045  12.773  0.1794 -0.1868 -0.4579
14803TIP3    H165824   1.392   1.131  12.736  1.4108 -0.1182 -0.9887
14803TIP3    H265825   1.486   1.060  12.831 -0.3837 -0.6863  0.4131
14804TIP3   OH265826   5.875   4.789  15.420 -0.0275 -0.0199 -0.1287
14804TIP3    H165827   5.967   4.807  15.397  0.1295 -2.0757 -1.3887
14804TIP3    H265828   5.878   4.759  15.511  1.0394 -2.7964 -0.9665
14805TIP3   OH265829   1.374   6.635  11.963  0.0604  0.2102 -0.3017
14805TIP3    H165830   1.315   6.573  11.919  0.9320 -0.3654 -0.7028
14805TIP3    H265831   1.400   6.696  11.894 -1.5222  1.6288  0.2995
14806TIP3   OH265832   1.795   0.388   4.109  0.9851 -0.5139  0.1659
14806TIP3    H165833   1.865   0.440   4.148 -0.3761  0.4366  1.4849
14806TIP3    H265834   1.781   0.427   4.023  0.7632  0.6038  0.6839
14807TIP3   OH265835   3.776   0.944  12.110 -0.2160  0.6179 -0.3633
14807TIP3    H165836   3.769   1.040  12.114  0.5796  0.7266 -1.2840
14807TIP3    H265837   3.699   0.913  12.158  0.0574  1.7061  0.8272
14808TIP3   OH265838   3.342   5.226   3.515 -0.2708  0.0328  0.3025
14808TIP3    H165839   3.342   5.275   3.432  0.3858 -1.0929 -0.3870
14808TIP3    H265840   3.433   5.229   3.544 -0.4623  0.2489  0.8888
14809TIP3   OH265841   4.749   5.790   4.665 -0.2678  0.2390  0.0116
14809TIP3    H165842   4.728   5.698   4.684  2.6800 -0.0854  2.5862
14809TIP3    H265843   4.838   5.788   4.631 -0.3022  2.1319 -0.3058
14810TIP3   OH265844   5.176   1.637  15.758  0.2977  0.4455  0.0104
14810TIP3    H165845   5.122   1.570  15.800 -0.5808  1.0940 -0.0514
14810TIP3    H265846   5.114   1.694  15.714  1.1281  0.4847 -1.1523
14811TIP3   OH265847   2.462   0.170  12.993 -0.1860 -0.1414  0.4759
14811TIP3    H165848   2.550   0.200  13.017  0.0336  1.8534 -2.2947
14811TIP3    H265849   2.465   0.159  12.898 -2.9358  0.0071  0.2778
14812TIP3   OH265850   5.262   0.421  13.261  0.0031 -0.0044 -0.3194
14812TIP3    H165851   5.339   0.391  13.213  2.5972  2.0578  2.2109
14812TIP3    H265852   5.261   0.368  13.340 -0.6206  0.6544  0.1266
14813TIP3   OH265853   6.032   0.508   4.418 -0.4766 -0.2722  0.7504
14813TIP3    H165854   6.066   0.479   4.333 -0.6248  2.2173 -0.2665
14813TIP3    H265855   6.110   0.522   4.471 -0.1094  1.3566 -0.1506
14814TIP3   OH265856   0.417   4.719  16.322 -0.0014  0.2815  0.7126
14814TIP3    H165857   0.432   4.779  16.248 -0.8961  0.7658  0.9111
14814TIP3    H265858   0.500   4.672  16.331  0.0355 -0.0224 -0.8145
14815TIP3   OH265859   3.009   0.235  15.137 -0.5174 -0.0639 -0.0692
14815TIP3    H165860   2.917   0.212  15.147 -0.0229 -2.7297 -0.9353
14815TIP3    H265861   3.047   0.224  15.224 -0.7023 -0.4773 -0.0424
14816TIP3   OH265862   1.810   5.315   5.141  0.0872 -0.1786  0.4223
14816TIP3    H165863   1.857   5.232   5.151  0.1123 -0.2093  0.0879
14816TIP3    H265864   1.864   5.366   5.081  0.7046  0.5802  1.6014
14817TIP3   OH265865   1.663   6.699  16.867 -0.2770  0.4390  0.1539
14817TIP3    H165866   1.706   6.707  16.952  1.1562 -0.0719 -0.4861
14817TIP3    H265867   1.575   6.669  16.888 -0.2219  1.1323  1.5035
14818TIP3   OH265868   1.900   0.431   1.763 -0.2354 -0.2228 -0.3598
14818TIP3    H165869   1.898   0.487   1.841 -0.0196  0.6254 -0.9490
14818TIP3    H265870   1.852   0.481   1.697  1.5159  0.1009 -1.4367
14819TIP3   OH265871   2.604   1.864   1.887  0.7198 -0.3937  0.3378
14819TIP3    H165872   2.508   1.856   1.887  0.6138  0.4376 -1.4169
14819TIP3    H265873   2.634   1.774   1.874  0.1046 -0.4660 -0.7566
14820TIP3   OH265874   2.579   1.696   2.139  0.1701  0.2928  0.1565
14820TIP3    H165875   2.602   1.733   2.223  2.6426 -2.3435  0.8364
14820TIP3    H265876   2.629   1.614   2.134  0.0840  0.2444 -3.8200
14821TIP3   OH265877   2.222   6.520   4.727  0.0932  0.0930 -0.0901
14821TIP3    H165878   2.247   6.468   4.651 -0.0389  1.7275 -1.3179
14821TIP3    H265879   2.304   6.531   4.776  0.6697  0.8427 -1.1806
14822TIP3   OH265880   4.539   3.078  16.340  0.2056 -1.0218 -0.1591
14822TIP3    H165881   4.476   3.040  16.401  1.8115 -2.7749  0.5060
14822TIP3    H265882   4.593   3.135  16.393 -0.7507  0.4923 -0.7348
14823TIP3   OH265883   6.078   1.886  16.258  0.2683  0.6969  0.0470
14823TIP3    H165884   6.060   1.799  16.224  0.8297 -0.1229  1.7112
14823TIP3    H265885   6.150   1.873  16.320  0.7790  2.4485 -0.1065
14824TIP3   OH265886   0.457   0.557  12.627 -0.0892  0.0141 -0.0757
14824TIP3    H165887   0.362   0.564  12.618 -0.0987 -0.7933 -0.8197
14824TIP3    H265888   0.472   0.543  12.720 -0.6479  0.8184  0.1422
14825TIP3   OH265889   2.498   4.597   3.650  0.4416  0.9648  0.4622
14825TIP3    H165890   2.490   4.575   3.742  0.2084  0.6229  0.3648
14825TIP3    H265891   2.576   4.653   3.644  1.2252 -0.0701  0.6887
14826TIP3   OH265892   6.044   5.318   6.417  0.2931  0.3829 -0.2414
14826TIP3    H165893   6.014   5.383   6.354  0.0476 -0.7311 -1.3062
14826TIP3    H265894   6.139   5.329   6.419  0.2136  1.0596 -0.0916
14827TIP3   OH265895   1.834   6.232  14.846  0.4563 -0.6216 -0.1376
14827TIP3    H165896   1.838   6.255  14.939 -0.8857  0.3807 -0.2962
14827TIP3    H265897   1.844   6.137  14.845  1.9403 -0.5168  0.8887
14828TIP3   OH265898   6.219   3.057   3.915 -0.2077 -0.5435 -0.4683
14828TIP3    H165899   6.171   2.990   3.866  1.0362 -2.3302  0.6497
14828TIP3    H265900   6.297   3.012   3.947 -0.1283  1.0037  1.7309
14829TIP3   OH265901   0.260   4.805   1.467  0.1052  0.3956 -0.2142
14829TIP3    H165902   0.306   4.834   1.388  0.6300 -1.3309 -0.5850
14829TIP3    H265903   0.286   4.869   1.534  2.8678 -0.3066 -0.4796
14830TIP3   OH265904   6.118   0.304   0.085  0.0112  0.2030  0.2453
14830TIP3    H165905   6.154   0.226   0.127  0.1917  0.4354  0.5286
14830TIP3    H265906   6.031   0.277   0.055  1.1328 -0.9507 -2.2055
14831TIP3   OH265907   4.301   2.073  15.625 -0.3623  0.1677  0.6161
14831TIP3    H165908   4.380   2.115  15.660 -0.1514 -0.7251  1.2752
14831TIP3    H265909   4.235   2.086  15.692 -0.4232 -0.1390  0.6189
14832TIP3   OH265910   6.006   2.884   0.095 -0.2054 -0.1287 -0.3290
14832TIP3    H165911   6.059   2.823   0.043 -1.6984 -0.3006 -1.7206
14832TIP3    H265912   6.070   2.943   0.134  1.0915 -0.9926 -1.0552
14833TIP3   OH265913   0.233   5.657  16.429  0.0156 -0.2569 -0.3894
14833TIP3    H165914   0.179   5.579  16.421 -2.6080  1.3050  0.6408
14833TIP3    H265915   0.193   5.720  16.370  1.4070  0.6588 -0.4069
14834TIP3   OH265916   0.006   4.798  17.266  1.1306  0.8166  0.0133
14834TIP3    H165917   0.080   4.745  17.239  0.1191 -0.4479 -0.3650
14834TIP3    H265918  -0.030   4.752  17.342  1.3698  2.0166  0.8945
14835TIP3   OH265919   0.354   2.835   2.854  0.5697 -0.0090  0.4230
14835TIP3    H165920   0.354   2.896   2.781  0.1974 -0.2853  0.1873
14835TIP3    H265921   0.428   2.862   2.909  1.3952 -0.3313 -0.4978
14836TIP3   OH265922   6.729   1.980  12.378  0.0215  0.0964 -0.3196
14836TIP3    H165923   6.728   1.884  12.382 -0.7179  0.0445 -1.3777
14836TIP3    H265924   6.765   2.007  12.463  2.7376 -1.1567 -0.9662
14837TIP3   OH265925   2.944   5.171  10.863  0.0807  0.3749  0.0008
14837TIP3    H165926   2.864   5.191  10.816  0.0837  2.9387  0.9585
14837TIP3    H265927   2.915   5.139  10.949  0.1066 -0.4003 -0.2681
14838TIP3   OH265928   1.641   1.787  13.643  0.6678  0.0891  0.6792
14838TIP3    H165929   1.593   1.720  13.690  0.0313 -0.4860 -0.7247
14838TIP3    H265930   1.729   1.751  13.632  0.6385 -0.0392  0.8699
14839TIP3   OH265931   1.010   5.854  13.420 -0.1247 -0.1646 -0.5157
14839TIP3    H165932   0.952   5.929  13.429 -0.5045 -0.6343  1.4840
14839TIP3    H265933   1.084   5.886  13.368 -0.6084  1.3765 -0.2864
14840TIP3   OH265934   0.827   6.688  14.851  0.3202 -0.0520  0.4385
14840TIP3    H165935   0.826   6.628  14.777  1.1075  0.1842  0.2210
14840TIP3    H265936   0.806   6.773  14.813  0.0046 -0.0546  0.6075
14841TIP3   OH265937   4.382   5.560   1.150  0.1800 -0.9198 -0.7376
14841TIP3    H165938   4.476   5.578   1.147  0.0810  0.2452  1.1846
14841TIP3    H265939   4.369   5.512   1.232 -1.2267  1.6988  0.7249
14842TIP3   OH265940   0.731   5.780   4.338 -0.0191  0.0246 -0.0068
14842TIP3    H165941   0.662   5.756   4.276  0.9601  0.9715 -1.5394
14842TIP3    H265942   0.738   5.875   4.330  0.5037  0.1094  1.1907
14843TIP3   OH265943   2.585   2.627   4.963  0.0940  0.8261 -0.4807
14843TIP3    H165944   2.624   2.657   4.881  1.7663 -0.1191 -0.0809
14843TIP3    H265945   2.521   2.561   4.937  0.8699  0.2725 -1.0220
14844TIP3   OH265946   1.056   1.740   0.093  0.2031  0.1982 -0.1543
14844TIP3    H165947   0.978   1.685   0.100  0.8028 -0.5224  1.1601
14844TIP3    H265948   1.055   1.770   0.002 -1.5585  0.1583 -0.1796
14845TIP3   OH265949   4.557   4.571  14.719  0.5526  0.2340 -0.3810
14845TIP3    H165950   4.560   4.560  14.814 -0.3332  1.0317 -0.2551
14845TIP3    H265951   4.640   4.533  14.688 -0.0212 -1.8589  0.5117
14846TIP3   OH265952   0.543   4.319   5.347 -0.1604 -0.2842  0.2010
14846TIP3    H165953   0.549   4.399   5.295 -3.7629  1.3337  1.8696
14846TIP3    H265954   0.572   4.249   5.288 -0.1888  1.8660 -2.5541
14847TIP3   OH265955   5.180   6.522   6.208 -0.0940 -0.0569  0.4582
14847TIP3    H165956   5.242   6.564   6.268 -1.4253  0.0873  1.7852
14847TIP3    H265957   5.193   6.428   6.223  0.6497 -0.0720 -0.1874
14848TIP3   OH265958   4.035   4.529  13.204 -0.1166 -0.4486  0.4270
14848TIP3    H165959   4.107   4.488  13.157  1.9890  1.3205  1.9394
14848TIP3    H265960   3.974   4.555  13.135  1.6555 -0.1792 -1.1277
14849TIP3   OH265961   6.206   1.972  11.829 -0.8248  0.6951 -0.2890
14849TIP3    H165962   6.125   1.924  11.843  0.2139 -0.7363  1.3152
14849TIP3    H265963   6.218   1.973  11.734 -2.7051  0.9582 -0.5478
14850TIP3   OH265964   0.281   3.013  15.245  0.1582 -0.6084 -0.1311
14850TIP3    H165965   0.355   3.054  15.289 -0.0468 -0.0398 -0.3025
14850TIP3    H265966   0.283   3.050  15.157 -2.1092  1.7867  0.7117
14851TIP3   OH265967   6.748   2.655  15.322  0.8095  0.0173  0.5273
14851TIP3    H165968   6.704   2.621  15.243 -0.3243  2.1374  0.1754
14851TIP3    H265969   6.840   2.660  15.298  0.8917 -1.8447  0.2891
14852TIP3   OH265970   1.540   3.632  16.710 -0.0733  0.6143  0.4215
14852TIP3    H165971   1.548   3.698  16.779  0.5728  2.4022 -1.2576
14852TIP3    H265972   1.449   3.602  16.716  0.1611  0.1398  2.4774
14853TIP3   OH265973   2.803   2.833  10.733  0.3143  0.4084  0.2953
14853TIP3    H165974   2.791   2.900  10.801  2.2216 -0.1125  1.2239
14853TIP3    H265975   2.898   2.828  10.721  0.1391 -1.1481 -0.7474
14854TIP3   OH265976   3.148   1.059   0.799 -0.0766  0.0333  0.6880
14854TIP3    H165977   3.098   1.082   0.721  0.8808 -3.3427 -1.1002
14854TIP3    H265978   3.238   1.084   0.777  0.3921 -1.9737  0.1253
14855TIP3   OH265979   6.638   3.782  13.424  0.8011  0.3088 -0.2651
14855TIP3    H165980   6.607   3.706  13.474  0.2563  0.9865  0.4625
14855TIP3    H265981   6.703   3.746  13.364  0.1221 -0.8248 -0.3557
14856TIP3   OH265982   3.763   0.744  17.390 -0.1434  0.2801  0.2967
14856TIP3    H165983   3.824   0.670  17.392 -0.6384 -0.1429 -0.1329
14856TIP3    H265984   3.705   0.726  17.317 -1.4974  0.1165  1.3682
14857TIP3   OH265985   0.511   5.857  11.704  0.3935 -0.0455 -0.2715
14857TIP3    H165986   0.450   5.895  11.640  0.4633 -1.4043 -1.2024
14857TIP3    H265987   0.472   5.773  11.727  0.8551  0.0102  0.7831
14858TIP3   OH265988   1.937   6.403  15.584  0.2413 -0.0648  0.2963
14858TIP3    H165989   1.877   6.392  15.510 -1.0493 -1.2112  1.4666
14858TIP3    H265990   1.987   6.321  15.586  0.2017 -0.0801  0.7506
14859TIP3   OH265991   5.396   0.201  17.317 -0.0451 -0.3936 -0.4014
14859TIP3    H165992   5.314   0.175  17.275 -0.9111  0.3510  0.7612
14859TIP3    H265993   5.381   0.291  17.346  0.6205 -0.7566  1.1685
14860TIP3   OH265994   5.273   3.139  11.242 -0.1311 -0.1383 -0.1186
14860TIP3    H165995   5.209   3.152  11.313 -2.5247  0.6165 -2.2678
14860TIP3    H265996   5.220   3.136  11.162  2.5174 -0.0978 -2.0055
14861TIP3   OH265997   1.611   0.204   2.117 -0.6311 -0.8094 -0.2464
14861TIP3    H165998   1.518   0.182   2.125 -0.6247 -1.6429 -1.9405
14861TIP3    H265999   1.655   0.119   2.108  0.4064 -0.4711  1.2654
14862TIP3   OH266000   0.006   5.725   0.147 -0.1079 -0.2467  0.2665
14862TIP3    H166001  -0.022   5.686   0.064 -0.3268  0.3374  0.0602
14862TIP3    H266002  -0.071   5.718   0.204 -0.4221  0.5945 -0.0304
14863TIP3   OH266003   5.229   6.618  12.633 -0.0818 -0.6207  0.3610
14863TIP3    H166004   5.176   6.575  12.701 -0.1300 -2.7961 -0.9503
14863TIP3    H266005   5.304   6.653  12.680 -1.3231  0.1586  1.8756
14864TIP3   OH266006   2.376   2.058  12.254  0.1940 -0.3531 -0.1274
14864TIP3    H166007   2.367   1.963  12.256  0.0249 -0.3428 -0.4188
14864TIP3    H266008   2.287   2.091  12.268 -0.1503 -0.2482 -2.2440
14865TIP3   OH266009   3.928   2.476  13.667  0.1349  0.7257  0.5163
14865TIP3    H166010   3.965   2.560  13.643  2.0434 -0.1871  0.0431
14865TIP3    H266011   3.979   2.447  13.742 -0.4018 -0.0651  0.6007
14866TIP3   OH266012   6.078   6.122   5.256 -0.2808  0.7255  0.0370
14866TIP3    H166013   6.102   6.210   5.286  0.4886  0.8637 -0.9300
14866TIP3    H266014   6.156   6.089   5.212 -1.3393  0.5588 -1.8474
14867TIP3   OH266015   0.299   2.698  11.579  0.4276  0.8391  0.7291
14867TIP3    H166016   0.344   2.621  11.546  1.5282  0.8356  2.1536
14867TIP3    H266017   0.245   2.727  11.506 -1.7783 -2.5458  0.8168
14868TIP3   OH266018   0.969   5.652   4.373  0.1756  0.2369  0.3206
14868TIP3    H166019   0.952   5.569   4.329 -1.5265  0.5914  0.2478
14868TIP3    H266020   0.894   5.707   4.351  0.8271  1.4885  1.1116
14869TIP3   OH266021   3.174   5.256   4.013 -0.4354  0.0454  0.0526
14869TIP3    H166022   3.269   5.264   4.023 -0.5022  1.4386 -0.3065
14869TIP3    H266023   3.163   5.201   3.935  0.1054  1.3662 -0.9980
14870TIP3   OH266024   1.229   3.201  16.541 -0.6804  0.1677  0.4171
14870TIP3    H166025   1.241   3.109  16.515 -0.9907  0.1644  0.2772
14870TIP3    H266026   1.153   3.230  16.490  0.5411  1.0479 -0.9732
14871TIP3   OH266027   4.179   4.624   2.207 -0.1847  0.3967 -0.0077
14871TIP3    H166028   4.180   4.628   2.111 -0.8706  1.0273  0.0072
14871TIP3    H266029   4.231   4.546   2.228 -2.7023 -1.7156 -1.0117
14872TIP3   OH266030   4.627   2.914   5.340 -0.2768 -0.0196 -0.0398
14872TIP3    H166031   4.599   2.836   5.388 -1.2194 -0.8705 -1.8587
14872TIP3    H266032   4.548   2.967   5.332 -0.4473 -0.4558 -1.6141
14873TIP3   OH266033   5.557   4.436   1.098  0.4297  0.2523 -0.6239
14873TIP3    H166034   5.545   4.341   1.104 -0.0121  0.2641 -1.2929
14873TIP3    H266035   5.518   4.470   1.179  1.3435 -0.1963  0.0215
14874TIP3   OH266036   3.325   6.021   4.266  0.3915  0.3939 -0.0889
14874TIP3    H166037   3.298   6.086   4.201 -1.4989 -0.2374  0.0065
14874TIP3    H266038   3.359   5.948   4.215 -1.3855 -0.2345 -0.4442
14875TIP3   OH266039   3.987   2.676   2.569  0.2892  0.4404 -0.4996
14875TIP3    H166040   4.059   2.614   2.558 -0.5425 -0.7753  0.6471
14875TIP3    H266041   4.027   2.761   2.551  1.7502 -0.2967 -0.9334
14876TIP3   OH266042   5.966   2.484  10.655 -0.3025 -0.4813  0.7097
14876TIP3    H166043   5.907   2.480  10.580  1.4370 -1.7720 -0.6797
14876TIP3    H266044   5.942   2.408  10.708 -1.0329  0.0032  1.0903
14877TIP3   OH266045   1.749   6.461   5.711  0.3128 -0.1899  0.2628
14877TIP3    H166046   1.807   6.485   5.783  1.1273 -0.4919 -0.2710
14877TIP3    H266047   1.808   6.425   5.644 -0.0819  2.2712 -1.5399
14878TIP3   OH266048   3.057   6.136  11.673  0.5176 -0.0917  0.1986
14878TIP3    H166049   3.013   6.093  11.747  0.5533  1.5604  1.2284
14878TIP3    H266050   3.070   6.066  11.609  0.5542 -1.6107  1.7862
14879TIP3   OH266051   5.731   0.067  14.697 -0.0751  0.3433  0.0147
14879TIP3    H166052   5.748   0.075  14.791  0.8906  0.6766 -0.1814
14879TIP3    H266053   5.673   0.140  14.677 -0.0821  0.4193  0.3048
14880TIP3   OH266054   3.760   1.638   0.506  0.4905  0.1722 -0.2393
14880TIP3    H166055   3.833   1.581   0.529 -2.9284 -4.0871  1.4927
14880TIP3    H266056   3.760   1.706   0.573  0.2018 -2.6226  2.8615
14881TIP3   OH266057   4.745   3.135   3.404  0.3293 -0.1117  0.3614
14881TIP3    H166058   4.745   3.200   3.474 -1.2633  1.3094 -0.8787
14881TIP3    H266059   4.665   3.152   3.354  2.2521  0.1979 -2.9500
14882TIP3   OH266060   1.262   0.098   0.090 -0.0815 -0.2100  0.6030
14882TIP3    H166061   1.264   0.104   0.185  1.0563 -0.9573  0.6393
14882TIP3    H266062   1.354   0.100   0.063 -0.3738 -0.2637 -0.4704
14883TIP3   OH266063   4.015   2.331  17.029  0.4590  0.2765 -0.0234
14883TIP3    H166064   4.040   2.310  17.119 -0.2706  1.3909  0.4583
14883TIP3    H266065   3.924   2.301  17.022  0.7544 -0.5141 -0.6505
14884TIP3   OH266066   0.512   1.362  12.137 -0.0118 -0.4734  0.5142
14884TIP3    H166067   0.433   1.335  12.185 -0.3223 -0.2823  0.1142
14884TIP3    H266068   0.581   1.304  12.169 -0.3071 -0.6182  0.8925
14885TIP3   OH266069   1.591   3.457   1.220  0.5963 -0.3770 -0.2520
14885TIP3    H166070   1.536   3.382   1.196 -0.2844  0.2824 -0.3314
14885TIP3    H266071   1.676   3.418   1.241  0.4856 -1.2884 -1.3885
14886TIP3   OH266072   3.008   1.442   5.331  0.0617  0.0834 -0.1879
14886TIP3    H166073   3.074   1.404   5.389  1.9540 -0.3213 -2.4344
14886TIP3    H266074   2.929   1.389   5.346  1.1133 -1.3640  0.5061
14887TIP3   OH266075   0.112   3.223  13.423 -0.4754 -0.0059 -0.1994
14887TIP3    H166076   0.188   3.177  13.388 -0.7776 -1.8670  1.3861
14887TIP3    H266077   0.124   3.314  13.397  3.0784  0.0874  1.2623
14888TIP3   OH266078   4.646   4.134   0.495  0.2517 -0.1768  0.1353
14888TIP3    H166079   4.736   4.132   0.462  0.1424  0.2341 -0.2027
14888TIP3    H266080   4.644   4.071   0.566  0.2021 -2.0540 -1.4432
14889TIP3   OH266081   3.912   6.316   6.755  0.6884 -0.1299  0.3246
14889TIP3    H166082   3.976   6.369   6.802 -0.7988  2.1363 -0.0366
14889TIP3    H266083   3.864   6.379   6.701 -0.7711 -1.9728 -0.6470
14890TIP3   OH266084   5.587   1.318   5.979 -0.0178 -0.4058  0.3554
14890TIP3    H166085   5.639   1.342   5.902 -0.8236 -2.7377 -1.0199
14890TIP3    H266086   5.606   1.386   6.043  3.3936 -0.1956 -0.6750
14891TIP3   OH266087   6.602   6.310   3.321  0.0205 -0.4007  0.0883
14891TIP3    H166088   6.657   6.304   3.243 -0.1229 -0.3109 -0.0216
14891TIP3    H266089   6.652   6.366   3.381 -0.6197  0.9951 -0.6095
14892TIP3   OH266090   2.041   5.604   3.792  0.5887 -0.8072 -0.1837
14892TIP3    H166091   2.109   5.574   3.852  0.4353  0.3104  0.5741
14892TIP3    H266092   2.083   5.603   3.706  1.1603 -1.3488  0.0949
14893TIP3   OH266093   5.818   1.743  12.980 -0.0026  0.6515  0.1741
14893TIP3    H166094   5.761   1.754  12.904  0.6440  0.5641 -0.3295
14893TIP3    H266095   5.762   1.765  13.055  0.1593  3.7915 -0.4834
14894TIP3   OH266096   4.758   5.512  11.777  0.0724  0.1734 -0.5506
14894TIP3    H166097   4.809   5.536  11.699 -1.1591  0.1367 -1.4038
14894TIP3    H266098   4.790   5.571  11.845  1.2656  0.1296 -1.0367
14895TIP3   OH266099   1.559   1.819  14.450  0.2585 -0.2265  0.4533
14895TIP3    H166100   1.523   1.890  14.503  1.0426  1.2080 -0.8431
14895TIP3    H266101   1.539   1.845  14.360  1.3307 -1.2260 -0.0929
14896TIP3   OH266102   4.138   2.681  17.284  0.0985  0.3673  0.5147
14896TIP3    H166103   4.111   2.766  17.319 -1.1105  0.1226  0.2500
14896TIP3    H266104   4.056   2.631  17.279  0.6386 -0.4623 -0.2612
14897TIP3   OH266105   3.453   2.685   4.994  0.1009  0.3372 -0.4032
14897TIP3    H166106   3.409   2.717   4.914 -1.5037  0.4617  0.4744
14897TIP3    H266107   3.439   2.590   4.992 -1.7155  0.5340  0.6729
14898TIP3   OH266108   3.807   1.100   0.554  0.6327 -0.7181  0.0224
14898TIP3    H166109   3.848   1.142   0.478  1.0532 -0.0407  0.6195
14898TIP3    H266110   3.880   1.073   0.609  0.3249  1.7464  1.7774
14899TIP3   OH266111   0.260   2.594  13.886 -0.6013  0.2764 -0.0363
14899TIP3    H166112   0.349   2.621  13.908 -0.8761  1.4580 -0.2929
14899TIP3    H266113   0.264   2.574  13.792 -0.7929  1.1922 -0.2472
14900TIP3   OH266114   4.774   1.053  12.731  0.1818  0.3780 -0.0195
14900TIP3    H166115   4.762   1.009  12.646  0.1777 -2.9031  1.5220
14900TIP3    H266116   4.684   1.072  12.760 -0.0914 -1.6533  0.6623
14901TIP3   OH266117   3.002   2.337   4.420 -0.0395 -0.6523  0.8362
14901TIP3    H166118   3.013   2.432   4.413 -0.8612 -0.6381 -0.7317
14901TIP3    H266119   3.091   2.302   4.420  0.2468  0.0067 -0.8365
14902TIP3   OH266120   2.438   5.949  15.369  0.1563 -0.6304  0.1040
14902TIP3    H166121   2.362   5.916  15.323  0.1107 -1.2730  0.6290
14902TIP3    H266122   2.509   5.946  15.304  0.2545 -2.1647  0.2449
14903TIP3   OH266123   5.394   1.425   4.882  0.4002  0.4510 -0.3283
14903TIP3    H166124   5.482   1.424   4.844  0.9700 -0.2087  0.9487
14903TIP3    H266125   5.338   1.384   4.816  1.0097  1.0256 -1.2206
14904TIP3   OH266126   5.136   1.921   0.818 -0.2821 -0.2173 -0.3648
14904TIP3    H166127   5.120   1.831   0.847  0.3113 -0.4127 -0.6347
14904TIP3    H266128   5.184   1.911   0.736 -1.2820  0.3409 -1.0311
14905TIP3   OH266129   4.741   0.243  14.880  0.1294  0.3784 -0.2026
14905TIP3    H166130   4.732   0.318  14.822 -0.6185 -0.2371 -0.8970
14905TIP3    H266131   4.755   0.169  14.822 -2.9332 -0.6282  0.2003
14906TIP3   OH266132   4.914   2.162   5.416 -0.4414  0.2095  0.6853
14906TIP3    H166133   4.859   2.170   5.494  0.3119 -2.5565  1.5969
14906TIP3    H266134   4.853   2.173   5.343 -1.9078 -0.9694  1.6622
14907TIP3   OH266135   0.591   6.256  13.061 -0.2846 -0.0211  0.0578
14907TIP3    H166136   0.685   6.269  13.077 -0.4017  2.3590 -0.7372
14907TIP3    H266137   0.557   6.218  13.142  1.2186 -0.2095  0.6280
14908TIP3   OH266138   5.592   0.328  14.689  0.5060  0.2375  0.0831
14908TIP3    H166139   5.622   0.301  14.776 -1.1406 -0.8313  0.3686
14908TIP3    H266140   5.596   0.424  14.690  0.8335  0.2196  1.2162
14909TIP3   OH266141   0.384   2.027   5.819 -0.8713 -0.7020 -0.0073
14909TIP3    H166142   0.367   2.074   5.901 -3.0434 -0.9687 -0.2441
14909TIP3    H266143   0.300   1.985   5.798  0.2913 -2.6204 -1.1207
14910TIP3   OH266144   1.079   5.303   4.699 -0.0894  0.3304  0.0181
14910TIP3    H166145   1.123   5.371   4.649  0.9191  0.7191  1.3611
14910TIP3    H266146   1.140   5.230   4.699  0.4436  0.7316  1.5652
14911TIP3   OH266147   1.531   3.303   0.340 -0.1004  0.1496  0.2588
14911TIP3    H166148   1.588   3.338   0.272 -0.2621  0.5181  0.3121
14911TIP3    H266149   1.580   3.230   0.377  0.1578  0.1997  0.0191
14912TIP3   OH266150   0.346   6.179   4.745 -0.3970 -0.4505 -0.3969
14912TIP3    H166151   0.283   6.251   4.747 -0.4149 -0.4790  0.3404
14912TIP3    H266152   0.343   6.147   4.654 -2.1303 -1.0445 -0.1678
14913TIP3   OH266153   3.860   5.907   4.927 -0.2953  0.5678  0.2164
14913TIP3    H166154   3.891   5.972   4.990 -0.6176  0.0407  0.9224
14913TIP3    H266155   3.836   5.959   4.850  1.8322  1.0535 -0.1940
14914TIP3   OH266156   0.937   5.587  12.545 -0.8831  0.7524  0.0951
14914TIP3    H166157   0.891   5.661  12.508  0.0738  1.1577 -0.3302
14914TIP3    H266158   0.988   5.551  12.472 -1.7014 -0.6407  0.1630
14915TIP3   OH266159   6.314   4.019  13.041 -0.1115 -0.0281  0.0089
14915TIP3    H166160   6.357   3.989  13.121  0.3728 -0.5959 -0.4571
14915TIP3    H266161   6.254   3.948  13.018 -1.9000  1.0551  1.0574
14916TIP3   OH266162   1.062   0.800   2.869 -0.3144 -0.0415 -1.1047
14916TIP3    H166163   1.071   0.885   2.912 -2.6563 -0.2324 -0.0355
14916TIP3    H266164   1.031   0.742   2.939  0.4952 -1.5988 -1.9986
14917TIP3   OH266165   5.052   1.442   4.336  0.2183 -0.0859 -0.5219
14917TIP3    H166166   5.071   1.351   4.316  0.3905  0.1691 -1.5410
14917TIP3    H266167   5.136   1.487   4.325  0.1553  0.1921  0.0584
14918TIP3   OH266168   0.403   1.514  15.544  0.5803  0.0295 -0.3913
14918TIP3    H166169   0.352   1.594  15.560  0.4592 -0.0619 -0.3284
14918TIP3    H266170   0.447   1.532  15.461 -0.2475 -0.2431 -0.9043
14919TIP3   OH266171   4.159   5.838  17.383  0.5203 -0.0584  0.0834
14919TIP3    H166172   4.188   5.812  17.296 -0.4778  0.8615 -0.5522
14919TIP3    H266173   4.239   5.837  17.436  1.6317  1.7192 -1.4262
14920TIP3   OH266174   4.577   2.343   0.004 -0.3810 -0.3103 -0.0319
14920TIP3    H166175   4.671   2.344  -0.013 -0.3531 -1.7398 -0.0704
14920TIP3    H266176   4.546   2.427  -0.030  0.6738 -0.3766 -1.2554
14921TIP3   OH266177   4.364   1.307  10.885  0.3152 -0.0150 -0.3501
14921TIP3    H166178   4.289   1.353  10.924  1.3652  2.0244 -0.6587
14921TIP3    H266179   4.440   1.361  10.907  1.2766 -0.1622 -3.0095
14922TIP3   OH266180   0.288   3.835  12.895 -0.7702 -0.6032 -0.3955
14922TIP3    H166181   0.277   3.790  12.811 -2.2895 -2.6944  0.8313
14922TIP3    H266182   0.207   3.886  12.905 -0.9947 -1.0502  0.1536
14923TIP3   OH266183   0.530   1.598   2.893 -0.0608 -0.0953  0.4042
14923TIP3    H166184   0.509   1.691   2.906 -2.4686 -0.2257 -1.8191
14923TIP3    H266185   0.497   1.555   2.972  0.7063  0.8366  1.2708
14924TIP3   OH266186   3.779   4.404   4.302  0.4228 -0.5021 -0.6402
14924TIP3    H166187   3.822   4.468   4.359  1.8808 -0.5253 -1.6825
14924TIP3    H266188   3.723   4.354   4.362 -1.1971  2.0418  0.1347
14925TIP3   OH266189   4.025   1.973   5.485 -0.1026 -0.2634  0.4418
14925TIP3    H166190   4.034   1.965   5.580 -2.4846 -0.1812  0.7266
14925TIP3    H266191   4.037   2.066   5.467 -2.0521  0.1606  1.0422
14926TIP3   OH266192   6.061   4.261   1.600 -0.5759  0.8487  0.1619
14926TIP3    H166193   6.069   4.337   1.543 -0.4406 -0.5894 -1.8691
14926TIP3    H266194   5.983   4.215   1.567  0.8670 -1.2796 -0.5375
14927TIP3   OH266195   4.362   1.266   4.373  0.2885  0.1167  0.2946
14927TIP3    H166196   4.418   1.196   4.340 -0.8095  0.2181 -1.9790
14927TIP3    H266197   4.421   1.338   4.391  0.8778  1.1948 -4.5962
14928TIP3   OH266198   1.529   0.758   4.236 -0.1073  0.2417 -0.4214
14928TIP3    H166199   1.488   0.804   4.163 -0.8556  0.6806  0.2617
14928TIP3    H266200   1.463   0.759   4.305  0.5906 -0.1628  0.2673
14929TIP3   OH266201   4.362   5.412  12.603 -0.0042  0.4546 -0.8187
14929TIP3    H166202   4.442   5.463  12.612  1.1102 -1.4549  1.0575
14929TIP3    H266203   4.332   5.398  12.693 -2.8481  1.5902 -1.4607
14930TIP3   OH266204   3.925   6.605  12.727 -0.0976 -0.3485 -0.0032
14930TIP3    H166205   3.867   6.618  12.801  0.4878  0.0911  0.3853
14930TIP3    H266206   4.011   6.589  12.766  1.0422  3.4844 -0.5013
14931TIP3   OH266207   3.480   4.709  16.194  0.2477  0.2859  0.4649
14931TIP3    H166208   3.416   4.720  16.265  0.0028  0.5308  0.2107
14931TIP3    H266209   3.557   4.756  16.223 -0.0844  0.9567  0.2811
14932TIP3   OH266210   2.707   4.316  14.157  0.0720  0.0886  0.1806
14932TIP3    H166211   2.745   4.263  14.087 -1.0016  0.1721 -0.4877
14932TIP3    H266212   2.744   4.279  14.237 -0.4321 -1.5110 -0.2742
14933TIP3   OH266213   6.435   1.525  14.651  0.0927 -0.0498 -0.1238
14933TIP3    H166214   6.429   1.482  14.565  0.2797  1.8121 -1.1353
14933TIP3    H266215   6.344   1.544  14.674  0.0626 -0.2463 -0.0805
14934TIP3   OH266216   0.053   3.323  17.260  0.1786  0.5904  0.0745
14934TIP3    H166217   0.015   3.411  17.260  0.9960  1.0139  2.6632
14934TIP3    H266218  -0.015   3.268  17.300  1.0483  0.7750  1.8680
14935TIP3   OH266219   0.318   4.608   4.185  0.2555 -0.0865 -0.0053
14935TIP3    H166220   0.322   4.632   4.093  0.1667 -0.8666 -0.2180
14935TIP3    H266221   0.381   4.536   4.194  0.4435  0.1449  0.5952
14936TIP3   OH266222   6.752   6.646  14.490 -0.3747 -0.6475 -0.4140
14936TIP3    H166223   6.787   6.609  14.571  0.4940  0.2715 -0.3561
14936TIP3    H266224   6.827   6.654  14.432 -0.2299  2.2420  0.0496
14937TIP3   OH266225   4.876   0.205   5.062  0.4061  0.2270 -0.3934
14937TIP3    H166226   4.944   0.176   5.124 -0.6254 -0.1104  0.6086
14937TIP3    H266227   4.887   0.300   5.057  0.4968  0.2601  0.3250
14938TIP3   OH266228   6.604   0.929   4.612 -0.0277  0.1350 -0.5363
14938TIP3    H166229   6.542   0.997   4.639 -1.1523 -1.0793  0.0617
14938TIP3    H266230   6.654   0.969   4.541 -1.1444  1.3275 -0.6935
14939TIP3   OH266231   2.583   0.602  16.450  0.3847 -0.0530 -0.3355
14939TIP3    H166232   2.582   0.528  16.389 -0.0560  0.0685 -0.4850
14939TIP3    H266233   2.668   0.596  16.494  0.8823  0.0912 -1.2515
14940TIP3   OH266234   4.469   3.429  12.803  0.6977  0.3430  0.0934
14940TIP3    H166235   4.397   3.446  12.864  0.9612 -0.3462  0.6087
14940TIP3    H266236   4.494   3.338  12.821  0.4432 -0.0485 -1.3848
14941TIP3   OH266237   1.488   5.612  12.439  0.3713  0.2368 -0.4117
14941TIP3    H166238   1.459   5.530  12.400 -0.6925  0.4662 -0.1110
14941TIP3    H266239   1.581   5.598  12.456  0.0167 -1.2365  0.4831
14942TIP3   OH266240   0.047   6.234   4.575  0.0328  0.2569  0.5302
14942TIP3    H166241   0.062   6.232   4.480  1.7578 -0.3336  0.7667
14942TIP3    H266242   0.118   6.288   4.609 -2.2009  2.9312  1.2970
14943TIP3   OH266243   6.345   0.138  16.548  1.0696 -0.5975 -0.1216
14943TIP3    H166244   6.281   0.081  16.591  1.8712 -1.0902  0.4484
14943TIP3    H266245   6.311   0.226  16.560  0.6509 -0.8345  0.4479
14944TIP3   OH266246   5.749   3.459  14.523  0.4706 -0.4026  0.3557
14944TIP3    H166247   5.828   3.508  14.502  0.7781 -0.9530  0.2120
14944TIP3    H266248   5.689   3.477  14.451  0.1478  0.6796  0.8711
14945TIP3   OH266249   3.562   3.010   5.818 -0.3961 -0.4197  1.0464
14945TIP3    H166250   3.468   3.007   5.837 -0.0969 -0.7647  2.6214
14945TIP3    H266251   3.593   3.087   5.866 -0.2874  1.4035 -1.7154
14946TIP3   OH266252   5.204   0.204   0.946  0.0285  0.2758 -0.3209
14946TIP3    H166253   5.248   0.285   0.922  0.4789 -0.2198 -1.2755
14946TIP3    H266254   5.160   0.176   0.865  0.2988 -0.6710 -0.1626
14947TIP3   OH266255   4.484   4.654   2.006 -0.3689  0.8075 -0.1077
14947TIP3    H166256   4.516   4.709   2.077 -0.3308  0.7381 -0.0706
14947TIP3    H266257   4.468   4.715   1.934 -0.8568  0.9409  0.1107
14948TIP3   OH266258   1.925   6.270   3.315 -0.0938 -0.3429  0.2825
14948TIP3    H166259   1.920   6.204   3.247  1.4739 -0.3662  0.1412
14948TIP3    H266260   1.834   6.296   3.332 -0.7305 -2.3920  0.2284
14949TIP3   OH266261   5.354   0.190   2.343 -0.3088  0.0934 -0.0225
14949TIP3    H166262   5.408   0.194   2.264 -1.7386 -2.2931 -1.1902
14949TIP3    H266263   5.280   0.248   2.325  0.2509  0.9722  0.3691
14950TIP3   OH266264   4.591   6.593  16.000 -0.3817 -0.0816  0.2161
14950TIP3    H166265   4.505   6.606  15.961 -0.8687 -2.2705  0.4267
14950TIP3    H266266   4.653   6.625  15.934 -1.3153  1.1642 -0.0869
14951TIP3   OH266267   5.760   6.229   0.174 -0.4806 -0.3671 -0.4015
14951TIP3    H166268   5.847   6.214   0.210  0.0390  2.1808 -0.4041
14951TIP3    H266269   5.707   6.258   0.249 -0.7487  0.1238 -0.7715
14952TIP3   OH266270   4.903   6.274  14.245 -0.3588  0.0198  0.1060
14952TIP3    H166271   4.903   6.272  14.150 -0.2444 -0.3122  0.1099
14952TIP3    H266272   4.911   6.182  14.271 -0.9332  0.0544  0.4345
14953TIP3   OH266273   4.605   3.221   1.433  0.5112  0.3700 -0.2942
14953TIP3    H166274   4.633   3.312   1.445 -1.1006  1.0358 -1.3375
14953TIP3    H266275   4.675   3.181   1.381  1.1500  1.0302  0.0318
14954TIP3   OH266276   2.355   1.111  12.738 -0.0181  0.2261 -0.2868
14954TIP3    H166277   2.419   1.155  12.794 -0.2795 -1.8422  1.7864
14954TIP3    H266278   2.359   1.159  12.655  1.8408  2.1811  0.8315
14955TIP3   OH266279   0.459   1.563  15.261 -0.6505  0.1815 -0.3897
14955TIP3    H166280   0.550   1.557  15.231  0.8010 -1.8007  3.6318
14955TIP3    H266281   0.414   1.494  15.212  0.3440  0.2469 -1.4446
14956TIP3   OH266282   1.642   2.513   2.169 -0.2803 -0.1971 -0.0356
14956TIP3    H166283   1.563   2.487   2.216 -0.5813  0.3508 -0.2228
14956TIP3    H266284   1.714   2.483   2.223 -0.5805  2.2908  1.9011
14957TIP3   OH266285   3.017   0.406   3.079  0.2930  0.5435  0.0517
14957TIP3    H166286   3.030   0.485   3.133  0.5566  0.0402  0.7490
14957TIP3    H266287   2.926   0.381   3.095  0.5231  0.0866  0.7137
14958TIP3   OH266288   6.624   4.019   3.394  0.0485  0.2409 -0.3196
14958TIP3    H166289   6.702   4.044   3.443  0.2463 -0.0559 -0.4757
14958TIP3    H266290   6.575   4.101   3.383 -0.7115  0.0874  1.5835
14959TIP3   OH266291   1.543   5.937  13.110 -0.5816 -0.1450  0.1698
14959TIP3    H166292   1.626   5.968  13.074 -0.6201  0.5678  0.6868
14959TIP3    H266293   1.539   5.845  13.084 -0.9559  0.5082 -2.3050
14960TIP3   OH266294   3.615   5.953  16.466 -0.3353  0.5491  0.1132
14960TIP3    H166295   3.703   5.933  16.499  0.1000  1.3520 -0.5391
14960TIP3    H266296   3.597   5.884  16.403  1.3820  2.3190 -2.5325
14961TIP3   OH266297   3.614   3.586   2.538 -0.0186 -0.6233 -0.7687
14961TIP3    H166298   3.680   3.618   2.477  0.3005  0.7249  0.2239
14961TIP3    H266299   3.665   3.539   2.605 -0.1792 -0.6494 -0.6645
14962TIP3   OH266300   3.460   6.755   4.765 -0.2207  0.1490  0.4811
14962TIP3    H166301   3.491   6.726   4.851 -0.8381 -0.4057  0.5288
14962TIP3    H266302   3.402   6.684   4.736  1.9548 -0.9441 -1.5475
14963TIP3   OH266303   4.671   4.044  15.662  0.1608 -0.4590 -0.2644
14963TIP3    H166304   4.733   4.024  15.731 -1.4253 -0.2328  1.3042
14963TIP3    H266305   4.718   4.026  15.580  2.2955 -0.1124  0.8372
14964TIP3   OH266306   6.598   5.085  11.433 -0.0856  0.2723 -0.3271
14964TIP3    H166307   6.539   5.057  11.503 -0.0491  1.6226  0.2742
14964TIP3    H266308   6.546   5.147  11.381  0.3014  0.2630 -0.7338
14965TIP3   OH266309   2.949   2.205  15.751  0.0351  0.1332 -0.1666
14965TIP3    H166310   2.878   2.239  15.804 -0.0368 -0.0291 -0.1582
14965TIP3    H266311   2.908   2.181  15.668  0.1053  0.1704 -0.2127
14966TIP3   OH266312   1.814   6.331  13.459 -0.1845 -0.2342 -0.1045
14966TIP3    H166313   1.746   6.288  13.407 -1.7807  1.5162  0.3925
14966TIP3    H266314   1.773   6.412  13.490  2.4462  1.4150 -0.5665
14967TIP3   OH266315   4.994   3.399   3.716 -0.2665 -0.1063 -0.4948
14967TIP3    H166316   4.930   3.333   3.743 -0.1342 -0.6221 -1.4005
14967TIP3    H266317   5.068   3.386   3.774 -0.9550  0.4856  0.5554
14968TIP3   OH266318   3.017   4.611  12.998  0.5993  0.0498 -0.3251
14968TIP3    H166319   2.925   4.635  12.994  0.4819 -0.4131 -0.5532
14968TIP3    H266320   3.017   4.518  13.024  1.0677  0.5239  1.5471
14969TIP3   OH266321   5.480   1.778   6.654  0.1947  0.4125 -0.4980
14969TIP3    H166322   5.446   1.761   6.742 -0.4719  0.8298 -0.6643
14969TIP3    H266323   5.413   1.833   6.613 -0.1131 -0.8131 -1.7093
14970TIP3   OH266324   2.676   0.888  15.742  0.7673 -0.1204 -0.1466
14970TIP3    H166325   2.605   0.947  15.768 -0.4852 -1.5183 -0.2385
14970TIP3    H266326   2.687   0.829  15.817  1.7355 -0.0115 -0.1937
14971TIP3   OH266327   3.659   2.268  13.830  0.4833  0.1180 -0.0285
14971TIP3    H166328   3.662   2.218  13.748  1.2198 -0.9451  0.6119
14971TIP3    H266329   3.745   2.310  13.834 -0.4809  2.3310 -1.0539
14972TIP3   OH266330   0.112   1.642  13.417  0.0452  0.1471  0.2633
14972TIP3    H166331   0.206   1.629  13.408 -0.1389 -1.1803  0.0930
14972TIP3    H266332   0.088   1.594  13.497 -0.6412 -0.3985 -0.2565
14973TIP3   OH266333   3.588   2.052  14.327 -0.1475  0.0898 -0.3807
14973TIP3    H166334   3.618   1.972  14.284  1.9255  0.7323 -0.2477
14973TIP3    H266335   3.522   2.089  14.268 -0.6356 -1.3571 -0.7614
14974TIP3   OH266336   0.125   3.196   5.557  0.1505  0.0705 -0.9057
14974TIP3    H166337   0.096   3.275   5.602  1.4256  0.7927 -1.2992
14974TIP3    H266338   0.159   3.227   5.473  0.3000 -0.9503 -1.2387
14975TIP3   OH266339   6.273   2.168  17.244  0.1532 -0.1571  0.5944
14975TIP3    H166340   6.295   2.133  17.158  3.3095  1.7418  0.4582
14975TIP3    H266341   6.280   2.263  17.234 -0.4441  0.1739  2.7278
14976TIP3   OH266342   0.503   0.161   1.002 -0.7513 -0.1355  0.0288
14976TIP3    H166343   0.520   0.219   0.928 -1.1102 -0.3652 -0.2354
14976TIP3    H266344   0.408   0.162   1.013 -0.7294 -0.3621  0.2769
14977TIP3   OH266345   2.200   5.911  13.504 -0.2575 -0.0451  0.5730
14977TIP3    H166346   2.285   5.948  13.525  0.3634 -0.8706 -0.3873
14977TIP3    H266347   2.141   5.947  13.570  0.8118  0.5976  1.2049
14978TIP3   OH266348   4.518   1.646  14.279 -0.3131 -0.4355 -0.0603
14978TIP3    H166349   4.561   1.637  14.364  0.3910  0.2685 -0.3325
14978TIP3    H266350   4.583   1.618  14.216 -0.2620  0.5660 -0.4769
14979TIP3   OH266351   6.254   5.182  15.841 -0.2173  0.3256 -0.2642
14979TIP3    H166352   6.284   5.241  15.910 -1.8924 -0.4795  1.2269
14979TIP3    H266353   6.331   5.129  15.820  0.1230  0.0385  1.5858
14980TIP3   OH266354   2.641   2.185   4.027  0.1682  0.2377 -0.4849
14980TIP3    H166355   2.719   2.239   4.012  0.3862 -0.3030 -1.3543
14980TIP3    H266356   2.676   2.101   4.057 -0.2041  0.8355  1.7974
14981TIP3   OH266357   5.059   6.023   6.463 -0.4812 -0.2431  0.5751
14981TIP3    H166358   5.046   6.117   6.461 -1.9943 -0.4203 -1.5858
14981TIP3    H266359   5.119   6.008   6.536  2.5041  2.6909 -1.0343
14982TIP3   OH266360   0.333   0.929   1.940 -0.0026  0.1916 -0.7434
14982TIP3    H166361   0.402   0.865   1.958  0.4517  0.2572 -2.1972
14982TIP3    H266362   0.375   1.014   1.951 -0.7945  0.3512  1.9633
14983TIP3   OH266363   5.290   4.509   5.206  0.3969 -0.0850  0.2185
14983TIP3    H166364   5.297   4.554   5.122  0.8860  1.5230  1.0763
14983TIP3    H266365   5.241   4.569   5.261 -1.1171 -1.7085  0.7360
14984TIP3   OH266366   4.397   3.099  16.948  0.2589  0.3987  0.0126
14984TIP3    H166367   4.365   3.014  16.919  1.2745 -0.2594  0.7469
14984TIP3    H266368   4.329   3.132  17.008  0.0536 -0.0830  0.0427
14985TIP3   OH266369   0.155   3.094   3.259  0.0084  0.2483 -0.3189
14985TIP3    H166370   0.122   3.167   3.207 -0.8038  1.0882  1.2769
14985TIP3    H266371   0.115   3.017   3.220  0.3682  0.7159 -1.6408
14986TIP3   OH266372   5.280   6.127   0.044 -0.6456 -0.0342 -0.4719
14986TIP3    H166373   5.308   6.054   0.100 -2.1479  0.0287  0.4098
14986TIP3    H266374   5.347   6.194   0.056 -1.5218  0.4626  2.2666
14987TIP3   OH266375   1.584   4.099   5.273 -0.4384  0.1812  0.3770
14987TIP3    H166376   1.674   4.083   5.243  0.0856  1.9711  0.8803
14987TIP3    H266377   1.562   4.022   5.325  1.4504  0.4511  1.6700
14988TIP3   OH266378   1.852   2.856   1.954 -0.2430 -0.4080  0.1584
14988TIP3    H166379   1.845   2.932   1.896 -0.9500 -1.0155 -0.5819
14988TIP3    H266380   1.775   2.861   2.010  0.4329  0.1713  1.0744
14989TIP3   OH266381   1.959   0.051   4.896 -0.0263  0.2983  0.0849
14989TIP3    H166382   2.042   0.066   4.942 -0.1321  1.9821 -0.2015
14989TIP3    H266383   1.910   0.133   4.908 -2.2550 -1.1286  1.4258
14990TIP3   OH266384   3.213   2.732   1.344 -0.2131  0.1621 -0.0873
14990TIP3    H166385   3.306   2.716   1.363 -0.1641 -0.0309 -0.4782
14990TIP3    H266386   3.213   2.775   1.258 -0.5118 -0.3158 -0.3286
14991TIP3   OH266387   0.607   3.594  16.038 -0.0106 -0.1539  0.6698
14991TIP3    H166388   0.653   3.630  16.114 -0.4920  2.8920 -0.3419
14991TIP3    H266389   0.597   3.669  15.978 -2.4268 -1.6857 -1.0367
14992TIP3   OH266390   0.857   3.040   5.240  0.2726  0.2742 -0.3888
14992TIP3    H166391   0.804   3.053   5.161 -1.1417  2.2524  0.8048
14992TIP3    H266392   0.867   2.945   5.246 -1.0995 -0.0205 -2.0017
14993TIP3   OH266393   4.493   2.421   4.968 -0.0567 -0.3399  0.1713
14993TIP3    H166394   4.579   2.385   4.945 -0.0042 -0.1022 -0.0116
14993TIP3    H266395   4.445   2.348   5.006  0.0318 -0.6148 -0.2448
14994TIP3   OH266396   1.750   6.628  11.005  0.0558  0.0273 -0.4445
14994TIP3    H166397   1.757   6.722  11.022 -1.3854  0.0349  0.3519
14994TIP3    H266398   1.710   6.622  10.919  0.9008  0.1188 -0.8507
14995TIP3   OH266399   0.922   6.713   5.435  0.0685  0.9014  0.0918
14995TIP3    H166400   0.888   6.787   5.486 -2.6717 -1.3955  2.0007
14995TIP3    H266401   0.851   6.691   5.375  0.3296 -0.8025  0.3490
14996TIP3   OH266402   4.250   3.322   1.924  0.0967  0.3755 -0.0576
14996TIP3    H166403   4.324   3.355   1.873 -0.3727 -0.7992 -1.5663
14996TIP3    H266404   4.197   3.399   1.942  0.0124  0.7793 -1.8413
14997TIP3   OH266405   1.748   3.211   1.452 -0.3013  0.1319 -0.5049
14997TIP3    H166406   1.746   3.205   1.548  0.7789 -0.5018 -0.5063
14997TIP3    H266407   1.767   3.303   1.434  2.9203 -0.3337 -0.0134
14998TIP3   OH266408   3.518   2.168  14.929 -0.1858  0.1691  0.7479
14998TIP3    H166409   3.530   2.256  14.965 -0.5375  0.5548 -0.0412
14998TIP3    H266410   3.607   2.138  14.909 -0.0717  0.3732  0.9451
14999TIP3   OH266411   1.326   4.962  14.790 -0.3536 -0.2200 -0.1646
14999TIP3    H166412   1.383   5.040  14.783 -1.8568  0.8266 -1.4101
14999TIP3    H266413   1.267   4.982  14.862  0.7234 -1.2595  1.0537
15000TIP3   OH266414   4.297   5.923  14.398  0.3763 -0.3290 -0.7287
15000TIP3    H166415   4.297   6.003  14.346 -2.5273  0.2974  0.0242
15000TIP3    H266416   4.258   5.857  14.340  2.0288 -1.0461 -1.0763
15001TIP3   OH266417   3.548   2.421  11.892  0.5026 -0.4840  0.5979
15001TIP3    H166418   3.612   2.467  11.839  1.6543 -0.2168  2.1275
15001TIP3    H266419   3.493   2.489  11.929  0.1806 -0.6062  0.3475
15002TIP3   OH266420   1.887   3.575  15.466 -0.1646  0.1179  0.2705
15002TIP3    H166421   1.835   3.583  15.546 -0.1361 -1.3358  0.4528
15002TIP3    H266422   1.977   3.572  15.496 -0.0773  0.6734  0.0864
15003TIP3   OH266423   0.651   2.035   3.650  0.6098  0.0637  0.2265
15003TIP3    H166424   0.704   1.956   3.662 -1.3259 -1.1454  1.3737
15003TIP3    H266425   0.598   2.016   3.573  0.8772  0.6801 -0.1071
15004TIP3   OH266426   3.867   4.802   0.648  0.2157  0.6705 -0.2733
15004TIP3    H166427   3.849   4.709   0.633  0.7542  0.6997 -1.1343
15004TIP3    H266428   3.961   4.811   0.632 -0.3329  1.9702 -3.6127
15005TIP3   OH266429   3.507   2.760   2.443 -0.2688  0.2339  0.2419
15005TIP3    H166430   3.594   2.724   2.427 -0.1834  0.6191 -0.1888
15005TIP3    H266431   3.505   2.780   2.536 -0.2022 -0.5767  0.4221
15006TIP3   OH266432   5.888   3.091   2.498 -0.5105 -0.0482 -0.6447
15006TIP3    H166433   5.923   3.131   2.578 -2.6329  0.8802 -0.1141
15006TIP3    H266434   5.939   3.130   2.427 -0.5745  1.3833  0.0719
15007TIP3   OH266435   0.871   5.153   2.202  0.2307 -0.1229 -0.1211
15007TIP3    H166436   0.916   5.227   2.162 -1.0801  1.8087  1.7015
15007TIP3    H266437   0.828   5.109   2.129  0.3308  1.4623 -1.1928
15008TIP3   OH266438   0.997   5.808   4.634 -0.0264 -0.0896  0.3340
15008TIP3    H166439   1.025   5.792   4.544  1.0762 -2.6638  1.0404
15008TIP3    H266440   1.065   5.864   4.671  2.3434 -3.0448  0.8730
15009TIP3   OH266441   5.092   4.086  13.906 -0.2225  0.0630  0.4471
15009TIP3    H166442   5.098   4.122  13.995 -1.3334  1.5242 -0.0256
15009TIP3    H266443   5.032   4.011  13.915 -1.7757  1.2732  0.6792
15010TIP3   OH266444   1.885   5.728  12.830 -0.9387  0.5933  0.2283
15010TIP3    H166445   1.941   5.804  12.814  1.4536 -1.1244 -0.1322
15010TIP3    H266446   1.898   5.708  12.923 -0.4814 -0.1498  0.0138
15011TIP3   OH266447   2.971   4.830  15.569 -0.4238 -0.2110 -0.3803
15011TIP3    H166448   2.954   4.872  15.485 -1.7747  0.9545  0.4084
15011TIP3    H266449   3.053   4.869  15.600 -0.2964 -0.1122 -0.8445
15012TIP3   OH266450   4.765   2.092   3.948  0.1370  0.7514 -0.0796
15012TIP3    H166451   4.745   2.181   3.919  1.6198  1.1737  0.1043
15012TIP3    H266452   4.834   2.063   3.888 -0.8474 -0.5593 -0.6012
15013TIP3   OH266453   2.073   4.184   4.393 -0.4743  0.0190 -0.1489
15013TIP3    H166454   2.126   4.104   4.402 -0.0998  0.2978  0.1780
15013TIP3    H266455   2.124   4.239   4.333 -1.0666 -0.2561 -0.9306
15014TIP3   OH266456   2.537   3.844   3.448  0.0257 -0.3470  0.5627
15014TIP3    H166457   2.556   3.914   3.510 -1.7260  1.2139 -0.5794
15014TIP3    H266458   2.597   3.859   3.375 -1.7035  1.2986 -0.6075
15015TIP3   OH266459   6.378   4.752  13.001  0.0146  0.0449  0.0386
15015TIP3    H166460   6.469   4.769  12.980 -0.0303  0.6831  0.3113
15015TIP3    H266461   6.362   4.802  13.081 -0.2681 -0.9745  0.6358
15016TIP3   OH266462   3.455   4.114  16.236 -0.0255 -0.0400  0.3795
15016TIP3    H166463   3.428   4.052  16.167  4.3977  1.7821 -3.5305
15016TIP3    H266464   3.522   4.066  16.286  1.8874  0.7065 -1.3225
15017TIP3   OH266465   5.503   6.657  16.831 -0.2104  0.2113  0.5928
15017TIP3    H166466   5.501   6.742  16.786 -1.9629  0.9311  1.9117
15017TIP3    H266467   5.577   6.664  16.891  0.8132  0.0669 -0.6253
15018TIP3   OH266468   0.476   3.517   2.900  0.3243  0.3758  0.4288
15018TIP3    H166469   0.475   3.428   2.936  0.4376 -0.9097 -2.4786
15018TIP3    H266470   0.440   3.508   2.812 -4.7235  4.0841  1.6486
15019TIP3   OH266471   5.155   0.390   0.545 -0.0057 -0.7373  0.1466
15019TIP3    H166472   5.239   0.421   0.510  0.5393 -0.5025  1.5986
15019TIP3    H266473   5.092   0.409   0.476  0.7745  1.1213 -0.1075
15020TIP3   OH266474   4.886   4.973   2.902 -0.0969  0.5716  0.0813
15020TIP3    H166475   4.904   4.950   2.810 -0.6069 -0.1550  0.1586
15020TIP3    H266476   4.838   4.898   2.936  0.2069  0.7807  0.9873
15021TIP3   OH266477   2.228   2.195  15.009 -0.0485 -0.5357  0.1623
15021TIP3    H166478   2.215   2.100  15.004  0.6187 -0.5886 -2.9675
15021TIP3    H266479   2.323   2.206  15.019 -0.1714 -0.1960  0.9813
15022TIP3   OH266480   5.217   2.688   3.730 -0.3538 -0.1634  0.1578
15022TIP3    H166481   5.207   2.688   3.825 -1.9371 -0.6960  0.0106
15022TIP3    H266482   5.193   2.777   3.703 -0.8050 -0.2778  0.1771
15023TIP3   OH266483   6.219   2.343  10.829 -0.6846 -0.7445 -0.2749
15023TIP3    H166484   6.215   2.438  10.822  1.0946 -0.5948  0.2923
15023TIP3    H266485   6.185   2.311  10.745 -2.9374  0.3019  0.1649
15024TIP3   OH266486   3.146   5.643  17.368  0.3421  0.0068 -0.3995
15024TIP3    H166487   3.077   5.650  17.302 -0.0210  1.0394  0.0649
15024TIP3    H266488   3.220   5.690  17.331  0.5479 -0.4576 -0.5810
15025TIP3   OH266489   1.051   0.831   0.256 -0.0500 -0.9869  0.1655
15025TIP3    H166490   1.093   0.917   0.258 -2.1351  0.0685  0.6725
15025TIP3    H266491   1.005   0.828   0.172 -0.5820 -1.3163  0.4665
15026TIP3   OH266492   2.085   0.253  14.829  0.1146  0.4042 -0.4631
15026TIP3    H166493   2.103   0.291  14.914 -2.1525  1.3111 -0.3131
15026TIP3    H266494   2.094   0.326  14.767  2.0510 -0.3120 -1.0870
15027TIP3   OH266495   4.487   1.575   4.410  0.3778  0.7576 -0.0562
15027TIP3    H166496   4.500   1.637   4.482  2.5408  0.7011 -0.3353
15027TIP3    H266497   4.569   1.525   4.406 -0.7113 -1.0637 -0.8646
15028TIP3   OH266498   4.463   1.032  14.397  0.3019 -0.1419 -0.2728
15028TIP3    H166499   4.519   1.025  14.319 -1.1748 -2.5990 -1.2145
15028TIP3    H266500   4.397   0.964  14.385  0.6302 -1.3660  3.6422
15029TIP3   OH266501   3.491   1.687  14.792 -0.2500  0.5509  0.0536
15029TIP3    H166502   3.445   1.765  14.822 -0.3983  0.3631  0.3179
15029TIP3    H266503   3.438   1.654  14.719 -1.2136 -0.3458  1.1190
15030TIP3   OH266504   2.096   5.972   2.668  0.6163 -0.4639  0.3447
15030TIP3    H166505   2.021   5.931   2.623  0.9618  0.3239 -1.0174
15030TIP3    H266506   2.067   6.062   2.685  1.4844  0.0712 -0.8660
15031TIP3   OH266507   5.744   0.598   3.684 -0.2860  0.6481  0.2149
15031TIP3    H166508   5.727   0.510   3.718 -0.1675  0.7428  0.5299
15031TIP3    H266509   5.795   0.585   3.604  2.4022  0.4946  1.8199
15032TIP3   OH266510   3.548   4.977  14.204 -0.6183  0.1306  0.1516
15032TIP3    H166511   3.502   4.953  14.285 -2.6929 -0.6873 -1.1724
15032TIP3    H266512   3.576   4.893  14.167 -0.0394  0.4647 -0.1864
15033TIP3   OH266513   3.555   1.875   0.653 -0.8555 -0.4383 -0.2086
15033TIP3    H166514   3.552   1.918   0.739 -2.2224 -0.9356  0.0300
15033TIP3    H266515   3.648   1.871   0.631 -0.5297  0.3579  0.9131
15034TIP3   OH266516   5.227   3.345  10.952  0.1747  0.2089  0.4259
15034TIP3    H166517   5.316   3.362  10.984  0.1771 -0.3063  0.6945
15034TIP3    H266518   5.189   3.432  10.942  0.5198  0.4139  0.8411
15035TIP3   OH266519   6.699   4.897  11.205  0.7038  0.2948  0.0719
15035TIP3    H166520   6.605   4.901  11.224  1.0539  1.3900  1.7851
15035TIP3    H266521   6.740   4.879  11.290  2.0028 -1.2194 -0.8196
15036TIP3   OH266522   0.845   4.727  16.780  0.0808 -0.5477  0.0677
15036TIP3    H166523   0.940   4.735  16.777  0.1245 -0.4617  1.3101
15036TIP3    H266524   0.818   4.789  16.848 -0.9738  0.3154 -1.0841
15037TIP3   OH266525   5.488   3.751   3.654  0.1440 -0.0016  0.1184
15037TIP3    H166526   5.444   3.780   3.574 -1.8543 -1.6947  0.5363
15037TIP3    H266527   5.544   3.825   3.678 -0.2452  1.0914 -2.0532
15038TIP3   OH266528   1.383   1.664  13.327  0.3524 -0.5541 -0.1175
15038TIP3    H166529   1.378   1.625  13.415 -0.2349 -0.3809 -0.0699
15038TIP3    H266530   1.418   1.751  13.341 -0.5268 -0.2166  0.0509
15039TIP3   OH266531   6.521   0.057  11.208 -0.3157  0.3393  0.3366
15039TIP3    H166532   6.600   0.107  11.186 -1.3679  0.9590 -2.5848
15039TIP3    H266533   6.463   0.121  11.249 -1.2864  1.4376 -2.5118
15040TIP3   OH266534   0.735   4.733  14.111  0.2261  0.2908 -0.4516
15040TIP3    H166535   0.736   4.826  14.135 -0.0749  0.4988 -1.2124
15040TIP3    H266536   0.765   4.688  14.190  3.0528  1.2141 -0.8541
15041TIP3   OH266537   4.606   3.744   2.309  0.7732  0.2221 -0.0454
15041TIP3    H166538   4.528   3.708   2.267 -0.2182 -0.4051  2.2246
15041TIP3    H266539   4.635   3.814   2.250 -0.8123 -0.3013 -1.5005
15042TIP3   OH266540   3.563   0.223   0.851  0.2974 -0.8196  0.2482
15042TIP3    H166541   3.480   0.209   0.895 -0.5680  0.4683 -0.8713
15042TIP3    H266542   3.553   0.179   0.766 -0.0511  0.9524 -0.6964
15043TIP3   OH266543   3.535   5.692   0.471 -0.2981  0.1760 -0.1028
15043TIP3    H166544   3.495   5.616   0.515 -1.2378  0.1957 -0.8890
15043TIP3    H266545   3.616   5.707   0.519 -0.3130 -1.0540  0.3511
15044TIP3   OH266546   5.889   6.267   1.730 -0.1602  0.0003 -0.5321
15044TIP3    H166547   5.854   6.345   1.687 -1.4451  0.6641  1.5943
15044TIP3    H266548   5.867   6.195   1.670  0.1030  1.1029 -2.0160
15045TIP3   OH266549   5.705   4.991  12.597 -0.6037 -0.1374  0.8299
15045TIP3    H166550   5.732   5.050  12.668 -3.6465 -0.3593  2.3348
15045TIP3    H266551   5.620   5.025  12.569  0.0515 -0.6576 -2.1430
15046TIP3   OH266552   5.481   4.804   5.025  0.3471  0.0251  0.2079
15046TIP3    H166553   5.391   4.774   5.038  0.4199  0.4395  2.0355
15046TIP3    H266554   5.535   4.727   5.043  0.4868  0.7759  3.8535
15047TIP3   OH266555   2.975   0.457  13.115 -0.2170  0.2219  0.2150
15047TIP3    H166556   2.958   0.469  13.209  0.8741  0.3909  0.3988
15047TIP3    H266557   2.896   0.492  13.073 -0.9022 -0.2375  1.0691
15048TIP3   OH266558   0.382   4.040   3.443 -0.0683 -0.0768  0.4882
15048TIP3    H166559   0.408   4.095   3.517  1.4568  1.9065 -1.3789
15048TIP3    H266560   0.462   3.991   3.421  0.7726  2.1889 -2.0749
15049TIP3   OH266561   1.162   3.352   5.459  0.1336  0.5602  0.7312
15049TIP3    H166562   1.167   3.391   5.372 -0.3418  3.0298  1.7327
15049TIP3    H266563   1.099   3.281   5.449  0.4017  0.5036 -1.0083
15050TIP3   OH266564   1.409   3.535   5.399  0.3163 -0.1862  0.0235
15050TIP3    H166565   1.332   3.501   5.353  0.8969 -2.6630  0.7375
15050TIP3    H266566   1.386   3.528   5.492  1.4265 -1.0678  0.2447
15051TIP3   OH266567   1.047   0.598   4.692 -0.1464 -0.0314 -0.6300
15051TIP3    H166568   1.126   0.654   4.691 -0.3095  0.4079  2.3997
15051TIP3    H266569   1.077   0.515   4.728 -0.9104 -0.1202 -0.1821
15052TIP3   OH266570   3.027   2.596  11.810  0.8687 -0.0959  0.8426
15052TIP3    H166571   2.966   2.522  11.805  2.5223 -1.6639  2.6354
15052TIP3    H266572   3.031   2.629  11.720 -0.2252 -1.9128  0.0707
15053TIP3   OH266573   1.729   3.769  11.804  0.5226 -0.5796  0.3069
15053TIP3    H166574   1.791   3.826  11.849 -0.2228 -0.8994  1.8211
15053TIP3    H266575   1.650   3.822  11.794  0.3205 -0.8699  0.3532
15054TIP3   OH266576   2.570   4.248  16.816 -0.0248  0.7896  0.2377
15054TIP3    H166577   2.480   4.280  16.815  0.5526  2.4696 -0.1089
15054TIP3    H266578   2.624   4.326  16.811  1.4952 -0.1253  1.3340
15055TIP3   OH266579   1.732   3.031  15.096  0.5877 -0.1820 -0.8173
15055TIP3    H166580   1.730   3.118  15.135  0.5168  0.4050 -2.0856
15055TIP3    H266581   1.677   2.978  15.154  1.7123  0.2589  0.7188
15056TIP3   OH266582   1.445   0.480  15.998 -0.4388 -0.5278  0.1192
15056TIP3    H166583   1.529   0.467  16.042  0.5420  0.4793 -1.3561
15056TIP3    H266584   1.463   0.463  15.905 -2.1651 -1.4865 -0.0846
15057TIP3   OH266585   1.068   6.340   2.526  0.3880 -0.3194  0.2866
15057TIP3    H166586   1.084   6.358   2.434  0.0099  1.1655  0.4755
15057TIP3    H266587   1.055   6.246   2.531  1.0201 -0.4969 -1.0762
15058TIP3   OH266588   5.247   4.742   5.742  0.2743 -0.5843 -0.1565
15058TIP3    H166589   5.203   4.732   5.657  0.2911  1.6644 -0.4794
15058TIP3    H266590   5.250   4.653   5.777 -0.4744 -1.4625 -2.1332
15059TIP3   OH266591   5.507   6.490  14.839 -0.5943  0.4852 -0.0989
15059TIP3    H166592   5.507   6.397  14.819 -0.0098  0.4138  0.2036
15059TIP3    H266593   5.537   6.532  14.759 -1.9597  0.5170 -0.6188
15060TIP3   OH266594   1.029   4.405   4.814  0.0016  0.1178 -0.0521
15060TIP3    H166595   1.118   4.412   4.848 -1.0949  0.2661  3.0919
15060TIP3    H266596   1.034   4.336   4.748  2.0426 -1.5398  1.6853
15061TIP3   OH266597   6.131   6.020   0.946 -0.0619 -0.1438  0.3866
15061TIP3    H166598   6.166   5.939   0.983  1.8651 -0.3698 -1.7374
15061TIP3    H266599   6.207   6.063   0.906 -1.6451  0.9637 -1.6228
15062TIP3   OH266600   6.483   2.855  14.181 -0.3071  0.1840  0.2760
15062TIP3    H166601   6.523   2.941  14.172 -0.9362  0.5326  0.7409
15062TIP3    H266602   6.483   2.837  14.275  0.8178 -0.8159  0.1058
15063TIP3   OH266603   5.172   2.564   1.034 -0.8390  0.0950 -0.3033
15063TIP3    H166604   5.174   2.494   1.100  0.3617  0.5029  0.1140
15063TIP3    H266605   5.259   2.604   1.039 -2.0249  2.7646  0.7042
15064TIP3   OH266606   1.630   1.812  11.905  0.0400  0.4893  0.0863
15064TIP3    H166607   1.561   1.746  11.916 -0.4301  1.1231  1.1104
15064TIP3    H266608   1.599   1.868  11.834 -0.3668  0.5969  0.3439
15065TIP3   OH266609   3.887   6.588   3.462 -0.3259  0.3126 -0.4778
15065TIP3    H166610   3.838   6.583   3.380  0.8673  2.5761 -1.4087
15065TIP3    H266611   3.850   6.664   3.507 -1.8060 -1.5954  1.7513
15066TIP3   OH266612   2.543   6.488   1.647  0.2295 -0.3976 -0.1719
15066TIP3    H166613   2.602   6.415   1.626  1.0831  0.1561  0.2510
15066TIP3    H266614   2.470   6.478   1.586  1.6065 -0.0825 -1.9581
15067TIP3   OH266615   2.067   0.915   1.142  0.1514  0.3403 -0.1043
15067TIP3    H166616   2.128   0.841   1.145 -0.3941 -0.1446 -0.6191
15067TIP3    H266617   2.040   0.927   1.233 -2.9575 -2.8582 -0.3673
15068TIP3   OH266618   2.043   2.498  15.370 -0.1158  0.2411 -0.2448
15068TIP3    H166619   2.126   2.470  15.409 -0.6125  0.2890  0.9111
15068TIP3    H266620   2.068   2.565  15.306  0.7960 -0.3739 -0.5543
15069TIP3   OH266621   3.036   6.405   3.564 -0.0779  0.3537  0.2718
15069TIP3    H166622   2.975   6.398   3.637 -0.9186 -0.6270 -0.4751
15069TIP3    H266623   2.979   6.410   3.487  0.7747  2.1339 -0.2739
15070TIP3   OH266624   3.064   4.901   0.726  0.0651  0.0894 -0.0947
15070TIP3    H166625   3.131   4.962   0.757  1.3471 -0.7418 -1.1521
15070TIP3    H266626   3.106   4.815   0.728 -1.1156 -0.5124 -0.3603
15071TIP3   OH266627   5.748   3.032   0.185  0.2370 -0.4991  0.2547
15071TIP3    H166628   5.717   3.059   0.099 -0.9545 -1.6311  0.2953
15071TIP3    H266629   5.811   2.962   0.168  0.3012 -0.4487  0.2852
15072TIP3   OH266630   2.317   6.598  16.684 -0.5667  0.1008  0.1801
15072TIP3    H166631   2.357   6.684  16.700 -0.8139  0.3451 -0.5158
15072TIP3    H266632   2.392   6.538  16.680 -0.3177  0.4407 -0.3598
15073TIP3   OH266633   0.835   3.199  16.143 -0.1751 -0.4701 -0.3709
15073TIP3    H166634   0.850   3.150  16.063 -1.4552  1.6918 -2.0698
15073TIP3    H266635   0.741   3.220  16.141  0.1891  1.5343  0.4879
15074TIP3   OH266636   2.209   0.636   2.583  0.1679  0.2484 -0.4570
15074TIP3    H166637   2.132   0.648   2.528 -0.9942  0.5941  1.1595
15074TIP3    H266638   2.191   0.556   2.632  1.4476 -0.3869 -0.9844
15075TIP3   OH266639   1.128   5.520   4.551  0.4951  0.4725  0.0168
15075TIP3    H166640   1.070   5.590   4.522 -0.1006 -0.1114 -0.2261
15075TIP3    H266641   1.184   5.502   4.475 -0.6902 -0.6688 -0.6340
15076TIP3   OH266642   3.054   3.360  10.912 -0.1684  0.7590  0.0095
15076TIP3    H166643   3.058   3.454  10.930  0.1938  0.6326  0.6206
15076TIP3    H266644   3.142   3.338  10.882  0.0682  0.4135  0.9298
15077TIP3   OH266645   5.821   5.081  16.142  0.6779  0.1931 -0.4951
15077TIP3    H166646   5.868   5.039  16.213  1.1520 -0.8817 -1.4174
15077TIP3    H266647   5.875   5.156  16.118  0.0090  1.1779  0.9123
15078TIP3   OH266648   2.398   4.746  15.429  0.0038  0.2270 -0.1887
15078TIP3    H166649   2.357   4.790  15.355  0.6153 -0.0377 -0.6944
15078TIP3    H266650   2.330   4.687  15.463 -0.1829  0.1353 -0.7231
15079TIP3   OH266651   0.519   0.749  13.176  0.3189  0.1241  0.4033
15079TIP3    H166652   0.603   0.754  13.131 -0.4301  1.1136 -0.9368
15079TIP3    H266653   0.480   0.667  13.145  0.8855 -0.4767  1.2405
15080TIP3   OH266654   3.136   0.669  11.341 -0.3027  0.0634 -0.1191
15080TIP3    H166655   3.163   0.600  11.281  1.8810  2.1290 -1.6780
15080TIP3    H266656   3.069   0.718  11.293 -2.3533 -1.2299  1.2404
15081TIP3   OH266657   0.236   2.214   3.506 -0.2325  0.1099 -0.2064
15081TIP3    H166658   0.253   2.134   3.556  0.5826 -0.0311 -0.6816
15081TIP3    H266659   0.191   2.272   3.567 -0.2589 -0.4781  0.3416
15082TIP3   OH266660   1.432   2.949   6.033 -0.2110  0.0059  0.8090
15082TIP3    H166661   1.448   3.002   6.110 -0.0780  0.9776  0.1349
15082TIP3    H266662   1.430   3.011   5.960  0.3756 -0.9622 -0.0709
15083TIP3   OH266663   2.177   6.681   2.516  0.0923  0.3321  0.9353
15083TIP3    H166664   2.140   6.746   2.456  1.3946  0.2704  0.0175
15083TIP3    H266665   2.122   6.604   2.504  0.3298  0.3162 -0.2266
15084TIP3   OH266666   4.192   5.018  11.620  0.0202  0.2182 -0.9324
15084TIP3    H166667   4.217   5.008  11.528 -0.7795  0.1934 -1.1493
15084TIP3    H266668   4.230   4.941  11.663  0.3061  0.1738 -1.2533
15085TIP3   OH266669   2.640   6.573  13.743 -0.1324 -0.1629  0.4313
15085TIP3    H166670   2.710   6.567  13.678  0.3254 -0.1491  0.9207
15085TIP3    H266671   2.644   6.663  13.774  0.2465 -0.4174  1.1380
15086TIP3   OH266672   2.058   6.243   5.349 -0.4801  0.4636 -0.0226
15086TIP3    H166673   1.963   6.246   5.339 -0.6007  0.4629  1.0181
15086TIP3    H266674   2.092   6.277   5.266 -1.4075  1.7545  0.1005
15087TIP3   OH266675   0.474   2.345  13.901  0.0878 -0.0236  0.0730
15087TIP3    H166676   0.525   2.290  13.961  1.0851  1.0283  0.2145
15087TIP3    H266677   0.517   2.430  13.904 -1.2661  0.7077 -0.3457
15088TIP3   OH266678   2.262   0.139   4.385 -0.0749 -0.3913  0.5016
15088TIP3    H166679   2.275   0.170   4.475  1.7325 -2.1287  0.9172
15088TIP3    H266680   2.242   0.218   4.335 -0.3684  0.7272  2.2849
15089TIP3   OH266681   2.474   3.618   1.276  0.2929  0.0652 -0.5066
15089TIP3    H166682   2.446   3.562   1.349  1.3240  0.2174  0.0299
15089TIP3    H266683   2.487   3.557   1.203  0.7604 -0.3178 -0.1160
15090TIP3   OH266684   5.619   6.352  13.119 -0.1603 -0.6186  0.7410
15090TIP3    H166685   5.615   6.432  13.171  0.2849  0.4267 -0.7740
15090TIP3    H266686   5.543   6.356  13.061  1.0465 -0.1444 -0.8870
15091TIP3   OH266687   3.976   6.254   2.964  0.0413 -0.0072 -0.2366
15091TIP3    H166688   4.048   6.242   2.901  0.6169  0.7067  0.2556
15091TIP3    H266689   3.960   6.167   2.999  0.9305 -0.1195 -0.0870
15092TIP3   OH266690   4.345   4.557   2.938 -0.6355 -0.4484 -0.0133
15092TIP3    H166691   4.258   4.537   2.971 -0.7249 -0.7426 -0.4190
15092TIP3    H266692   4.383   4.615   3.004  0.4313 -3.5437  2.2949
15093TIP3   OH266693   3.231   6.240  16.807  0.1365 -0.0966  0.2951
15093TIP3    H166694   3.287   6.175  16.850 -1.1542 -1.8697 -0.5556
15093TIP3    H266695   3.215   6.306  16.875  0.5254 -1.2846  1.6062
15094TIP3   OH266696   3.605   1.089   6.677  0.1490 -0.4965  0.1259
15094TIP3    H166697   3.681   1.048   6.636 -0.7609 -1.0905 -1.0307
15094TIP3    H266698   3.530   1.043   6.640 -0.8124  0.5762  0.6717
15095TIP3   OH266699   1.119   5.056  16.998 -0.1785 -0.3188  0.1830
15095TIP3    H166700   1.152   4.970  17.025  2.1685  0.8622  1.3010
15095TIP3    H266701   1.141   5.062  16.905  2.0960  0.0938  0.7131
15096TIP3   OH266702   1.161   6.291  10.268  0.3892 -0.2863  0.2101
15096TIP3    H166703   1.202   6.328  10.346  0.7531 -0.7671  0.2549
15096TIP3    H266704   1.196   6.201  10.263  0.8572 -0.0666 -0.8391
15097TIP3   OH266705   2.594   2.987  10.968 -0.1280  0.2629 -1.1535
15097TIP3    H166706   2.502   2.985  10.996  0.1296 -0.3021 -0.3259
15097TIP3    H266707   2.641   3.026  11.042  0.6982 -2.1479 -0.3189
15098TIP3   OH266708   4.515   2.658   6.081 -0.1685 -0.4518 -0.4714
15098TIP3    H166709   4.544   2.691   5.996 -0.7202 -1.0572 -0.9093
15098TIP3    H266710   4.595   2.630   6.126  0.0714 -0.6881 -1.0387
15099TIP3   OH266711   5.988   3.602  13.163  0.0021  0.1628 -0.7593
15099TIP3    H166712   5.936   3.521  13.164 -0.0412  0.1707  0.8254
15099TIP3    H266713   5.944   3.660  13.225  1.6921  0.2820  0.4207
15100TIP3   OH266714   1.281   0.684   5.815 -0.1306  0.8800 -0.0558
15100TIP3    H166715   1.223   0.617   5.850  0.6026 -0.5410 -1.4383
15100TIP3    H266716   1.231   0.724   5.744 -0.4132  1.5561  0.5074
15101TIP3   OH266717   3.756   2.224  16.988  0.1696 -0.4239 -0.7177
15101TIP3    H166718   3.797   2.148  17.029 -1.8897 -1.5639 -0.6371
15101TIP3    H266719   3.695   2.187  16.925 -1.7911  1.0681  0.1777
15102TIP3   OH266720   2.716   2.103   1.426 -0.2998 -0.1295 -0.6317
15102TIP3    H166721   2.695   2.075   1.516  0.7443 -0.0571 -0.3513
15102TIP3    H266722   2.800   2.148   1.435 -0.8315  1.0481 -1.4477
15103TIP3   OH266723   0.853   1.550  17.386  0.5196 -0.1880  0.0374
15103TIP3    H166724   0.907   1.517  17.315 -0.3727 -2.0149  0.1445
15103TIP3    H266725   0.817   1.471  17.427  0.3156  0.8527  1.9636
15104TIP3   OH266726   2.980   3.321   4.552  0.2628 -0.1640  0.0045
15104TIP3    H166727   2.980   3.390   4.485 -1.4030  0.8084  0.9190
15104TIP3    H266728   2.888   3.311   4.576  0.7274 -1.0015  1.6074
15105TIP3   OH266729   1.624   5.607   5.993  0.2850  0.0272  0.0122
15105TIP3    H166730   1.566   5.635   6.065 -1.0918 -1.8502 -0.2940
15105TIP3    H266731   1.669   5.530   6.028  0.8394  0.0886 -0.5700
15106TIP3   OH266732   3.481   3.546   0.904  0.2159  0.4327  0.1128
15106TIP3    H166733   3.439   3.480   0.960 -1.0010  0.5601 -0.6031
15106TIP3    H266734   3.567   3.510   0.884  0.4805  0.1368  1.6109
15107TIP3   OH266735   3.197   2.910   2.637 -0.2399  0.1246  0.0979
15107TIP3    H166736   3.270   2.942   2.585 -1.5101  0.1292 -1.7693
15107TIP3    H266737   3.121   2.960   2.607 -1.6558 -2.2530 -0.5419
15108TIP3   OH266738   4.933   3.876  13.968 -0.2283 -0.2157 -0.2066
15108TIP3    H166739   4.993   3.833  14.030 -0.8379 -2.4934 -1.0721
15108TIP3    H266740   4.846   3.857  14.003 -0.5255  0.3927 -0.6047
15109TIP3   OH266741   3.926   2.468   2.276 -0.4935 -0.3535  0.2237
15109TIP3    H166742   3.952   2.397   2.218  1.7976  0.5675  0.0055
15109TIP3    H266743   3.971   2.449   2.359 -0.9386  0.1256  0.5805
15110TIP3   OH266744   5.143   0.367   2.257 -0.2111  0.1830  0.1176
15110TIP3    H166745   5.141   0.331   2.168 -1.0616 -0.2187  0.2926
15110TIP3    H266746   5.119   0.459   2.247 -1.0415 -0.0416  0.0132
15111TIP3   OH266747   4.370   5.694  11.081  0.1042  0.8047  0.7057
15111TIP3    H166748   4.296   5.634  11.090 -0.4966  1.3322 -0.5034
15111TIP3    H266749   4.443   5.648  11.121  0.0430 -1.4517 -1.5025
15112TIP3   OH266750   0.358   2.237  16.636  0.7726 -0.5843 -0.2822
15112TIP3    H166751   0.358   2.192  16.552 -0.9174  1.0434 -1.2371
15112TIP3    H266752   0.371   2.329  16.614 -0.3031 -0.0362  1.1638
15113TIP3   OH266753   6.459   0.843  15.002  0.0911  0.0847 -0.4555
15113TIP3    H166754   6.375   0.876  14.969  0.1428  0.4348 -0.2433
15113TIP3    H266755   6.516   0.842  14.926 -0.3462 -0.9560 -0.7778
15114TIP3   OH266756   4.772   0.723   5.534  0.5485  0.3819 -0.0767
15114TIP3    H166757   4.847   0.668   5.557 -1.6283 -1.9892  2.0253
15114TIP3    H266758   4.770   0.723   5.439  2.9993  0.2653 -0.1908
15115TIP3   OH266759   6.055   1.277  14.089 -0.0425 -0.2923 -0.9547
15115TIP3    H166760   5.982   1.298  14.148  0.2315  0.7175 -0.9564
15115TIP3    H266761   6.031   1.319  14.006  0.1856 -0.6133 -1.1850
15116TIP3   OH266762   4.992   2.011  11.182 -0.1615  0.6780 -0.2956
15116TIP3    H166763   5.085   2.008  11.163 -0.1656  0.1799 -0.2624
15116TIP3    H266764   4.952   1.954  11.116 -0.2805 -0.2701  0.5564
15117TIP3   OH266765   5.920   4.447  15.212 -0.0258  0.6111  0.0392
15117TIP3    H166766   5.870   4.494  15.145  0.3389  0.9269 -0.0187
15117TIP3    H266767   5.975   4.514  15.252  1.4952  0.0241 -0.9534
15118TIP3   OH266768   5.245   1.819   5.418 -0.2815  0.0913  0.2731
15118TIP3    H166769   5.223   1.730   5.390  1.8632 -0.1517 -0.8222
15118TIP3    H266770   5.289   1.806   5.502 -0.5497  0.1877  0.4288
15119TIP3   OH266771   6.687   6.090   0.861  0.5866  0.3305  0.3650
15119TIP3    H166772   6.735   6.067   0.940  0.7416 -0.4872  0.0402
15119TIP3    H266773   6.633   6.013   0.843  0.2941  0.6477 -0.1377
15120TIP3   OH266774   6.558   4.943  17.060 -0.7086  0.2443 -0.0017
15120TIP3    H166775   6.523   4.967  17.146 -2.0867  0.2725 -0.5401
15120TIP3    H266776   6.481   4.917  17.010 -0.1336  1.5268 -1.6596
15121TIP3   OH266777   5.813   1.264  15.085 -0.6178  1.1078  0.1803
15121TIP3    H166778   5.721   1.246  15.069 -0.7185 -0.1060  1.8276
15121TIP3    H266779   5.826   1.353  15.052 -2.4035  1.3614  0.0556
15122TIP3   OH266780   0.745   0.863  11.803  0.3872  0.0006 -0.4338
15122TIP3    H166781   0.724   0.955  11.789  1.9956  0.4050 -0.4001
15122TIP3    H266782   0.821   0.865  11.862 -0.1229 -1.3808  0.3128
15123TIP3   OH266783   3.101   1.666  10.867  0.7648 -0.2315 -0.9134
15123TIP3    H166784   3.045   1.728  10.819  1.3390  0.0651 -1.2065
15123TIP3    H266785   3.100   1.697  10.957  0.6082 -0.1164 -0.9546
15124TIP3   OH266786   2.846   0.054  15.498 -0.5970 -0.0999  0.2404
15124TIP3    H166787   2.841   0.108  15.577 -1.0136 -0.2104  0.2891
15124TIP3    H266788   2.807  -0.029  15.523  0.7506 -0.7152  0.4012
15125TIP3   OH266789   0.783   2.824   6.586 -0.1139 -0.2897 -0.1615
15125TIP3    H166790   0.862   2.867   6.618  0.6919  0.0756 -2.4778
15125TIP3    H266791   0.780   2.741   6.634  0.4725  0.5847  1.4818
15126TIP3   OH266792   5.030   2.502   0.524  0.0804  0.6782  0.4491
15126TIP3    H166793   5.011   2.506   0.618 -0.6306 -0.3776  0.3581
15126TIP3    H266794   5.041   2.594   0.499 -0.7641  1.0490  1.3526
15127TIP3   OH266795   4.840   3.091   2.692  0.3834  0.6888  0.3534
15127TIP3    H166796   4.805   3.013   2.649  0.3575 -0.3739  2.1868
15127TIP3    H266797   4.763   3.132   2.732  0.4889  1.3085 -0.0804
15128TIP3   OH266798   2.070   4.811   5.914  0.1232  0.0519  0.1971
15128TIP3    H166799   2.115   4.886   5.953 -1.2046  1.2330 -0.4303
15128TIP3    H266800   2.096   4.813   5.822  0.9330 -0.9323  0.3968
15129TIP3   OH266801   1.880   4.784  13.726 -0.0679  0.1505 -0.5782
15129TIP3    H166802   1.926   4.788  13.642  1.2635 -0.7895  0.0644
15129TIP3    H266803   1.901   4.867  13.768 -1.0184  0.7720 -1.2854
15130TIP3   OH266804   1.435   0.701   5.160 -0.1680 -0.0164 -0.0667
15130TIP3    H166805   1.370   0.660   5.103  1.3757 -1.0417 -1.1564
15130TIP3    H266806   1.516   0.653   5.143  0.5711  0.2314  2.3397
15131TIP3   OH266807   4.589   0.128   1.861 -0.1593 -0.1021 -0.1765
15131TIP3    H166808   4.526   0.058   1.877 -1.7996  0.9256 -1.7516
15131TIP3    H266809   4.534   0.206   1.850  1.6170  1.6420  2.3000
15132TIP3   OH266810   0.995   2.980  17.385  0.6405  0.4231 -0.0654
15132TIP3    H166811   0.955   3.051  17.334  1.4313 -0.0597 -1.4072
15132TIP3    H266812   1.084   3.010  17.403  1.7653 -1.0359 -2.5701
15133TIP3   OH266813   1.648   2.958  13.124 -0.0157 -0.2719  0.1152
15133TIP3    H166814   1.564   3.004  13.119  0.9041  2.2352  3.7176
15133TIP3    H266815   1.632   2.885  13.184 -0.2658 -1.8295 -1.7359
15134TIP3   OH266816   5.326   0.895   5.160  0.6405  0.0074  0.0614
15134TIP3    H166817   5.320   0.987   5.184 -1.0601 -0.4615  1.6843
15134TIP3    H266818   5.414   0.869   5.188  1.1992  1.1468 -0.5694
15135TIP3   OH266819   3.981   5.596   0.446 -0.3872 -0.1167  0.9283
15135TIP3    H166820   3.984   5.666   0.381 -0.3461  1.8998  2.9793
15135TIP3    H266821   4.054   5.538   0.422  0.2848  1.1348 -0.1906
15136TIP3   OH266822   3.476   4.006  13.956  0.2091 -0.3298 -0.0730
15136TIP3    H166823   3.496   3.991  13.864  2.1906  0.6678  0.1135
15136TIP3    H266824   3.503   4.097  13.971 -1.7325  0.1092  1.1051
15137TIP3   OH266825   4.694   5.096  16.602  0.3384 -0.2107  0.3123
15137TIP3    H166826   4.707   5.036  16.529 -2.5870 -1.2837  0.5197
15137TIP3    H266827   4.766   5.078  16.662  0.8287 -1.8240 -0.7093
15138TIP3   OH266828   4.379   0.962  14.018 -0.1323  0.4790 -0.5727
15138TIP3    H166829   4.454   0.961  14.078 -0.4666  0.4655 -0.1464
15138TIP3    H266830   4.418   0.951  13.931  0.4951  1.9887 -0.5085
15139TIP3   OH266831   4.253   1.655  17.326 -0.1224  0.9137 -0.3616
15139TIP3    H166832   4.338   1.681  17.292  0.9207 -1.3338  0.3701
15139TIP3    H266833   4.263   1.652  17.421 -0.1837 -1.7214 -0.3475
15140TIP3   OH266834   5.343   5.950  11.871  0.0171  0.3465  0.0719
15140TIP3    H166835   5.434   5.922  11.867 -0.7122 -2.8705  1.6060
15140TIP3    H266836   5.301   5.908  11.796 -0.2717  1.5940 -0.4851
15141TIP3   OH266837   3.504   1.225  16.165 -0.1314 -0.4172 -0.4684
15141TIP3    H166838   3.483   1.318  16.150  0.9779  0.0307  0.5888
15141TIP3    H266839   3.597   1.225  16.189 -0.5940 -1.5689  1.5188
15142TIP3   OH266840   6.228   2.487   4.249  0.7210 -0.0738 -0.0236
15142TIP3    H166841   6.280   2.442   4.183  0.5419  0.0768 -0.2706
15142TIP3    H266842   6.258   2.450   4.332  0.1943 -1.0375 -0.2489
15143TIP3   OH266843   0.227   1.297   1.636 -0.2016 -0.0555 -0.3335
15143TIP3    H166844   0.227   1.314   1.542  0.3041 -1.0252 -0.5233
15143TIP3    H266845   0.136   1.279   1.658 -0.0366 -2.0688 -1.0968
15144TIP3   OH266846   4.033   3.578   4.751  0.9179  0.3832  0.6210
15144TIP3    H166847   4.100   3.645   4.765  1.4013 -0.4936  2.9125
15144TIP3    H266848   4.075   3.496   4.775  0.9264 -1.1697 -3.8098
15145TIP3   OH266849   1.916   6.031   3.104 -0.6569 -0.1301 -0.0166
15145TIP3    H166850   1.948   6.110   3.061 -0.3760 -0.1770  0.1044
15145TIP3    H266851   1.953   5.958   3.053  2.0025 -0.2469  1.8809
15146TIP3   OH266852   5.053   0.637  13.688 -0.7210 -0.5466  0.1867
15146TIP3    H166853   4.979   0.675  13.737 -0.3857  1.2104 -0.6096
15146TIP3    H266854   5.131   0.675  13.729 -0.3365 -0.9727 -0.1434
15147TIP3   OH266855   5.740   0.287  14.903 -0.5636 -0.1984  0.2762
15147TIP3    H166856   5.836   0.279  14.900 -0.5012  0.6352 -0.7953
15147TIP3    H266857   5.715   0.246  14.985  0.7016 -0.5847  0.4972
15148TIP3   OH266858   3.468   5.394  17.240 -0.5770  0.1276  0.0641
15148TIP3    H166859   3.469   5.466  17.177 -0.4013 -0.1693 -0.2832
15148TIP3    H266860   3.494   5.318  17.188 -1.1152 -0.2532  0.3374
15149TIP3   OH266861   1.273   2.272   5.747 -0.5445 -0.5051  0.3869
15149TIP3    H166862   1.263   2.242   5.656  0.4260 -0.5071  0.2711
15149TIP3    H266863   1.192   2.319   5.766 -0.0105  1.1420 -1.1209
15150TIP3   OH266864   4.552   3.820  15.371  0.1090  0.3962 -0.7126
15150TIP3    H166865   4.499   3.853  15.443  1.2916  1.0687 -0.1193
15150TIP3    H266866   4.614   3.891  15.352  1.3066 -0.6440 -0.8475
15151TIP3   OH266867   1.318   5.196  12.736  0.1415  0.1309 -0.0391
15151TIP3    H166868   1.356   5.281  12.761  0.3943 -0.2315  0.8636
15151TIP3    H266869   1.236   5.191  12.785 -1.5341  1.2164 -2.5085
15152TIP3   OH266870   6.167   3.358  10.572 -0.4655 -0.0260  0.0518
15152TIP3    H166871   6.167   3.270  10.609  0.5351 -0.4919 -1.0085
15152TIP3    H266872   6.245   3.399  10.611  0.0899 -0.2239 -0.8368
15153TIP3   OH266873   6.324   0.578  11.399  0.0701  0.3014 -0.9151
15153TIP3    H166874   6.266   0.616  11.334  0.8972  1.3312 -1.0804
15153TIP3    H266875   6.412   0.597  11.366  0.5681  2.5086  1.3707
15154TIP3   OH266876   5.499   2.908   2.262  0.7006 -0.2632 -0.3948
15154TIP3    H166877   5.408   2.910   2.294  1.1525  0.5558  0.8999
15154TIP3    H266878   5.532   2.996   2.278  2.5377 -1.2384  1.6928
15155TIP3   OH266879   2.870   3.852   4.161 -0.4435  0.3988 -0.6286
15155TIP3    H166880   2.841   3.765   4.190 -1.5675  0.8310 -0.3866
15155TIP3    H266881   2.852   3.908   4.237  2.4525  0.4638  0.1042
15156TIP3   OH266882   1.900   5.103   3.631  0.0278 -0.0197  0.1350
15156TIP3    H166883   1.913   5.136   3.542  1.4881 -0.4860  0.1441
15156TIP3    H266884   1.969   5.145   3.682  0.0279 -0.7636  0.7632
15157TIP3   OH266885   0.571   2.230   0.682 -0.5664  0.3551  0.2779
15157TIP3    H166886   0.484   2.207   0.714 -1.5136  2.6727 -0.4812
15157TIP3    H266887   0.599   2.153   0.632 -3.0947  0.3360 -1.2660
15158TIP3   OH266888   6.219   0.928  14.879  0.5356  0.2461  0.4942
15158TIP3    H166889   6.135   0.897  14.911  1.0491 -0.2247  1.4562
15158TIP3    H266890   6.204   1.018  14.852 -1.0305 -0.7385 -2.4335
15159TIP3   OH266891   0.614   4.312   2.206 -0.3528  0.4622 -0.2394
15159TIP3    H166892   0.643   4.338   2.119  0.2941 -0.7478 -0.4067
15159TIP3    H266893   0.647   4.223   2.217  2.3505  1.6210  2.4559
15160TIP3   OH266894   1.335   6.289  10.522  0.2346 -0.6299  0.3098
15160TIP3    H166895   1.401   6.329  10.578 -0.1421 -1.6291  1.5117
15160TIP3    H266896   1.384   6.239  10.457  0.7478  2.2644 -1.7040
15161TIP3   OH266897   0.064   6.623   1.868  0.2821 -0.5906 -0.3700
15161TIP3    H166898   0.004   6.633   1.794  0.1544  0.7368 -0.1111
15161TIP3    H266899   0.150   6.617   1.827  0.3413  1.3099 -0.6381
15162TIP3   OH266900   3.325   5.105  14.110  0.3327  0.5472  0.3488
15162TIP3    H166901   3.344   5.197  14.128 -0.1719  0.8927 -0.7784
15162TIP3    H266902   3.401   5.058  14.143  1.9165  1.6231 -1.5663
15163TIP3   OH266903   3.773   6.191  13.321  0.0940 -0.2984  0.7140
15163TIP3    H166904   3.697   6.208  13.266 -0.8300 -1.0759  1.7108
15163TIP3    H266905   3.784   6.271  13.372  0.0271 -0.1386  0.4807
15164TIP3   OH266906   0.016   4.776  15.425  0.0925  0.2497  0.2443
15164TIP3    H166907  -0.014   4.697  15.380 -0.1032 -0.3386  1.3607
15164TIP3    H266908   0.110   4.763  15.438  0.4323  1.0600 -1.2172
15165TIP3   OH266909   1.941   0.704   5.816 -0.6073 -0.3810  0.4222
15165TIP3    H166910   1.911   0.780   5.864  0.2860 -0.1334  0.6141
15165TIP3    H266911   2.021   0.677   5.861  0.6597  0.2875 -1.3123
15166TIP3   OH266912   6.119   3.505  11.709  0.1469  0.2642 -0.0288
15166TIP3    H166913   6.075   3.425  11.736 -1.5347  0.6491 -1.4440
15166TIP3    H266914   6.137   3.492  11.616 -1.1702  1.9092 -0.5770
15167TIP3   OH266915   6.018   6.611   5.124 -0.2502 -0.0286  0.8225
15167TIP3    H166916   6.095   6.587   5.072 -0.9293 -2.0865  0.6725
15167TIP3    H266917   5.959   6.653   5.061  0.7147  1.6452  0.9540
15168TIP3   OH266918   4.555   0.534   4.900  0.2199  0.1193  0.3291
15168TIP3    H166919   4.528   0.462   4.842 -1.2626  1.6459 -0.9862
15168TIP3    H266920   4.545   0.498   4.988 -3.4731 -0.4560 -0.1624
15169TIP3   OH266921   1.055   6.516   1.823 -0.0884 -0.8761  0.0973
15169TIP3    H166922   1.024   6.529   1.733  0.7919 -1.4003 -0.3044
15169TIP3    H266923   0.985   6.468   1.866 -1.0665  0.4906  0.0719
15170TIP3   OH266924   5.394   3.321   6.542 -0.3181 -0.1438 -0.6290
15170TIP3    H166925   5.449   3.265   6.597 -0.0245 -2.1689 -2.7977
15170TIP3    H266926   5.454   3.358   6.477 -1.1032 -0.5550 -1.6307
15171TIP3   OH266927   3.919   0.529   0.691  0.7989  0.1372  0.4012
15171TIP3    H166928   3.980   0.598   0.664  0.5763 -0.2888 -1.2645
15171TIP3    H266929   3.971   0.472   0.748  1.4809  0.6979  0.3546
15172TIP3   OH266930   5.328   3.014   0.928  0.2811  0.2317  0.1021
15172TIP3    H166931   5.398   3.056   0.876 -0.5461  0.0589 -1.2074
15172TIP3    H266932   5.356   2.923   0.937  0.1164  0.0980 -0.6558
15173TIP3   OH266933   3.244   5.731   3.877  0.2243 -0.1309  0.3928
15173TIP3    H166934   3.150   5.736   3.859  0.2409 -0.5585  0.1588
15173TIP3    H266935   3.265   5.639   3.863  0.8776  0.1553 -0.5365
15174TIP3   OH266936   1.939   0.928  12.806  0.0835  0.2113  0.4295
15174TIP3    H166937   1.949   1.023  12.815 -1.2060  0.3398  0.6095
15174TIP3    H266938   1.960   0.911  12.714  2.6955  0.3095  0.9167
15175TIP3   OH266939   4.758   2.432   1.344  0.5493 -0.7242  0.0117
15175TIP3    H166940   4.728   2.432   1.254 -0.8677  2.2172  0.3455
15175TIP3    H266941   4.825   2.501   1.347 -0.9390  0.7619  1.5379
15176TIP3   OH266942   3.048   5.892   3.432 -0.5816 -0.8406 -0.1509
15176TIP3    H166943   3.067   5.984   3.449  0.4417 -0.7693 -1.4413
15176TIP3    H266944   3.011   5.859   3.514  0.2243  0.4056  0.7558
15177TIP3   OH266945   2.529   1.226  16.342 -0.7112 -0.2159  0.2514
15177TIP3    H166946   2.575   1.300  16.380 -0.6971 -0.4021  0.6008
15177TIP3    H266947   2.597   1.162  16.324 -0.5939  0.2302 -0.9555
15178TIP3   OH266948   5.633   4.591  12.449 -0.2731  0.3617  0.4013
15178TIP3    H166949   5.563   4.596  12.514 -0.9542 -3.5724  0.2499
15178TIP3    H266950   5.590   4.558  12.370  1.6599 -2.6865  0.4504
15179TIP3   OH266951   1.780   2.622  17.272  0.0380 -0.0351 -0.2434
15179TIP3    H166952   1.745   2.630  17.361 -0.5941 -0.2715 -0.4634
15179TIP3    H266953   1.857   2.679  17.271 -0.6551  0.9393  0.1011
15180TIP3   OH266954   5.688   1.801  15.674  0.4555 -0.0546 -0.4999
15180TIP3    H166955   5.679   1.716  15.630 -0.8464 -0.7566  1.0393
15180TIP3    H266956   5.772   1.834  15.642  0.0787 -0.9686 -2.6828
15181TIP3   OH266957   1.446   2.132   2.304  0.0310 -0.3053 -0.2313
15181TIP3    H166958   1.366   2.084   2.281 -1.1559  1.6819 -0.4583
15181TIP3    H266959   1.479   2.165   2.221  1.2953 -1.3625 -0.1733
15182TIP3   OH266960   0.131   6.390   1.637  0.4238 -0.0010 -0.3660
15182TIP3    H166961   0.193   6.381   1.564  0.4838  0.6900 -0.4109
15182TIP3    H266962   0.047   6.407   1.594  0.3495 -0.1883 -0.2909
15183TIP3   OH266963   0.527   5.477   0.338 -0.1436 -0.0618  0.0613
15183TIP3    H166964   0.521   5.535   0.414 -0.9090  0.8663 -0.6853
15183TIP3    H266965   0.532   5.389   0.375  1.4218  0.4703  1.2403
15184TIP3   OH266966   2.288   2.361   0.299 -0.4226 -0.3140  0.2440
15184TIP3    H166967   2.200   2.351   0.262 -0.6822 -1.7618  1.2039
15184TIP3    H266968   2.344   2.378   0.223 -1.5781  1.1729 -0.3346
15185TIP3   OH266969   1.705   5.666  13.399  0.3524 -0.0982 -0.4327
15185TIP3    H166970   1.666   5.753  13.400  0.0562 -0.2304 -0.0881
15185TIP3    H266971   1.642   5.612  13.352 -0.0011 -0.3633  0.3313
15186TIP3   OH266972   1.092   2.769   1.614 -0.1593 -0.3753  0.3397
15186TIP3    H166973   1.013   2.733   1.654 -0.0779 -1.2957 -0.3099
15186TIP3    H266974   1.075   2.766   1.520  1.0985 -1.6972  0.1246
15187TIP3   OH266975   4.154   2.421   1.469 -0.0400  0.1795 -0.0480
15187TIP3    H166976   4.212   2.435   1.544 -0.4225  2.3414 -0.0768
15187TIP3    H266977   4.190   2.479   1.401 -2.2764  1.7621  0.0044
15188TIP3   OH266978   1.913   0.564  15.738 -0.3517 -0.5668 -0.4290
15188TIP3    H166979   1.913   0.479  15.693  0.5258 -1.6098  1.4138
15188TIP3    H266980   1.914   0.629  15.667  2.1125 -2.0989 -1.9334
15189TIP3   OH266981   3.603   3.555  14.683 -0.4422  0.1698 -0.5214
15189TIP3    H166982   3.590   3.568  14.589 -1.5689 -0.8584 -0.5391
15189TIP3    H266983   3.563   3.632  14.723 -0.5576  0.2944 -0.8691
15190TIP3   OH266984   5.195   4.627   4.965  0.1300  0.2959  0.2006
15190TIP3    H166985   5.104   4.656   4.970  0.0054 -0.2101  0.9734
15190TIP3    H266986   5.204   4.592   4.876 -0.2644  0.8575 -0.0699
15191TIP3   OH266987   5.020   3.510   6.098  0.3610 -0.0889  0.3114
15191TIP3    H166988   5.088   3.450   6.129  0.2294 -0.5874 -0.3601
15191TIP3    H266989   5.059   3.597   6.107  1.3212 -0.4043 -0.6217
15192TIP3   OH266990   0.763   1.571   3.270  0.3063 -0.2141 -0.5085
15192TIP3    H166991   0.795   1.646   3.219 -2.6317  0.5002 -1.4785
15192TIP3    H266992   0.720   1.611   3.346  2.3324 -1.1811  1.2675
15193TIP3   OH266993   1.347   1.990  12.942 -0.1558  0.3904  0.1463
15193TIP3    H166994   1.340   1.978  13.037 -1.6839  1.1926  0.1669
15193TIP3    H266995   1.271   1.944  12.907  1.2939 -1.3710 -0.8846
15194TIP3   OH266996   6.751   0.021   3.272 -0.2296  0.1987 -0.1615
15194TIP3    H166997   6.773   0.113   3.255  1.3767 -0.1859 -0.2932
15194TIP3    H266998   6.705  -0.007   3.192  1.0960  0.3440 -1.0088
15195TIP3   OH266999   2.822   4.601   0.989 -0.3334  0.1929  0.1167
15195TIP3    H167000   2.786   4.574   1.074 -1.7702 -0.0239 -0.5201
15195TIP3    H267001   2.791   4.534   0.928  0.3122  0.5801 -0.6563
15196TIP3   OH267002   6.250   5.357   0.411 -0.1641 -0.0868  0.2633
15196TIP3    H167003   6.320   5.306   0.369  1.1323  0.3378  1.7670
15196TIP3    H267004   6.197   5.291   0.456 -0.5985 -0.3893 -0.6655
15197TIP3   OH267005   0.079   0.102  10.700  0.3074 -0.2369 -0.2849
15197TIP3    H167006   0.066   0.020  10.748  0.7696  0.0632  0.3660
15197TIP3    H267007   0.158   0.140  10.739  0.1600  0.4635 -0.6637
15198TIP3   OH267008   1.625   6.359  14.655 -0.2980  0.5169 -0.2099
15198TIP3    H167009   1.692   6.381  14.720 -0.0674  1.6785 -0.8184
15198TIP3    H267010   1.598   6.270  14.678  0.6412  0.4552  0.7326
15199TIP3   OH267011   3.348   0.128  14.313  0.0439  0.0955  0.3010
15199TIP3    H167012   3.411   0.056  14.315 -0.9360 -0.9709 -2.6545
15199TIP3    H267013   3.263   0.086  14.328 -0.3084  1.0123  0.9299
15200TIP3   OH267014   3.934   5.978  12.282 -0.5723 -0.2627 -0.1605
15200TIP3    H167015   4.014   6.031  12.282 -0.4738 -0.3800  0.9594
15200TIP3    H267016   3.898   5.988  12.194 -0.4075  1.4435 -0.0724
15201TIP3   OH267017   5.944   6.190   2.110 -0.4365 -0.0516  0.2387
15201TIP3    H167018   5.857   6.204   2.075  0.1321  0.9068 -0.8701
15201TIP3    H267019   5.964   6.099   2.089 -0.7024  0.0742 -0.5957
15202TIP3   OH267020   3.954   3.668  11.829 -0.4996 -0.4807 -0.3883
15202TIP3    H167021   4.010   3.663  11.752  2.6163 -2.0493  1.7273
15202TIP3    H267022   4.002   3.618  11.896 -3.0045  0.7451  2.5522
15203TIP3   OH267023   1.924   3.752   5.672  0.1214 -0.0388 -0.5588
15203TIP3    H167024   1.846   3.731   5.723  2.5519 -1.5176  2.9271
15203TIP3    H267025   1.927   3.684   5.605 -0.4614 -1.2995  0.6361
15204TIP3   OH267026   4.202   1.400   5.430  0.1496  0.3500 -0.3465
15204TIP3    H167027   4.244   1.400   5.344 -1.2769 -0.1077 -1.0763
15204TIP3    H267028   4.274   1.388   5.492  1.0754 -0.6055 -1.5548
15205TIP3   OH267029   4.039   4.314   1.049  0.0011  0.0082 -0.1425
15205TIP3    H167030   4.024   4.364   0.969 -1.3394  0.4468  0.3564
15205TIP3    H267031   4.133   4.292   1.047  0.5019  1.9938 -0.6909
15206TIP3   OH267032   2.418   6.300  11.240 -0.1564 -0.1713  0.3517
15206TIP3    H167033   2.324   6.315  11.243 -0.8278 -3.0635 -1.5161
15206TIP3    H267034   2.452   6.367  11.181 -1.5042 -0.5641 -0.9340
15207TIP3   OH267035   0.046   3.471  15.036 -0.0836  0.1649  0.3939
15207TIP3    H167036  -0.021   3.455  15.102  1.6838 -0.9867  1.9973
15207TIP3    H267037   0.074   3.561  15.051 -0.0791  0.0856  0.8616
15208TIP3   OH267038   1.760   1.716  15.797 -0.0161 -0.8871 -0.3166
15208TIP3    H167039   1.727   1.791  15.847  0.6792 -0.4325 -0.5305
15208TIP3    H267040   1.745   1.740  15.706  2.1907 -0.0112 -0.5072
15209TIP3   OH267041   1.101   4.235   1.755 -0.2069 -0.5647 -0.1809
15209TIP3    H167042   1.177   4.183   1.728 -0.6178 -1.9062  1.0418
15209TIP3    H267043   1.027   4.174   1.747 -0.7606 -0.0702  0.9774
15210TIP3   OH267044   2.203   3.575  14.795 -0.1167  0.0641  0.7094
15210TIP3    H167045   2.132   3.609  14.741 -0.1663 -1.2648 -0.0892
15210TIP3    H267046   2.282   3.616  14.759 -0.4504  1.7757  1.7848
15211TIP3   OH267047   6.037   5.056   3.419  0.2516 -0.0461 -0.6386
15211TIP3    H167048   5.970   5.120   3.397 -0.7366 -0.8601 -0.0952
15211TIP3    H267049   6.061   5.017   3.335  0.3137  0.5027 -0.8787
15212TIP3   OH267050   2.709   2.295   4.995  0.1200  0.2199 -0.0994
15212TIP3    H167051   2.657   2.271   5.071  0.9184 -0.7902  0.1451
15212TIP3    H267052   2.790   2.246   5.004  0.9511  1.4238 -0.7003
15213TIP3   OH267053   4.905   6.241  14.835 -0.1925  0.2741  0.1771
15213TIP3    H167054   4.877   6.189  14.760 -2.5524  2.4578 -0.6385
15213TIP3    H267055   5.000   6.249  14.826 -0.3961  0.4217 -2.6136
15214TIP3   OH267056   0.397   0.647   1.151  0.1724 -0.1139 -0.1493
15214TIP3    H167057   0.359   0.624   1.236 -0.8602  0.7181 -0.3621
15214TIP3    H267058   0.460   0.577   1.134 -2.0874 -2.2684 -0.3160
15215TIP3   OH267059   2.478   2.072  15.071 -0.3602  0.4420  0.3980
15215TIP3    H167060   2.419   2.002  15.042 -1.6972  1.9465 -0.7602
15215TIP3    H267061   2.541   2.082  15.000  0.6649 -0.4224  1.1485
15216TIP3   OH267062   1.690   1.522   1.636  0.0296  0.7546 -0.0766
15216TIP3    H167063   1.624   1.455   1.618 -1.0285  1.6506  0.3286
15216TIP3    H267064   1.729   1.541   1.550  0.1679 -0.1893 -0.2298
15217TIP3   OH267065   6.320   0.360  12.476  0.6382  0.3702 -0.0696
15217TIP3    H167066   6.290   0.438  12.428  0.8516  0.4443 -0.0838
15217TIP3    H267067   6.240   0.325  12.515  0.8678  2.0140  2.0400
15218TIP3   OH267068   2.287   1.975  13.585 -0.3838 -0.0494  0.6554
15218TIP3    H167069   2.273   2.030  13.508  0.5257 -0.1044  0.4360
15218TIP3    H267070   2.377   1.995  13.612 -0.7860  0.1749  1.8689
15219TIP3   OH267071   5.056   5.791   1.640 -0.0431 -0.3616  0.5673
15219TIP3    H167072   5.118   5.727   1.674 -1.1245 -2.2563 -0.8092
15219TIP3    H267073   4.985   5.792   1.705  0.0512 -0.4617  0.6733
15220TIP3   OH267074   6.255   1.960   4.609  0.2687  0.1371  0.3956
15220TIP3    H167075   6.291   1.888   4.661  0.5805  0.4062  0.5582
15220TIP3    H267076   6.169   1.977   4.647 -0.0906 -0.5856 -0.0666
15221TIP3   OH267077   1.988   1.293  16.466  0.2430  0.2722  0.3986
15221TIP3    H167078   1.940   1.350  16.406 -0.6932 -0.0140  0.8644
15221TIP3    H267079   2.011   1.216  16.413  0.7854  0.7053 -0.0060
15222TIP3   OH267080   5.739   1.300  14.702  0.3189  0.5556  0.0019
15222TIP3    H167081   5.782   1.249  14.770  0.0401 -0.6613 -0.6947
15222TIP3    H267082   5.646   1.298  14.724  0.2802  0.5626 -0.1550
15223TIP3   OH267083   6.126   5.536   2.259  0.3105  0.3001 -0.1485
15223TIP3    H167084   6.144   5.623   2.295  3.1347 -0.3437  0.2422
15223TIP3    H267085   6.201   5.483   2.287 -1.3262 -2.2739 -0.3803
15224TIP3   OH267086   2.155   0.300  12.006  0.1263 -0.0400  0.4070
15224TIP3    H167087   2.160   0.350  12.087 -0.1353 -0.6121  0.7856
15224TIP3    H267088   2.062   0.282  11.994  0.2452 -0.7730  0.4996
15225TIP3   OH267089   2.710   4.731   1.422 -0.0424 -0.3234 -0.1112
15225TIP3    H167090   2.767   4.805   1.441  0.3224 -0.2419 -1.4274
15225TIP3    H267091   2.770   4.663   1.390 -0.6898 -0.0174 -2.1476
15226TIP3   OH267092   6.676   1.115   0.888 -0.3520  0.1479  0.1708
15226TIP3    H167093   6.739   1.095   0.819 -0.1135  1.7163 -0.1180
15226TIP3    H267094   6.653   1.031   0.926  0.7659 -0.5865 -0.7370
15227TIP3   OH267095   6.533   0.481   2.482 -0.1808 -0.1511  0.1611
15227TIP3    H167096   6.525   0.387   2.498  0.3603 -0.0807  0.9469
15227TIP3    H267097   6.562   0.516   2.567 -0.1987  0.6934 -0.1800
15228TIP3   OH267098   5.068   4.466  17.018 -0.0464 -0.0810 -0.2806
15228TIP3    H167099   5.151   4.420  17.013 -0.4095 -1.1106  1.8150
15228TIP3    H267100   5.031   4.439  17.103 -1.0622  2.7676  0.2902
15229TIP3   OH267101   2.955   4.468   1.604 -0.0483  0.1471 -0.2617
15229TIP3    H167102   2.884   4.405   1.595 -0.0032  0.1014 -0.3016
15229TIP3    H267103   2.948   4.501   1.693 -0.1413  0.1679 -0.2776
15230TIP3   OH267104   4.739   2.953  16.705 -0.4632  0.5020  0.0705
15230TIP3    H167105   4.670   3.020  16.705 -0.1800  0.8369  2.0864
15230TIP3    H267106   4.807   2.990  16.649 -1.1397  0.9859 -0.4585
15231TIP3   OH267107   5.207   1.308   2.473 -0.1610  0.6196  0.5799
15231TIP3    H167108   5.144   1.379   2.473 -0.9968 -0.1021  1.4157
15231TIP3    H267109   5.274   1.334   2.536  0.7624  1.6812 -0.7789
15232TIP3   OH267110   1.179   4.647   2.695  0.0723  0.8911  0.1617
15232TIP3    H167111   1.200   4.698   2.617  1.1200 -1.0163 -0.8873
15232TIP3    H267112   1.265   4.627   2.734 -0.0404 -2.3076 -1.0086
15233TIP3   OH267113   5.266   6.573  16.023 -0.4355  0.3995  0.2788
15233TIP3    H167114   5.268   6.479  16.008 -0.0291  0.3794  0.4498
15233TIP3    H267115   5.214   6.608  15.951 -0.2273  0.0916 -0.0199
15234TIP3   OH267116   6.177   4.712   2.762 -0.1623 -0.4691 -0.0289
15234TIP3    H167117   6.130   4.775   2.708 -0.0597 -0.6212 -0.3006
15234TIP3    H267118   6.126   4.631   2.755 -0.5072 -0.3144  0.6334
15235TIP3   OH267119   2.175   6.296  11.956  0.8743 -0.4496  0.2268
15235TIP3    H167120   2.222   6.378  11.936  1.4537 -0.7804  0.2272
15235TIP3    H267121   2.092   6.306  11.910  1.0129  0.0640  0.0700
15236TIP3   OH267122   2.213   1.505  11.600  0.8661 -0.3732  0.1018
15236TIP3    H167123   2.173   1.421  11.623  0.2705  0.1499  1.0601
15236TIP3    H267124   2.304   1.484  11.577  0.2203 -1.5178 -1.6120
15237TIP3   OH267125   3.977   0.747  14.879 -0.8323  0.8077 -0.4836
15237TIP3    H167126   4.021   0.720  14.960  1.2645  0.6784 -1.6072
15237TIP3    H267127   3.912   0.678  14.863  1.6603 -1.5720 -1.1214
15238TIP3   OH267128   6.128   2.241   0.728  0.4015  0.0539 -0.0356
15238TIP3    H167129   6.154   2.313   0.670  0.8429 -0.6261 -0.6941
15238TIP3    H267130   6.132   2.163   0.673  0.1346 -0.5065  0.7284
15239TIP3   OH267131   4.547   5.758  10.841  0.2878 -0.0528  0.2595
15239TIP3    H167132   4.490   5.724  10.910 -0.6578  0.7764 -0.0857
15239TIP3    H267133   4.549   5.853  10.855 -1.2226  0.3497 -1.7643
15240TIP3   OH267134   0.402   2.157   5.160  0.3996  0.4973  0.2293
15240TIP3    H167135   0.421   2.239   5.114 -0.0589  0.3018 -0.3263
15240TIP3    H267136   0.327   2.120   5.113  0.4844 -0.1510  0.5894
15241TIP3   OH267137   5.252   4.677  13.736 -0.0108  0.5759 -0.5850
15241TIP3    H167138   5.215   4.590  13.720  0.1306  0.4528 -0.2540
15241TIP3    H267139   5.188   4.738  13.699 -1.2802  0.4371  1.2408
15242TIP3   OH267140   5.762   2.809   0.380  0.8526  0.5445  0.2386
15242TIP3    H167141   5.816   2.772   0.450 -0.6036  2.2116  2.3932
15242TIP3    H267142   5.784   2.902   0.380 -1.4252  1.1500  0.7356
15243TIP3   OH267143   4.918   2.455   0.209  0.3246 -0.2018  0.2308
15243TIP3    H167144   4.942   2.507   0.285 -0.6052  0.3235  0.1706
15243TIP3    H267145   4.849   2.397   0.240  0.5134 -0.5648 -0.0138
15244TIP3   OH267146   5.256   5.566   2.777 -0.5603 -0.1119  0.5624
15244TIP3    H167147   5.334   5.607   2.739  0.5502 -1.6193  1.1093
15244TIP3    H267148   5.183   5.619   2.746  0.5944  0.7331 -0.8160
15245TIP3   OH267149   0.118   6.211  11.461  0.1502  0.3901 -0.1464
15245TIP3    H167150   0.140   6.258  11.381 -2.0675 -0.5102 -1.3837
15245TIP3    H267151   0.110   6.279  11.528  2.1068  1.1478 -0.6306
15246TIP3   OH267152   2.909   1.933  12.031  0.0939 -0.1465  0.2069
15246TIP3    H167153   2.971   1.898  12.095  0.7573  1.8064  0.6844
15246TIP3    H267154   2.872   2.011  12.074  0.8288  1.4362 -1.9021
15247TIP3   OH267155   5.452   2.436   3.664 -0.3995  0.5072 -0.3982
15247TIP3    H167156   5.436   2.403   3.576  3.7779 -0.6293 -0.9317
15247TIP3    H267157   5.475   2.528   3.652  3.1466 -0.3316 -1.0889
15248TIP3   OH267158   6.011   5.175   4.545 -0.2726 -0.3286 -0.1594
15248TIP3    H167159   6.032   5.144   4.633  0.3860 -1.2291 -0.6180
15248TIP3    H267160   5.917   5.155   4.534 -0.3609 -0.1917  0.3373
15249TIP3   OH267161   4.954   3.294   3.008  0.0286  0.6287 -0.1096
15249TIP3    H167162   5.011   3.228   2.971 -0.3265  1.3061 -1.9804
15249TIP3    H267163   5.003   3.376   2.999 -0.1547  0.8519  0.7764
15250TIP3   OH267164   3.206   4.444   1.477 -0.2865  0.2418 -0.4632
15250TIP3    H167165   3.232   4.352   1.469  0.6374  0.2251  1.8295
15250TIP3    H267166   3.121   4.441   1.521  0.2177  0.4737  0.5569
15251TIP3   OH267167   5.027   1.268   3.514 -0.2873 -0.2281  0.0242
15251TIP3    H167168   4.946   1.313   3.487  0.5415  1.4511  0.2046
15251TIP3    H267169   5.097   1.329   3.491  0.7743 -0.6835  1.8833
15252TIP3   OH267170   2.232   1.359  15.195 -0.2414  0.0160  0.4507
15252TIP3    H167171   2.295   1.400  15.136  0.2425 -0.2124  0.8019
15252TIP3    H267172   2.230   1.267  15.168 -1.0065  0.1734 -0.0606
15253TIP3   OH267173   0.201   1.442  14.966  0.2639  0.4852  0.3193
15253TIP3    H167174   0.122   1.405  14.927  1.0240 -0.8430 -0.0349
15253TIP3    H267175   0.224   1.380  15.036  1.2316  0.5957  0.1148
15254TIP3   OH267176   1.227   4.545  12.846  0.0313 -0.1768  0.0678
15254TIP3    H167177   1.218   4.555  12.751  0.9472 -1.3184 -0.1633
15254TIP3    H267178   1.305   4.491  12.857 -1.2924 -1.9776  1.3487
15255TIP3   OH267179   5.007   0.720   2.897  0.1954  0.1580  0.1220
15255TIP3    H167180   5.099   0.741   2.916  0.2707 -0.3429  0.3314
15255TIP3    H267181   4.972   0.800   2.858  1.1149 -0.1190 -1.3665
15256TIP3   OH267182   2.275   2.128  10.816  0.4684  0.1669 -0.0302
15256TIP3    H167183   2.213   2.057  10.795 -0.4926  0.8736  0.3211
15256TIP3    H267184   2.241   2.203  10.768  0.9245  0.6312  0.3697
15257TIP3   OH267185   3.494   2.747   2.703  0.1992 -0.4688  1.2339
15257TIP3    H167186   3.568   2.686   2.709  1.7746  0.8319 -2.2993
15257TIP3    H267187   3.417   2.690   2.692  1.4103 -1.9246 -0.2845
15258TIP3   OH267188   2.729   6.632  11.999 -0.0222  0.3469 -0.0214
15258TIP3    H167189   2.813   6.587  12.010  0.6351  1.8575  1.5120
15258TIP3    H267190   2.675   6.600  12.071 -0.4953  0.0215 -0.5098
15259TIP3   OH267191   2.280   0.681   5.491  0.6004 -0.1842 -0.0906
15259TIP3    H167192   2.222   0.752   5.462  0.0706 -0.0770  1.1705
15259TIP3    H267193   2.242   0.602   5.453  0.9716  0.1452 -1.1822
15260TIP3   OH267194   5.546   2.199   4.205  0.4995  0.5610 -0.0786
15260TIP3    H167195   5.566   2.279   4.252  3.4693  0.9317 -1.7479
15260TIP3    H267196   5.536   2.226   4.114  1.5649 -0.9277 -0.6762
15261TIP3   OH267197   6.430   1.471   5.930  0.0810 -0.1966 -0.0059
15261TIP3    H167198   6.484   1.506   5.860 -2.2631  2.2309 -0.7824
15261TIP3    H267199   6.361   1.536   5.943 -1.5983 -2.1809  2.1874
15262TIP3   OH267200   6.332   4.110   1.429  0.2188  0.3491 -0.8765
15262TIP3    H167201   6.236   4.109   1.429  0.1621  1.6438  1.2597
15262TIP3    H267202   6.356   4.037   1.372 -2.0363 -1.3621  0.2185
15263TIP3   OH267203   5.138   4.304  14.919  0.2718  0.0564 -0.1527
15263TIP3    H167204   5.125   4.379  14.861 -0.6633  0.0923  0.0948
15263TIP3    H267205   5.154   4.343  15.005  3.6130  0.0834 -0.6493
15264TIP3   OH267206   4.226   5.403  10.799 -0.1502 -0.1407  0.1781
15264TIP3    H167207   4.157   5.469  10.798 -0.0541  0.0663 -3.0397
15264TIP3    H267208   4.187   5.326  10.760  1.5293  0.2520 -2.5634
15265TIP3   OH267209   0.077   5.590  12.588 -0.2049  0.0168  0.1122
15265TIP3    H167210   0.014   5.658  12.607 -1.1314 -0.1538 -2.0720
15265TIP3    H267211   0.084   5.540  12.669 -2.2103  0.5653  0.6721
15266TIP3   OH267212   5.504   0.511  14.336 -0.3469 -0.1099  0.1018
15266TIP3    H167213   5.569   0.441  14.325 -0.4666 -0.1305 -0.4891
15266TIP3    H267214   5.495   0.520  14.431  0.7202  0.0793  0.1990
15267TIP3   OH267215   6.591   1.767  15.200  0.5826 -0.8327  0.1609
15267TIP3    H167216   6.538   1.689  15.219 -0.6248  0.3860  2.1056
15267TIP3    H267217   6.529   1.834  15.175  1.4109  0.0529  0.4127
15268TIP3   OH267218   6.638   1.288  16.975 -0.2557 -0.3630  0.0920
15268TIP3    H167219   6.690   1.354  17.020 -1.2961 -0.5516  1.6366
15268TIP3    H267220   6.568   1.337  16.932  0.3902 -0.2404 -0.8341
15269TIP3   OH267221   1.418   1.439  15.209  0.3192  0.2399  0.5844
15269TIP3    H167222   1.445   1.348  15.194  2.1680  0.8293  0.0368
15269TIP3    H267223   1.488   1.477  15.261  0.1716  1.6676 -0.1956
15270TIP3   OH267224   1.704   1.866  11.255  0.3947  0.4140 -0.2552
15270TIP3    H167225   1.704   1.962  11.262  1.2704  0.4062  0.0280
15270TIP3    H267226   1.776   1.839  11.312  0.7542 -0.3586 -1.0692
15271TIP3   OH267227   3.734   1.287   5.038 -0.3534 -0.2832  0.3565
15271TIP3    H167228   3.774   1.269   4.953  0.5982  2.1241  0.1875
15271TIP3    H267229   3.807   1.317   5.092 -0.7788 -2.5501  2.3604
15272TIP3   OH267230   3.835   0.102   2.405 -0.7679 -0.1113  0.3840
15272TIP3    H167231   3.756   0.128   2.357  0.3882 -0.6360 -1.9599
15272TIP3    H267232   3.844   0.008   2.387 -0.0314 -0.2241  1.2828
15273TIP3   OH267233   2.239   4.602  17.008  0.0866 -0.1743  0.4099
15273TIP3    H167234   2.225   4.637  17.096 -1.3692 -1.3197  0.6648
15273TIP3    H267235   2.227   4.508  17.017  1.3703 -0.4784 -0.7513
15274TIP3   OH267236   4.565   5.496   4.341  0.1182 -0.0956 -0.3458
15274TIP3    H167237   4.475   5.500   4.373  0.9486  2.0393  1.9972
15274TIP3    H267238   4.606   5.424   4.391 -0.5770 -2.1749 -2.5617
15275TIP3   OH267239   1.243   0.289   4.572  0.4938  0.0990  0.0237
15275TIP3    H167240   1.295   0.241   4.507  0.9147 -0.6919  0.9314
15275TIP3    H267241   1.164   0.236   4.583 -0.7219  1.4624 -1.5970
15276TIP3   OH267242   5.784   5.132   1.554  0.5947  0.1209 -0.3163
15276TIP3    H167243   5.716   5.154   1.618 -1.0017 -1.1180 -1.4866
15276TIP3    H267244   5.735   5.099   1.478  2.5218 -0.8430 -1.2055
15277TIP3   OH267245   1.424   3.611   1.734  0.2967  0.2315  0.2299
15277TIP3    H167246   1.481   3.626   1.810 -0.0008 -0.6649  0.6502
15277TIP3    H267247   1.341   3.581   1.772  0.1884 -0.3538 -0.4498
15278TIP3   OH267248   6.266   6.458   5.940 -0.4631  0.5042 -0.2398
15278TIP3    H167249   6.309   6.376   5.965 -0.2556  0.2951 -1.2418
15278TIP3    H267250   6.265   6.510   6.021  2.0670  0.6952 -0.2469
15279TIP3   OH267251   1.166   3.572   5.901 -0.8049 -0.1505  0.0964
15279TIP3    H167252   1.144   3.630   5.828 -0.1296  0.8412  0.6535
15279TIP3    H267253   1.154   3.627   5.979 -0.4879 -0.8692  0.6650
15280TIP3   OH267254   2.788   6.583   0.449  0.4425  0.3283  0.1974
15280TIP3    H167255   2.857   6.647   0.465 -0.0564  1.2531 -1.1018
15280TIP3    H267256   2.740   6.577   0.532 -0.4935  2.9207 -0.0548
15281TIP3   OH267257   2.232   3.368  12.474 -0.5386 -0.0113 -0.1125
15281TIP3    H167258   2.315   3.323  12.460 -0.4163  0.3909 -0.6891
15281TIP3    H267259   2.186   3.312  12.537  0.3471 -0.0054  0.5667
15282TIP3   OH267260   6.663   6.741   3.003  0.5596 -0.3782 -0.1319
15282TIP3    H167261   6.727   6.686   2.958 -1.1918 -0.9534 -2.0634
15282TIP3    H267262   6.680   6.830   2.972 -0.0063 -0.6330 -1.2031
15283TIP3   OH267263   3.549   3.833   0.676 -0.0540 -0.3629 -0.0344
15283TIP3    H167264   3.604   3.824   0.599  0.1118  1.9454 -0.2533
15283TIP3    H267265   3.481   3.895   0.650 -0.7030 -0.4844  1.3008
15284TIP3   OH267266   0.514   5.563  14.363  0.1308 -0.0718  0.2210
15284TIP3    H167267   0.492   5.656  14.358 -0.0372 -0.1583 -0.7268
15284TIP3    H267268   0.610   5.561  14.366  0.1429  0.1212 -0.0072
15285TIP3   OH267269   5.758   3.165   1.031  0.4844 -0.0904  0.4488
15285TIP3    H167270   5.664   3.147   1.035 -0.2171  3.0692  0.6433
15285TIP3    H267271   5.799   3.083   1.058 -2.2644 -1.0819  2.0098
15286TIP3   OH267272   0.446   3.322   3.091  0.7218 -0.9713  0.4203
15286TIP3    H167273   0.453   3.390   3.158  2.4792 -1.7335  1.0604
15286TIP3    H267274   0.513   3.258   3.114  1.0918 -1.4793 -1.8036
15287TIP3   OH267275   3.201   1.914   2.899  0.3167 -0.3937 -0.0108
15287TIP3    H167276   3.231   1.957   2.819  0.5104  0.4380  0.5020
15287TIP3    H267277   3.106   1.915   2.893  0.3098  0.5301  0.2162
15288TIP3   OH267278   4.257   0.736  14.116 -0.0545 -0.3563 -0.1059
15288TIP3    H167279   4.233   0.788  14.193  2.0592  0.5359  0.0126
15288TIP3    H267280   4.302   0.797  14.058 -0.4622 -1.3139 -1.4909
15289TIP3   OH267281   2.244   3.350   4.970  0.1377  0.0967 -0.0979
15289TIP3    H167282   2.336   3.358   4.945  0.5220  0.8298  1.4220
15289TIP3    H267283   2.241   3.276   5.030 -0.3170 -0.0911 -0.3480
15290TIP3   OH267284   5.120   4.857  16.458 -0.0729 -0.0776 -0.2505
15290TIP3    H167285   5.146   4.772  16.493 -1.0811 -0.4069 -0.2852
15290TIP3    H267286   5.086   4.838  16.370 -0.2899  0.3614 -0.2639
15291TIP3   OH267287   6.662   5.863  12.203  0.1102 -0.0665  0.3161
15291TIP3    H167288   6.670   5.773  12.233 -3.7014 -1.0035 -0.9255
15291TIP3    H267289   6.677   5.859  12.109 -2.4625  0.0526 -0.1552
15292TIP3   OH267290   0.475   0.103   5.948 -0.3883  0.2902 -0.1819
15292TIP3    H167291   0.512   0.022   5.912 -0.2004  0.1225  0.3779
15292TIP3    H267292   0.498   0.101   6.041  0.0791  1.2452 -0.2644
15293TIP3   OH267293   5.158   4.836   4.337  0.4853 -0.0552  0.1222
15293TIP3    H167294   5.149   4.930   4.323  0.3585 -0.0865 -0.0061
15293TIP3    H267295   5.110   4.819   4.418 -2.0381 -0.4677 -1.3431
15294TIP3   OH267296   2.088   5.263   3.934  0.1331  0.2448  0.1781
15294TIP3    H167297   2.060   5.176   3.963  1.3451 -0.2169  0.0297
15294TIP3    H267298   2.007   5.308   3.911 -0.5163 -0.8612  0.2240
15295TIP3   OH267299   3.047   6.088  15.393 -0.0363 -0.4180 -0.3002
15295TIP3    H167300   3.047   6.011  15.336 -0.4892 -1.2887  0.8381
15295TIP3    H267301   3.093   6.060  15.472 -0.9701  0.1804  0.4851
15296TIP3   OH267302   4.984   6.720   3.108  0.0657  0.6921 -0.4632
15296TIP3    H167303   4.936   6.661   3.166 -0.5302 -0.7973 -2.3819
15296TIP3    H267304   5.031   6.662   3.048  2.7924  2.1210  0.0864
15297TIP3   OH267305   0.534   5.389  13.468  0.3970  0.3871 -0.3728
15297TIP3    H167306   0.459   5.401  13.527 -0.4211 -1.2515 -1.0219
15297TIP3    H267307   0.610   5.391  13.526 -0.3696 -1.0686  0.7618
15298TIP3   OH267308   1.723   3.826   6.074 -0.3312  0.2098 -0.1578
15298TIP3    H167309   1.721   3.770   6.151 -0.6862 -0.4547 -0.6420
15298TIP3    H267310   1.657   3.894   6.092 -1.8660 -1.0611 -0.6826
15299TIP3   OH267311   4.645   6.293   1.745  0.9916  0.0447 -0.3171
15299TIP3    H167312   4.709   6.224   1.764  1.1333 -0.1787 -1.4906
15299TIP3    H267313   4.698   6.365   1.710  0.9982  1.2613  2.0346
15300TIP3   OH267314   4.745   0.059  11.712 -0.7045 -0.4470  0.1639
15300TIP3    H167315   4.692   0.039  11.789 -0.4580 -0.6856  0.2734
15300TIP3    H267316   4.764   0.153  11.721 -0.1777 -0.5966  0.7146
15301TIP3   OH267317   5.120   6.535  17.208  0.1675 -0.2684  0.7249
15301TIP3    H167318   5.110   6.447  17.243 -0.3971  0.0391  1.3644
15301TIP3    H267319   5.144   6.522  17.117 -3.0522 -1.1053 -0.1170
15302TIP3   OH267320   5.542   6.722  11.890 -0.2748 -0.4171 -0.1999
15302TIP3    H167321   5.584   6.732  11.805 -1.3747 -0.0232 -0.7061
15302TIP3    H267322   5.613   6.696  11.949  0.9939  1.6159 -0.7177
15303TIP3   OH267323   5.135   6.574   3.405  0.3429 -0.7786 -0.1155
15303TIP3    H167324   5.113   6.665   3.383  1.5852  0.1727  2.2896
15303TIP3    H267325   5.218   6.558   3.360 -0.9040 -1.5481 -2.3190
15304TIP3   OH267326   4.036   1.034   4.947 -0.2052 -0.1917 -0.0060
15304TIP3    H167327   4.117   0.982   4.946  0.2158  0.3604  1.5528
15304TIP3    H267328   4.057   1.110   5.002 -2.2111 -0.7695  1.6907
15305TIP3   OH267329   2.499   1.605  17.146  0.0953 -0.3080 -0.6967
15305TIP3    H167330   2.455   1.568  17.222 -0.8439 -0.1291 -1.1322
15305TIP3    H267331   2.454   1.566  17.071 -1.0994  1.8290 -1.1766
15306TIP3   OH267332   5.787   4.025  16.609  0.5361  0.1515 -1.1558
15306TIP3    H167333   5.876   4.054  16.627  0.7237  0.4993 -2.4902
15306TIP3    H267334   5.735   4.105  16.613  0.1245 -0.1750  0.4423
15307TIP3   OH267335   4.446   1.876   0.537 -0.6162 -0.3449  0.1201
15307TIP3    H167336   4.360   1.891   0.498 -0.6107 -0.9595 -0.1486
15307TIP3    H267337   4.439   1.911   0.626 -1.1609 -0.4285  0.1143
15308TIP3   OH267338   2.594   3.435  16.386  0.3480  0.2372 -0.2039
15308TIP3    H167339   2.565   3.508  16.441  1.3449  0.7836 -0.3868
15308TIP3    H267340   2.677   3.407  16.424 -0.0553 -0.8780 -0.0908
15309TIP3   OH267341   4.916   1.289  16.511  0.9562  0.4030  0.5023
15309TIP3    H167342   4.853   1.351  16.545  1.6040  0.2734  1.9925
15309TIP3    H267343   4.882   1.203  16.537  0.6226  0.1722 -0.6156
15310TIP3   OH267344   2.202   4.552  14.975 -0.2017 -0.1615  0.0398
15310TIP3    H167345   2.251   4.631  14.952 -0.3598  0.4858  1.7850
15310TIP3    H267346   2.238   4.524  15.059 -0.1796 -1.9487 -0.5185
15311TIP3   OH267347   4.343   1.792   5.631  0.5461  0.6168 -0.4636
15311TIP3    H167348   4.349   1.884   5.604  1.9133  0.4660 -0.7195
15311TIP3    H267349   4.346   1.794   5.726  0.5748  0.8284 -0.4683
15312TIP3   OH267350   5.632   1.978   0.719 -0.0381  0.3776  0.0091
15312TIP3    H167351   5.619   1.988   0.813  0.2735 -0.7156  0.1755
15312TIP3    H267352   5.567   2.037   0.679 -0.1373  0.8842  0.8943
15313TIP3   OH267353   5.431   1.781  16.406 -0.2496  0.3668 -0.2906
15313TIP3    H167354   5.454   1.706  16.461 -2.0303 -0.1246 -0.1579
15313TIP3    H267355   5.410   1.742  16.320  0.0727  0.8619 -0.5989
15314TIP3   OH267356   5.051   0.293  14.952  0.0032 -0.0851 -0.1523
15314TIP3    H167357   4.984   0.255  14.896 -0.7457 -0.1535  0.7585
15314TIP3    H267358   5.133   0.253  14.923 -0.6911 -2.0206  0.4394
15315TIP3   OH267359   3.256   2.343  14.727  0.0589 -0.1885  0.3770
15315TIP3    H167360   3.339   2.371  14.767  0.1254 -0.9154  0.7660
15315TIP3    H267361   3.198   2.418  14.737  0.0707 -0.3586  1.8789
15316TIP3   OH267362   0.661   5.668   0.816  0.2686  0.2178 -0.4018
15316TIP3    H167363   0.627   5.736   0.758  2.3703  0.0847 -1.8817
15316TIP3    H267364   0.731   5.627   0.767 -0.8435 -3.0365  0.4562
15317TIP3   OH267365   3.401   4.483  15.401  0.9164  0.0160 -0.0032
15317TIP3    H167366   3.344   4.555  15.374  0.0140  0.1157  2.0218
15317TIP3    H267367   3.464   4.474  15.329 -2.4888 -1.1033 -3.1824
15318TIP3   OH267368   1.971   4.302   4.882 -0.7713  0.3535  0.0777
15318TIP3    H167369   1.995   4.333   4.795  1.4840  2.1022  1.2207
15318TIP3    H267370   2.045   4.248   4.910 -1.2830  0.1420  1.0841
15319TIP3   OH267371   2.550   4.881   6.298 -0.1405 -0.3527 -0.0732
15319TIP3    H167372   2.535   4.966   6.256  0.2559 -0.3035 -0.1212
15319TIP3    H267373   2.597   4.830   6.232  2.4505  0.4471  1.0400
15320TIP3   OH267374   4.099   6.431  13.351 -0.4109  0.4575  0.7734
15320TIP3    H167375   4.155   6.471  13.285 -0.2059  0.3641  0.8901
15320TIP3    H267376   4.026   6.492  13.361 -1.8579 -0.7511 -1.4566
15321TIP3   OH267377   6.082   2.885  11.883  0.8042 -0.0426  0.1120
15321TIP3    H167378   6.160   2.881  11.828  2.0970 -0.3537  1.8847
15321TIP3    H267379   6.009   2.886  11.822  2.1776 -0.2844 -1.5873
15322TIP3   OH267380   4.397   1.051   5.459  0.2087  0.4655  0.2349
15322TIP3    H167381   4.366   0.995   5.530  1.2809  0.7555  0.9622
15322TIP3    H267382   4.331   1.120   5.453  0.3454  0.7101  1.3007
15323TIP3   OH267383   0.310   3.265   6.007  0.4359 -0.3214 -0.8765
15323TIP3    H167384   0.321   3.359   5.995  0.6778 -0.0037  1.3108
15323TIP3    H267385   0.246   3.257   6.079  1.7946 -1.7325  0.2615
15324TIP3   OH267386   6.549   3.950   0.604 -0.1289  0.4146  0.3095
15324TIP3    H167387   6.608   4.014   0.644 -0.7262  0.7487  0.6875
15324TIP3    H267388   6.585   3.934   0.517  0.5499  0.5600  0.5618
15325TIP3   OH267389   5.152   2.723   2.669  0.1882 -0.2937  0.3527
15325TIP3    H167390   5.075   2.669   2.683 -0.3849  0.1477 -0.9427
15325TIP3    H267391   5.194   2.685   2.592 -0.4197  1.2670 -0.8139
15326TIP3   OH267392   2.718   2.887  16.306 -0.3599 -0.2449  0.5173
15326TIP3    H167393   2.642   2.892  16.248 -0.1560 -2.1415  0.0118
15326TIP3    H267394   2.791   2.917  16.252 -0.4993 -0.0249  0.4518
15327TIP3   OH267395   0.501   0.819  14.534 -0.0885  0.1462  0.4351
15327TIP3    H167396   0.503   0.794  14.626 -0.7203  1.3483  0.7981
15327TIP3    H267397   0.531   0.910  14.533  1.2678 -0.2550 -0.7259
15328TIP3   OH267398   1.583   5.203  10.640 -0.0942  0.3176 -0.7050
15328TIP3    H167399   1.521   5.138  10.607 -0.8851  1.7168 -2.0240
15328TIP3    H267400   1.642   5.152  10.696  0.0389 -1.7794 -2.6127
15329TIP3   OH267401   3.208   4.411   3.603 -0.0743 -0.0001 -0.6372
15329TIP3    H167402   3.291   4.446   3.570 -0.7688  1.1452 -1.2301
15329TIP3    H267403   3.149   4.413   3.528 -0.2779 -2.1320 -0.6020
15330TIP3   OH267404   2.086   0.362  15.662 -0.3695  0.4331 -0.5762
15330TIP3    H167405   2.164   0.354  15.608 -0.3704  0.5148 -0.5901
15330TIP3    H267406   2.115   0.411  15.739 -0.6462  1.4174 -1.0774
15331TIP3   OH267407   6.511   3.373  11.795 -0.6442  0.2158 -0.2464
15331TIP3    H167408   6.583   3.411  11.846 -0.5592 -0.5342  0.1991
15331TIP3    H267409   6.438   3.369  11.857 -1.7689  2.9237 -1.2255
15332TIP3   OH267410   3.256   5.646   3.452  0.1677 -0.0834  0.8994
15332TIP3    H167411   3.333   5.593   3.432 -0.1216 -1.6433  3.3844
15332TIP3    H267412   3.289   5.712   3.513 -0.1596  0.2378  0.7232
15333TIP3   OH267413   2.840   2.648  12.613  0.4992  0.2242 -0.8008
15333TIP3    H167414   2.758   2.614  12.650 -0.5537  2.0501 -1.3148
15333TIP3    H267415   2.883   2.572  12.576 -0.8150 -0.8436 -0.2198
15334TIP3   OH267416   6.330   3.388  11.267 -0.1966  0.2589 -0.5804
15334TIP3    H167417   6.288   3.414  11.184 -0.8530  0.5878 -0.1529
15334TIP3    H267418   6.290   3.446  11.332 -0.3361 -0.6019  0.1056
15335TIP3   OH267419   5.395   4.830   2.843  0.1795 -0.5809 -0.0563
15335TIP3    H167420   5.470   4.829   2.902 -0.9216  0.7383  1.4399
15335TIP3    H267421   5.349   4.748   2.862  0.6972 -0.9148 -0.2434
15336TIP3   OH267422   1.636   6.510  13.530  0.8236 -0.2250  0.0595
15336TIP3    H167423   1.598   6.581  13.582  0.0085 -1.0821  0.6869
15336TIP3    H267424   1.580   6.504  13.453  0.6915 -0.3901  0.1667
15337TIP3   OH267425   5.815   1.236   1.751 -0.2947 -0.1532 -0.1208
15337TIP3    H167426   5.875   1.245   1.825  1.4031  1.0958 -1.5304
15337TIP3    H267427   5.868   1.193   1.683 -1.9676 -1.7986 -0.4643
15338TIP3   OH267428   2.647   5.766  13.798  0.4124  0.4952 -0.3188
15338TIP3    H167429   2.563   5.771  13.845  0.4602  0.8067 -0.2713
15338TIP3    H267430   2.679   5.856  13.796  1.1175  0.2656  0.3281
15339TIP3   OH267431   2.152   1.496   2.760  0.1844  0.1875 -0.4849
15339TIP3    H167432   2.075   1.514   2.706 -0.4942  0.4659  0.5432
15339TIP3    H267433   2.209   1.572   2.747 -0.4717  0.7868  0.0343
15340TIP3   OH267434   0.286   0.259  12.592 -0.0281  0.2587 -0.0780
15340TIP3    H167435   0.262   0.174  12.627  0.0324  0.4532  0.4485
15340TIP3    H267436   0.367   0.282  12.637  0.3364  0.2807 -0.7370
15341TIP3   OH267437   3.551   2.785  17.105  0.5645  0.1916  0.9912
15341TIP3    H167438   3.550   2.733  17.024  0.8574 -1.3558  1.9374
15341TIP3    H267439   3.461   2.818  17.113  0.3440 -0.2442  0.4094
15342TIP3   OH267440   1.681   3.826  13.268  0.4667  0.3525  0.8006
15342TIP3    H167441   1.689   3.756  13.203 -1.4601 -1.9227  2.7752
15342TIP3    H267442   1.641   3.899  13.221 -0.2192 -0.9577 -0.7366
15343TIP3   OH267443   2.841   1.895   3.362 -0.1278  0.3970 -0.3514
15343TIP3    H167444   2.920   1.853   3.394 -0.8385  0.0147  0.9774
15343TIP3    H267445   2.787   1.823   3.329 -0.9692  0.3323  1.0982
15344TIP3   OH267446   0.284   3.769  14.442  0.3373 -0.0371 -0.0171
15344TIP3    H167447   0.215   3.809  14.495  0.0584  0.5594 -0.8091
15344TIP3    H267448   0.326   3.843  14.398 -0.8493 -0.6371 -2.3160
15345TIP3   OH267449   3.607   5.193  12.562 -0.1809  0.2168  0.0543
15345TIP3    H167450   3.629   5.221  12.474 -0.8120 -0.8920 -0.4780
15345TIP3    H267451   3.554   5.114  12.550 -0.0166 -0.1377  1.4259
15346TIP3   OH267452   3.778   2.749  12.373  0.8033 -0.3188 -0.0075
15346TIP3    H167453   3.803   2.813  12.440 -0.9311  1.8632 -1.2726
15346TIP3    H267454   3.830   2.774  12.296 -0.7101  0.3906 -0.8548
15347TIP3   OH267455   1.612   2.246   5.082 -0.5111 -0.2845  0.7647
15347TIP3    H167456   1.583   2.230   4.992 -0.4612  0.5473  0.6004
15347TIP3    H267457   1.658   2.330   5.078 -2.1743  0.7188  1.9344
15348TIP3   OH267458   3.225   3.554  15.652 -0.4346  0.3600  0.1449
15348TIP3    H167459   3.147   3.550  15.597 -1.1905 -0.7012  1.2347
15348TIP3    H267460   3.296   3.524  15.596 -1.2385 -1.0012 -0.2014
15349TIP3   OH267461   6.288   2.631  12.657 -0.0849 -0.1317  0.7738
15349TIP3    H167462   6.208   2.676  12.684 -0.8059 -0.2606 -0.9765
15349TIP3    H267463   6.259   2.543  12.635  0.0662  0.3791 -1.8423
15350TIP3   OH267464   4.146   3.481  13.229  0.3821  0.0919  0.1677
15350TIP3    H167465   4.203   3.405  13.232  1.5152  0.9114  0.2557
15350TIP3    H267466   4.059   3.448  13.253  0.8689 -1.1342  0.2942
15351TIP3   OH267467   0.755   6.321   6.971 -0.1180 -0.2457 -0.1391
15351TIP3    H167468   0.787   6.254   6.910 -2.4939 -0.7949 -0.8893
15351TIP3    H267469   0.822   6.390   6.968  1.2057 -1.5108 -1.1889
15352TIP3   OH267470   3.538   1.090  13.346  0.3121  0.0381 -0.0561
15352TIP3    H167471   3.585   1.109  13.265 -0.5930  1.2736 -0.3147
15352TIP3    H267472   3.487   1.169  13.364 -0.1100 -0.5032  1.3040
15353TIP3   OH267473   0.183   6.345  16.125  0.1049 -0.0047  0.2746
15353TIP3    H167474   0.244   6.366  16.055  1.8547 -1.1252  1.3824
15353TIP3    H267475   0.169   6.428  16.171  0.8176  0.2607  0.0150
15354TIP3   OH267476   0.338   2.734   1.609  0.0217  0.2379 -0.6461
15354TIP3    H167477   0.377   2.677   1.543  1.3457  2.2176 -1.6796
15354TIP3    H267478   0.271   2.680   1.652  1.9088 -2.3877 -0.7963
15355TIP3   OH267479   1.164   1.584   0.415  0.1350 -0.2590  0.1361
15355TIP3    H167480   1.225   1.657   0.403  0.8221 -0.9797 -0.9879
15355TIP3    H267481   1.204   1.530   0.484  0.2126 -0.1459  0.1794
15356TIP3   OH267482   2.156   5.493   1.153 -0.5198  0.2522 -0.0035
15356TIP3    H167483   2.167   5.587   1.164  2.6703  0.5961 -3.9776
15356TIP3    H267484   2.213   5.455   1.220  1.6598  1.3944 -1.1006
15357TIP3   OH267485   5.313   2.492   5.379  0.0260  0.0333 -0.3308
15357TIP3    H167486   5.407   2.478   5.363  0.0131 -0.0791 -0.3047
15357TIP3    H267487   5.270   2.433   5.317 -0.0274 -0.6541  0.3485
15358TIP3   OH267488   5.677   4.980  15.324  0.2803 -0.4892 -0.2631
15358TIP3    H167489   5.756   5.015  15.365 -1.0661  0.7927  1.4122
15358TIP3    H267490   5.709   4.922  15.255  2.6601 -0.2473  0.5458
15359TIP3   OH267491   2.316   4.307  16.706 -0.2358 -0.4591  0.5189
15359TIP3    H167492   2.300   4.400  16.720 -1.4875 -0.5824  0.0233
15359TIP3    H267493   2.358   4.302  16.621  2.3618 -0.1582  1.6943
15360TIP3   OH267494   1.982   0.522  10.895  0.2645 -0.0504  0.3283
15360TIP3    H167495   2.026   0.442  10.868 -0.2808 -0.0931 -0.4779
15360TIP3    H267496   1.920   0.494  10.962 -1.9003 -0.8471 -1.8161
15361TIP3   OH267497   2.820   5.810   0.990 -0.4118 -0.0381  0.5752
15361TIP3    H167498   2.775   5.893   1.010  0.6468  0.7711 -0.2516
15361TIP3    H267499   2.771   5.744   1.039 -2.8252  0.6991 -0.6738
15362TIP3   OH267500   5.726   1.658   1.003  0.4431  0.0023  0.5423
15362TIP3    H167501   5.722   1.714   1.080  1.4762  1.5520 -0.4684
15362TIP3    H267502   5.804   1.687   0.956  0.0258 -1.1205 -0.9252
15363TIP3   OH267503   4.148   2.357  14.652  0.2726 -0.3285 -0.1280
15363TIP3    H167504   4.170   2.355  14.559  1.2449 -0.1000  0.0880
15363TIP3    H267505   4.224   2.319  14.696 -0.9551 -2.2508  0.4659
15364TIP3   OH267506   4.490   3.788  14.780 -0.2870  0.8015 -0.0863
15364TIP3    H167507   4.539   3.715  14.818  0.3201  1.7509  1.0144
15364TIP3    H267508   4.535   3.866  14.812 -1.4739  1.6764 -0.4912
15365TIP3   OH267509   2.390   3.813   0.144  0.3483  0.3839  0.1307
15365TIP3    H167510   2.295   3.817   0.132  0.2526  1.3508  1.0383
15365TIP3    H267511   2.419   3.746   0.083 -0.9459 -0.0685 -0.0217
15366TIP3   OH267512   5.423   1.731  12.229 -0.1898 -0.4224  0.1104
15366TIP3    H167513   5.483   1.740  12.303  0.3540  0.1274 -0.3730
15366TIP3    H267514   5.352   1.676  12.261 -0.0850  0.0054  1.1088
15367TIP3   OH267515   0.669   1.519  12.403  0.5297 -0.2693  0.0770
15367TIP3    H167516   0.708   1.433  12.419 -0.2837 -0.8291 -0.7692
15367TIP3    H267517   0.665   1.525  12.307  1.4389  1.1338  0.0994
15368TIP3   OH267518   0.891   6.285   0.558 -0.5100 -0.3964 -0.6932
15368TIP3    H167519   0.948   6.299   0.483 -1.4778  0.7445 -1.2560
15368TIP3    H267520   0.942   6.231   0.618  0.7015 -0.3805 -1.6802
15369TIP3   OH267521   3.029   2.521  10.756 -0.0288 -0.5778  0.5733
15369TIP3    H167522   3.072   2.438  10.775  0.4117 -0.3743  0.4805
15369TIP3    H267523   3.101   2.583  10.745 -0.3797  0.2120  2.3709
15370TIP3   OH267524   6.164   1.542  14.852 -0.1335  0.2056 -0.3083
15370TIP3    H167525   6.210   1.464  14.821  0.7722  0.2957  0.7454
15370TIP3    H267526   6.140   1.589  14.772 -1.1527 -1.3778 -0.9908
15371TIP3   OH267527   5.857   4.097   1.463 -0.1979  0.4037 -0.2000
15371TIP3    H167528   5.886   4.086   1.372 -1.2106  1.5893 -0.6994
15371TIP3    H267529   5.835   4.008   1.492 -0.5470  0.0906 -1.3597
15372TIP3   OH267530   3.687   5.798   2.832  0.6630  0.2336 -0.4955
15372TIP3    H167531   3.646   5.729   2.883 -1.2912  1.3349 -0.4476
15372TIP3    H267532   3.670   5.774   2.741  1.2379 -0.0729 -0.5201
15373TIP3   OH267533   2.552   0.902   1.767 -0.2328 -0.5662 -0.6549
15373TIP3    H167534   2.581   0.977   1.819  1.8366  0.4660 -3.1108
15373TIP3    H267535   2.465   0.882   1.801  0.5841  0.6423  2.4610
15374TIP3   OH267536   4.922   4.690   4.982 -0.1609  0.5731 -0.2344
15374TIP3    H167537   4.830   4.682   5.006 -0.6468  0.8880 -1.8450
15374TIP3    H267538   4.922   4.748   4.906  1.0435 -1.4638 -1.9163
15375TIP3   OH267539   1.134   2.694   5.551 -0.0220  0.5455  0.5392
15375TIP3    H167540   1.089   2.778   5.563 -1.2506  0.2903 -1.6293
15375TIP3    H267541   1.198   2.712   5.482  0.1809 -0.1391  0.5495
15376TIP3   OH267542   0.581   0.783   2.856  0.1562  0.2587  0.4759
15376TIP3    H167543   0.491   0.754   2.866  0.1597  0.3496  0.7687
15376TIP3    H267544   0.619   0.721   2.794  0.5914 -1.3300  2.2326
15377TIP3   OH267545   0.637   4.907   0.942  0.7054 -0.2895  0.2636
15377TIP3    H167546   0.732   4.904   0.932  0.9505 -0.5744  2.2348
15377TIP3    H267547   0.622   4.971   1.011 -0.6140  0.2677 -0.4984
15378TIP3   OH267548   0.172   5.628  12.079  0.4190  0.2629 -0.6403
15378TIP3    H167549   0.106   5.696  12.067 -0.1220 -0.3583 -1.2799
15378TIP3    H267550   0.235   5.667  12.140 -0.0957  1.1738 -0.6618
15379TIP3   OH267551   2.412   0.708  16.738 -0.3815  0.4713 -0.4051
15379TIP3    H167552   2.340   0.673  16.791  0.2524 -1.3482 -0.6646
15379TIP3    H267553   2.471   0.633  16.726  1.4480  1.8504 -0.3979
15380TIP3   OH267554   0.823   1.230  13.332  0.0521 -0.7345  0.1569
15380TIP3    H167555   0.787   1.150  13.295 -1.5444 -0.5503  1.2215
15380TIP3    H267556   0.749   1.272  13.377  1.2117  0.5288  0.9848
15381TIP3   OH267557   4.746   1.852  14.160 -0.0044  0.2119 -0.3019
15381TIP3    H167558   4.810   1.798  14.205  0.4518  1.3305  0.4313
15381TIP3    H267559   4.795   1.892  14.088 -0.4624 -0.7070 -1.1564
15382TIP3   OH267560   3.283   4.242  12.340 -0.4216 -0.0624  0.1437
15382TIP3    H167561   3.346   4.226  12.411  0.5244  0.0980 -0.6350
15382TIP3    H267562   3.243   4.157  12.324 -1.5266  0.1292  1.6547
15383TIP3   OH267563   2.567   2.162  15.304 -0.1854 -0.4228  0.0663
15383TIP3    H167564   2.644   2.217  15.291 -0.2237 -0.0886  1.2085
15383TIP3    H267565   2.535   2.146  15.215  2.4629 -2.4524 -0.6774
15384TIP3   OH267566   4.752   4.870  13.033 -0.2336 -0.2039 -0.1923
15384TIP3    H167567   4.811   4.922  13.087 -0.0254 -1.4762  0.8578
15384TIP3    H267568   4.810   4.821  12.974 -0.1022 -2.0492  1.3653
15385TIP3   OH267569   1.293   5.723   0.596  0.1425 -0.1358 -0.5245
15385TIP3    H167570   1.382   5.715   0.561  0.6039 -0.1269  0.6050
15385TIP3    H267571   1.306   5.743   0.688 -1.0333  1.5463 -0.6908
15386TIP3   OH267572   4.430   0.326  13.441 -0.5647 -0.1562 -0.3299
15386TIP3    H167573   4.445   0.353  13.350 -0.0374  0.6096 -0.0236
15386TIP3    H267574   4.479   0.244  13.449  0.4544  0.4357 -0.3820
15387TIP3   OH267575   5.143   5.180   2.198  0.2887 -0.1314  0.1408
15387TIP3    H167576   5.152   5.226   2.282 -0.2147  0.2272  0.0053
15387TIP3    H267577   5.051   5.194   2.174  0.1632 -1.1181  0.0376
15388TIP3   OH267578   0.323   1.202   1.146 -0.4521 -0.0361  0.4673
15388TIP3    H167579   0.241   1.170   1.108 -1.3262  1.1422  1.3055
15388TIP3    H267580   0.360   1.126   1.192 -1.1598 -0.5236  0.2362
15389TIP3   OH267581   6.091   0.965  12.770 -0.3804  0.5256  0.4970
15389TIP3    H167582   6.143   0.920  12.703 -0.4493  0.6218  0.3793
15389TIP3    H267583   6.071   0.897  12.834 -1.0568  0.2324 -0.0204
15390TIP3   OH267584   5.689   1.934   1.148 -0.1350 -0.1994  0.4972
15390TIP3    H167585   5.764   1.983   1.113  0.3993 -0.4103  1.3038
15390TIP3    H267586   5.620   1.946   1.083  1.2238 -1.7560 -1.3458
15391TIP3   OH267587   2.542   6.253   1.898 -0.1579 -0.7495 -0.0556
15391TIP3    H167588   2.558   6.237   1.805 -1.5111 -0.8701 -0.2842
15391TIP3    H267589   2.451   6.284   1.901  0.1572  0.1066  1.1307
15392TIP3   OH267590   2.516   1.811   2.384 -0.2963  0.4535 -0.1586
15392TIP3    H167591   2.461   1.889   2.377 -1.2117 -0.3281 -3.1379
15392TIP3    H267592   2.606   1.845   2.391 -0.8482  1.7269  1.1743
15393TIP3   OH267593   1.212   5.772  14.032 -0.0961 -0.2156  0.0883
15393TIP3    H167594   1.291   5.736  14.073 -0.6214 -1.0006  0.4490
15393TIP3    H267595   1.145   5.707  14.050 -1.1586  1.0810  1.0028
15394TIP3   OH267596   1.425   4.367   0.503 -0.1747  0.0532  0.2921
15394TIP3    H167597   1.486   4.313   0.454  0.9527  1.3123  0.2609
15394TIP3    H267598   1.344   4.315   0.506 -0.2165 -0.1894 -2.6392
15395TIP3   OH267599   3.750   1.459  15.176  0.4746 -0.2179  0.8666
15395TIP3    H167600   3.759   1.364  15.180  1.6903 -0.1545  0.1925
15395TIP3    H267601   3.697   1.476  15.099  2.8845 -0.2854 -0.9398
15396TIP3   OH267602   6.169   0.688   4.040  0.6498 -0.1054  0.4048
15396TIP3    H167603   6.181   0.746   4.115  1.6948  0.1838  0.0310
15396TIP3    H267604   6.149   0.603   4.078 -0.7843  0.4533  0.9646
15397TIP3   OH267605   5.947   6.635   2.340 -0.0641  0.0285  0.4513
15397TIP3    H167606   5.997   6.658   2.418  1.3079 -0.5974 -0.2167
15397TIP3    H267607   5.957   6.540   2.332  1.2722  0.2696 -1.4222
15398TIP3   OH267608   5.318   6.282   0.888 -0.0756 -0.1677 -0.1132
15398TIP3    H167609   5.300   6.358   0.833 -0.0340  1.0321  1.4588
15398TIP3    H267610   5.329   6.209   0.827  1.1000  1.3260 -1.7513
15399TIP3   OH267611   5.485   0.922   0.106 -0.5578 -0.6067  0.5090
15399TIP3    H167612   5.410   0.970   0.069 -0.4212 -0.1276  0.8491
15399TIP3    H267613   5.507   0.971   0.186  0.4527 -0.4400  0.1319
15400TIP3   OH267614   2.045   6.454   1.502  0.3688 -0.5003 -0.2146
15400TIP3    H167615   2.034   6.478   1.410  2.1879 -0.1937 -0.3843
15400TIP3    H267616   1.998   6.371   1.510 -0.0821 -0.3767 -1.3323
15401TIP3   OH267617   2.863   3.460   1.734  0.0222  0.4422  0.0368
15401TIP3    H167618   2.940   3.504   1.771  1.3570 -2.6768  1.3006
15401TIP3    H267619   2.795   3.471   1.800  1.4074 -2.2199  2.0994
15402TIP3   OH267620   3.968   6.640  12.176 -0.4855  0.0997  0.3925
15402TIP3    H167621   4.003   6.727  12.155 -0.9531  0.5434  1.3595
15402TIP3    H267622   4.001   6.583  12.107  2.8712  0.2886  1.6656
15403TIP3   OH267623   5.218   1.769  14.191 -0.1464  0.0845  0.3383
15403TIP3    H167624   5.250   1.859  14.186  1.8128 -0.4666  1.9085
15403TIP3    H267625   5.123   1.777  14.178  0.1668  2.1474 -1.2245
15404TIP3   OH267626   2.305   3.743  16.928 -0.5141 -0.0505 -0.2977
15404TIP3    H167627   2.246   3.798  16.876  1.9435  0.7294 -2.4821
15404TIP3    H267628   2.327   3.670  16.870  0.7007 -0.2929  0.4289
15405TIP3   OH267629   5.740   4.876  14.394  0.2358 -0.1815 -0.0262
15405TIP3    H167630   5.662   4.917  14.356  0.5580 -0.9211 -1.6032
15405TIP3    H267631   5.712   4.788  14.418 -0.0549  0.3875  1.8879
15406TIP3   OH267632   2.677   5.340  14.735  0.3042  0.0448 -0.5635
15406TIP3    H167633   2.708   5.426  14.705 -3.1876  1.7846  0.3002
15406TIP3    H267634   2.737   5.317  14.806  0.3374  2.7097  0.4032
15407TIP3   OH267635   4.171   3.722   1.600  0.3345  0.1919 -0.5189
15407TIP3    H167636   4.186   3.797   1.658  0.4065  0.9480 -1.4882
15407TIP3    H267637   4.172   3.760   1.512 -3.5256 -0.2241 -0.9259
15408TIP3   OH267638   0.686   6.063  16.622 -0.3370  0.9334 -0.5341
15408TIP3    H167639   0.603   6.067  16.576 -0.1985  0.4074 -0.8376
15408TIP3    H267640   0.730   6.146  16.601 -0.2105  0.6370 -1.4688
15409TIP3   OH267641   0.148   5.184  16.006 -0.3111 -0.3768 -0.2876
15409TIP3    H167642   0.120   5.096  15.980 -0.4658  0.4426 -3.2975
15409TIP3    H267643   0.242   5.185  15.986 -0.1770 -0.0698  0.3585
15410TIP3   OH267644   2.734   1.088   5.648 -0.0917  0.1126 -0.0604
15410TIP3    H167645   2.712   1.087   5.741 -3.8742 -1.8414 -0.7939
15410TIP3    H267646   2.746   0.996   5.625 -1.6901  0.3014 -1.9352
15411TIP3   OH267647   1.978   0.849   0.730 -0.2716  0.4431  0.2162
15411TIP3    H167648   1.885   0.830   0.743 -0.3350 -0.9658 -1.7225
15411TIP3    H267649   2.017   0.764   0.709  1.3032  1.1288  0.2231
15412TIP3   OH267650   4.728   2.940   3.158 -0.0952 -0.3876 -0.2925
15412TIP3    H167651   4.813   2.948   3.113  0.0766 -0.8930 -0.0674
15412TIP3    H267652   4.727   3.013   3.220  1.0191 -1.4393  1.0529
15413TIP3   OH267653   6.485   5.600  14.526  0.4699 -0.0600  0.0649
15413TIP3    H167654   6.445   5.685  14.511  0.1484 -0.1319  0.5216
15413TIP3    H267655   6.412   5.540  14.537  0.6878 -0.4694 -0.6296
15414TIP3   OH267656   2.217   0.226   0.621  0.4403  0.0841  0.1665
15414TIP3    H167657   2.146   0.215   0.684  0.0155 -1.8078 -0.5716
15414TIP3    H267658   2.215   0.319   0.598 -1.2421  0.2290  0.8064
15415TIP3   OH267659   0.037   0.914   3.056 -0.0190 -0.1035  0.5441
15415TIP3    H167660   0.028   0.891   2.964  1.2906  0.8319  0.1453
15415TIP3    H267661   0.074   1.002   3.055  1.1717 -0.5386  1.9332
15416TIP3   OH267662   1.813   5.961   4.618  0.2391  0.4261  0.4292
15416TIP3    H167663   1.740   5.908   4.648 -0.3672  2.3925  2.7527
15416TIP3    H267664   1.889   5.903   4.626 -0.8286 -1.2359 -0.7743
15417TIP3   OH267665   0.744   1.152  11.737  0.4060 -0.3545  0.0486
15417TIP3    H167666   0.656   1.188  11.746  1.0135  0.8567  1.6218
15417TIP3    H267667   0.802   1.219  11.774  2.0503 -0.9163 -1.3725
15418TIP3   OH267668   6.484   2.970  12.418 -0.3132 -0.3592  0.0453
15418TIP3    H167669   6.434   3.016  12.486 -0.9146 -1.4420  0.3439
15418TIP3    H267670   6.429   2.897  12.392  0.3375 -0.5219 -0.9317
15419TIP3   OH267671   5.375   4.182  16.694  0.1854 -0.0042 -0.1828
15419TIP3    H167672   5.470   4.186  16.683  0.2291  1.9964  0.4886
15419TIP3    H267673   5.361   4.208  16.785 -0.9376 -2.0282  0.2857
15420TIP3   OH267674   1.277   1.363   4.019  0.4642  0.0304  0.4224
15420TIP3    H167675   1.199   1.314   4.044 -0.0776 -0.3091 -1.7505
15420TIP3    H267676   1.349   1.300   4.027 -0.1459 -1.0349 -1.7945
15421TIP3   OH267677   2.777   5.840   6.210 -0.2462 -0.5827  0.1747
15421TIP3    H167678   2.850   5.800   6.257 -1.5918 -0.9645  2.1167
15421TIP3    H267679   2.699   5.807   6.257 -1.5246  2.7135  0.6184
15422TIP3   OH267680   5.019   0.366  14.054 -0.0647 -0.2286  0.4523
15422TIP3    H167681   5.081   0.308  14.100  1.9463  0.8965 -0.7001
15422TIP3    H267682   5.039   0.352  13.961 -1.0533  0.7171  0.0894
15423TIP3   OH267683   3.587   3.161   5.566  0.0009  0.3086 -0.2947
15423TIP3    H167684   3.608   3.126   5.653  0.8492  0.0602 -0.5810
15423TIP3    H267685   3.495   3.184   5.571 -0.1181 -0.2690  0.4834
15424TIP3   OH267686   1.108   0.392  12.772 -0.5180 -0.0247 -0.1462
15424TIP3    H167687   1.069   0.407  12.858  0.1659 -1.7192  0.5040
15424TIP3    H267688   1.047   0.331  12.729 -0.7757  0.6905 -0.8221
15425TIP3   OH267689   5.536   2.489   4.894 -0.0351 -0.1089 -0.0589
15425TIP3    H167690   5.534   2.578   4.930 -1.2458  0.6161 -1.7992
15425TIP3    H267691   5.460   2.485   4.837  0.9048 -1.7394 -1.2587
15426TIP3   OH267692   0.732   1.150   5.014 -0.1719  0.0690 -0.3725
15426TIP3    H167693   0.821   1.157   5.047 -1.4487  3.8819  3.1264
15426TIP3    H267694   0.734   1.197   4.930  1.0055  0.9707  0.1288
15427TIP3   OH267695   3.425   2.307   1.859 -0.5631 -0.0430  0.3979
15427TIP3    H167696   3.490   2.265   1.916  0.4091  0.5567 -0.2368
15427TIP3    H267697   3.407   2.241   1.792  2.1647  0.9962 -1.5285
15428TIP3   OH267698   1.657   5.534   4.830 -0.1428 -0.5941  0.1983
15428TIP3    H167699   1.666   5.575   4.744 -0.2819  1.2298  1.0024
15428TIP3    H267700   1.656   5.440   4.812  0.1400 -0.2653 -1.7510
15429TIP3   OH267701   6.675   6.581   6.242 -0.5611 -0.3492  0.1097
15429TIP3    H167702   6.662   6.675   6.248  0.1463 -0.0641 -1.9615
15429TIP3    H267703   6.672   6.550   6.333 -2.8190  1.3500  0.6969
15430TIP3   OH267704   4.183   6.080  17.222 -0.1729  0.0703 -0.1800
15430TIP3    H167705   4.138   6.136  17.285 -1.6887 -0.0425 -1.1231
15430TIP3    H267706   4.158   5.991  17.247  0.6785 -0.0805  0.1490
15431TIP3   OH267707   1.505   0.660   3.448 -0.0806  0.3052 -0.2578
15431TIP3    H167708   1.502   0.653   3.352  0.4992  0.0506 -0.2646
15431TIP3    H267709   1.414   0.671   3.474 -0.2772  0.0567 -0.8185
15432TIP3   OH267710   1.448   5.457   3.817 -0.2375 -0.0081  0.1868
15432TIP3    H167711   1.490   5.540   3.795 -0.6805  0.1060 -0.2605
15432TIP3    H267712   1.377   5.449   3.752  0.9966 -1.6757 -1.0295
15433TIP3   OH267713   4.832   5.888  16.514 -0.4193  0.0815  0.2498
15433TIP3    H167714   4.890   5.934  16.575  0.4368 -1.4787  0.6606
15433TIP3    H267715   4.873   5.900  16.428 -0.7460  0.9102  0.2025
15434TIP3   OH267716   3.067   2.652  15.151  0.9253  0.0030  0.5865
15434TIP3    H167717   3.083   2.669  15.244 -1.0965  2.4042  0.6182
15434TIP3    H267718   3.052   2.558  15.146  2.0642 -0.3463  2.4944
15435TIP3   OH267719   2.544   1.388   2.646 -0.5177 -0.0280 -0.3297
15435TIP3    H167720   2.579   1.473   2.672 -0.4595  0.2354 -1.2212
15435TIP3    H267721   2.519   1.346   2.728  0.2993  0.4758  0.1961
15436TIP3   OH267722   3.362   1.826   6.325 -0.5907 -0.2735 -0.0692
15436TIP3    H167723   3.400   1.802   6.410 -0.3537  1.8895  0.4812
15436TIP3    H267724   3.409   1.904   6.298 -3.8866  2.0002  0.1887
15437TIP3   OH267725   2.774   3.208  11.150  0.1772  0.5288  0.6926
15437TIP3    H167726   2.680   3.227  11.152  0.3682  1.4956  0.6773
15437TIP3    H267727   2.811   3.256  11.224  0.5414 -0.6015  1.2757
15438TIP3   OH267728   5.341   1.649  10.665  0.0946 -0.1612  0.1487
15438TIP3    H167729   5.327   1.567  10.618 -0.8813  0.3561 -0.4909
15438TIP3    H267730   5.381   1.622  10.748 -1.2202 -1.3929  0.4313
15439TIP3   OH267731   6.696   2.243  11.484  0.0552  0.2454 -0.0684
15439TIP3    H167732   6.653   2.322  11.452  1.2117  0.8918 -0.0727
15439TIP3    H267733   6.767   2.227  11.422  1.8321  1.0651  1.6519
15440TIP3   OH267734   4.240   6.070   2.387  0.1925 -0.2179  0.3907
15440TIP3    H167735   4.178   6.008   2.349  1.2894 -1.2004  0.1297
15440TIP3    H267736   4.186   6.129   2.439 -0.9729 -0.9286  0.0349
15441TIP3   OH267737   5.922   0.795  16.596  0.4373  0.5557 -0.7667
15441TIP3    H167738   5.977   0.766  16.524  0.7479 -0.5557 -0.1138
15441TIP3    H267739   5.837   0.754  16.580 -0.0872  1.8461 -1.4900
15442TIP3   OH267740   6.333   5.014  12.359 -0.6067  0.5772  0.0639
15442TIP3    H167741   6.262   4.954  12.382 -0.5532  0.2927 -0.4827
15442TIP3    H267742   6.386   5.020  12.438 -0.4679 -0.3087  0.0534
15443TIP3   OH267743   1.891   4.741   4.878  0.2124 -0.1883 -0.1776
15443TIP3    H167744   1.852   4.748   4.965  1.5258 -0.4165  0.4597
15443TIP3    H267745   1.935   4.825   4.864 -0.6717  0.1612 -0.9894
15444TIP3   OH267746   2.953   2.944   5.336 -0.0995 -0.0374  0.2813
15444TIP3    H167747   2.959   2.849   5.342 -0.5317 -0.1310 -0.5502
15444TIP3    H267748   2.869   2.960   5.293 -0.2402  0.7361  0.8238
15445TIP3   OH267749   5.602   1.292   4.721  0.4301  0.0766 -0.1492
15445TIP3    H167750   5.685   1.244   4.727  0.8096  0.6047 -1.0089
15445TIP3    H267751   5.607   1.337   4.637 -1.2181 -0.7617 -0.7295
15446TIP3   OH267752   3.404   3.455   3.820 -0.0131 -0.2637  0.4647
15446TIP3    H167753   3.353   3.440   3.740 -1.2327  0.1702  1.1369
15446TIP3    H267754   3.338   3.470   3.888  0.9367 -1.8828  1.8390
15447TIP3   OH267755   4.331   5.373   4.818  0.8715 -0.0116 -0.6150
15447TIP3    H167756   4.395   5.313   4.780  0.8649 -0.2969 -0.1800
15447TIP3    H267757   4.368   5.396   4.904  0.6859  0.3009 -0.6185
15448TIP3   OH267758   1.608   2.827   3.615  0.2350  0.1948 -0.6371
15448TIP3    H167759   1.538   2.808   3.552  0.2995  0.1479 -0.6950
15448TIP3    H267760   1.674   2.872   3.563  0.4103 -0.0936 -0.6631
15449TIP3   OH267761   1.023   4.856  13.755  0.4690 -0.2569 -0.5393
15449TIP3    H167762   1.099   4.814  13.714 -0.5501 -2.6238 -0.1613
15449TIP3    H267763   0.951   4.796  13.737 -0.9870  1.1335  0.5011
15450TIP3   OH267764   1.103   3.339   0.394  0.5681 -0.0974 -0.4338
15450TIP3    H167765   1.181   3.299   0.432 -0.0988  0.0276  1.1542
15450TIP3    H267766   1.032   3.314   0.453 -0.4609  0.4864 -1.3758
15451TIP3   OH267767   4.987   4.826  17.242  0.1110 -0.2472 -0.1079
15451TIP3    H167768   5.030   4.900  17.286  0.0985  0.3648 -1.0936
15451TIP3    H267769   5.045   4.803  17.170 -0.1273 -0.8920 -0.1006
15452TIP3   OH267770   6.221   0.098  16.297  0.2981  0.0847 -0.4228
15452TIP3    H167771   6.251   0.132  16.381 -0.8784  1.3564 -0.4813
15452TIP3    H267772   6.139   0.145  16.280  0.2274 -0.5596 -2.0139
15453TIP3   OH267773   6.299   3.042   0.004  0.5116 -0.7337  0.2413
15453TIP3    H167774   6.319   3.077   0.091  0.7230 -0.5121  0.1049
15453TIP3    H267775   6.305   3.118  -0.054  3.1778 -1.3266 -0.4155
15454TIP3   OH267776   6.716   0.379   0.011 -0.4275 -0.0582  0.7236
15454TIP3    H167777   6.629   0.404   0.043 -0.7514 -1.3947  0.9468
15454TIP3    H267778   6.741   0.304   0.065 -0.6621 -1.9303 -1.6220
15455TIP3   OH267779   4.526   5.360   1.591  0.1165  0.3470  0.2650
15455TIP3    H167780   4.596   5.306   1.555 -0.0919  0.2444  0.0117
15455TIP3    H267781   4.569   5.442   1.616  0.0338  1.0067 -1.5879
15456TIP3   OH267782   0.797   3.968  12.227 -0.3085 -0.3254  0.6002
15456TIP3    H167783   0.789   3.977  12.322  0.4793  0.7959  0.5780
15456TIP3    H267784   0.712   3.996  12.193  0.5979  3.1926  0.8052
15457TIP3   OH267785   3.426   1.992   4.537 -0.4908  0.3782 -0.4131
15457TIP3    H167786   3.363   2.003   4.608 -1.9790 -0.1128 -1.6183
15457TIP3    H267787   3.456   2.081   4.517  0.4203  0.4787  1.1862
15458TIP3   OH267788   1.442   3.023   3.790  0.3983  0.1116 -0.2029
15458TIP3    H167789   1.485   2.946   3.753  0.8644 -1.5118  3.2597
15458TIP3    H267790   1.513   3.079   3.821  0.1058 -0.3717  1.4450
15459TIP3   OH267791   2.913   1.112   3.139 -0.6222  0.5242 -0.3553
15459TIP3    H167792   2.964   1.167   3.080  1.6431 -0.3788  0.6584
15459TIP3    H267793   2.953   1.125   3.225 -1.4400 -1.0254  0.3091
15460TIP3   OH267794   4.368   1.069  16.226 -0.2937 -0.0327 -0.1486
15460TIP3    H167795   4.355   1.081  16.132 -1.0530 -1.4201 -0.2490
15460TIP3    H267796   4.321   1.143  16.267  1.6774  1.7094 -0.8614
15461TIP3   OH267797   5.472   4.642   4.553 -0.0401 -0.2171  0.1848
15461TIP3    H167798   5.497   4.556   4.584  0.7243 -0.0732 -0.0150
15461TIP3    H267799   5.539   4.665   4.489 -1.1906 -0.2110 -1.0605
15462TIP3   OH267800   1.752   3.154  16.937 -0.7679  0.0476 -0.0326
15462TIP3    H167801   1.698   3.229  16.910 -1.0659 -0.4927 -1.0145
15462TIP3    H267802   1.689   3.089  16.967 -0.5978 -0.2223 -0.2516
15463TIP3   OH267803   5.114   0.956   4.416 -0.2763  0.4921 -0.3832
15463TIP3    H167804   5.168   0.912   4.351 -0.2261  0.0734 -0.0603
15463TIP3    H267805   5.056   0.888   4.450 -1.2436  0.9998 -0.9593
15464TIP3   OH267806   0.326   1.321  15.174 -0.4118 -0.0654 -0.3345
15464TIP3    H167807   0.394   1.254  15.181 -0.1993  0.3072  2.3131
15464TIP3    H267808   0.254   1.287  15.227 -1.4978  0.4562 -1.4459
15465TIP3   OH267809   4.693   6.444   0.887  0.4942 -0.1665  0.5001
15465TIP3    H167810   4.678   6.536   0.864  0.5658  0.4256  2.6793
15465TIP3    H267811   4.609   6.401   0.870  0.4999  0.2329 -0.6678
15466TIP3   OH267812   5.919   3.422   1.624  0.2984 -0.2000 -0.1585
15466TIP3    H167813   5.847   3.365   1.652 -2.2481  2.4681 -0.8497
15466TIP3    H267814   5.982   3.417   1.696 -1.8047 -0.6139  1.7663
15467TIP3   OH267815   6.688   2.025   0.411 -0.0254  0.0058 -0.3108
15467TIP3    H167816   6.762   2.068   0.368 -1.6579  2.6452 -0.7395
15467TIP3    H267817   6.664   1.954   0.352  0.2088  1.1408 -1.8487
15468TIP3   OH267818   0.590   1.178  16.298  0.2457 -0.4608  0.0849
15468TIP3    H167819   0.507   1.215  16.267 -0.3498 -1.9308 -0.1555
15468TIP3    H267820   0.654   1.204  16.232 -0.2054 -0.1183 -0.2283
15469TIP3   OH267821   1.244   0.609   1.250  0.2276 -0.3641  0.0892
15469TIP3    H167822   1.244   0.698   1.285 -0.9352 -1.0851  2.0936
15469TIP3    H267823   1.244   0.621   1.155  0.8650  1.7526  0.3036
15470TIP3   OH267824   3.253   2.966  16.326  0.9315 -0.0697  0.1478
15470TIP3    H167825   3.331   2.911  16.327  0.7017 -0.3974  1.3871
15470TIP3    H267826   3.232   2.977  16.233  2.5753  0.2084 -0.2210
15471TIP3   OH267827   6.044   4.628   0.078  0.1532 -0.0533  0.0662
15471TIP3    H167828   6.081   4.717   0.076 -0.6695  0.3027 -1.8601
15471TIP3    H267829   6.001   4.622   0.163 -1.0982  1.9888 -0.3552
15472TIP3   OH267830   2.730   2.502   2.844  0.1960  0.6125 -0.0279
15472TIP3    H167831   2.720   2.596   2.831  0.9897  0.7863  0.5859
15472TIP3    H267832   2.669   2.463   2.780 -1.4832  1.5524  0.9231
15473TIP3   OH267833   4.962   4.833   1.966 -0.0010 -0.2077 -0.0501
15473TIP3    H167834   4.881   4.816   1.917 -1.1646 -2.0393  2.2808
15473TIP3    H267835   4.961   4.927   1.981 -1.4079 -0.1049 -0.6031
15474TIP3   OH267836   5.478   0.439  10.832  0.0174 -0.0037  0.3489
15474TIP3    H167837   5.450   0.348  10.817  0.6226 -0.1247 -0.0925
15474TIP3    H267838   5.398   0.485  10.856 -1.0746  0.2128 -3.2272
15475TIP3   OH267839   2.361   6.315  13.179 -0.2272  1.0181 -0.7383
15475TIP3    H167840   2.322   6.313  13.266 -2.5244 -2.2258 -1.6501
15475TIP3    H267841   2.442   6.265  13.188  0.1962  1.7624 -0.2664
15476TIP3   OH267842   5.848   4.498   0.264  0.0573  0.4821 -0.2253
15476TIP3    H167843   5.781   4.546   0.313  0.9708  1.3871  0.1576
15476TIP3    H267844   5.876   4.429   0.323  1.0202  1.4560  0.4994
15477TIP3   OH267845   1.822   0.181  13.210  0.0101  0.1874 -0.6841
15477TIP3    H167846   1.742   0.168  13.261  0.7355  1.9413  1.0343
15477TIP3    H267847   1.797   0.160  13.121 -2.6026  1.3732 -0.3293
15478TIP3   OH267848   2.711   1.330   4.348 -0.2936 -0.2290  0.4240
15478TIP3    H167849   2.643   1.322   4.415 -0.0937 -0.2994  0.6212
15478TIP3    H267850   2.730   1.240   4.322 -0.6132 -0.1834  0.0230
15479TIP3   OH267851   2.868   3.615  13.973 -0.0105 -0.3604 -0.0602
15479TIP3    H167852   2.917   3.679  13.922 -0.5003  0.7442  0.8131
15479TIP3    H267853   2.826   3.666  14.042 -0.9747 -1.5245  0.2591
15480TIP3   OH267854   1.827   0.235   0.195 -0.4698 -0.1384 -0.6636
15480TIP3    H167855   1.881   0.311   0.175 -0.0837  0.2303  1.5146
15480TIP3    H267856   1.887   0.160   0.183 -0.1207  0.0976 -0.4108
15481TIP3   OH267857   6.113   2.195  12.297 -0.4945  0.0221 -0.1071
15481TIP3    H167858   6.054   2.122  12.278 -0.4754  0.1726 -0.7982
15481TIP3    H267859   6.201   2.160  12.281 -0.3222 -0.4079  1.5995
15482TIP3   OH267860   2.350   1.979  13.924  0.1017 -0.0461 -0.3236
15482TIP3    H167861   2.327   2.061  13.968 -1.0300 -0.7293  0.4196
15482TIP3    H267862   2.407   2.005  13.853  0.3827  1.3130  0.3653
15483TIP3   OH267863   4.704   2.258  12.389 -0.0255 -0.0075 -0.0144
15483TIP3    H167864   4.771   2.301  12.441 -1.1854 -1.4248  2.9205
15483TIP3    H267865   4.651   2.329  12.354  0.0165  1.0928  1.9773
15484TIP3   OH267866   1.881   2.009  15.345 -0.0394  0.0393 -0.1547
15484TIP3    H167867   1.888   1.974  15.256  2.2214 -0.5305  0.1912
15484TIP3    H267868   1.920   2.096  15.339  1.4559 -0.5464  0.5167
15485TIP3   OH267869   1.479   1.500  13.993 -0.0722  0.4177  0.0582
15485TIP3    H167870   1.442   1.569  13.938  2.7315  1.4243 -0.7430
15485TIP3    H267871   1.563   1.479  13.951  0.1002 -2.0063  1.4725
15486TIP3   OH267872   4.644   0.587   3.051  0.1927  0.1516  0.0626
15486TIP3    H167873   4.554   0.576   3.020  0.2563 -1.1718  0.2734
15486TIP3    H267874   4.698   0.579   2.972  0.1566  0.3671  0.0162
15487TIP3   OH267875   3.148   2.879   0.144 -0.1549  0.3122  0.0427
15487TIP3    H167876   3.174   2.871   0.053  1.4232 -0.6853  0.5314
15487TIP3    H267877   3.231   2.879   0.193 -1.0061 -1.5186  1.6146
15488TIP3   OH267878   1.368   3.832   3.998 -0.3365  0.1239 -0.6637
15488TIP3    H167879   1.344   3.793   4.082 -0.1036 -0.6626 -0.9537
15488TIP3    H267880   1.401   3.758   3.946 -0.1071  0.6711 -1.3051
15489TIP3   OH267881   3.860   1.639  14.248  0.2042 -0.4817 -0.5855
15489TIP3    H167882   3.818   1.554  14.250 -0.9621  0.0746 -0.6511
15489TIP3    H267883   3.920   1.638  14.323 -1.7571 -0.4067  1.0657
15490TIP3   OH267884   2.417   2.262   2.639 -0.5567  0.1393 -0.5110
15490TIP3    H167885   2.445   2.222   2.722  2.1561  0.2190 -1.3046
15490TIP3    H267886   2.333   2.220   2.620 -1.0774 -0.1570  2.0501
15491TIP3   OH267887   3.019   4.033   0.766  0.3232  0.1539 -0.5511
15491TIP3    H167888   3.004   4.127   0.777 -0.1342 -0.1077  1.3080
15491TIP3    H267889   2.983   3.993   0.845 -0.4277 -1.7065 -1.7575
15492TIP3   OH267890   4.135   3.488  16.870  0.2541  0.3298  0.0021
15492TIP3    H167891   4.115   3.412  16.924  1.4409 -0.4653 -0.6202
15492TIP3    H267892   4.149   3.560  16.932 -0.8444  0.0491  0.5997
15493TIP3   OH267893   1.560   1.281   1.592  0.2180 -0.1385  0.4509
15493TIP3    H167894   1.600   1.208   1.641  0.3671  0.3201  1.0246
15493TIP3    H267895   1.568   1.255   1.500  4.1382  1.0109  0.3089
15494TIP3   OH267896   0.920   6.603  17.000  0.3659  0.0758 -0.2593
15494TIP3    H167897   0.881   6.690  16.993  1.8122  0.8388  0.7148
15494TIP3    H267898   0.895   6.560  16.918 -2.5577  0.4287  0.3232
15495TIP3   OH267899   2.544   3.046   5.701 -0.4526  0.6948 -0.6656
15495TIP3    H167900   2.542   3.079   5.791  0.1588  2.8777 -1.3909
15495TIP3    H267901   2.591   2.963   5.708 -0.4000  0.8122  1.0228
15496TIP3   OH267902   1.150   4.231   5.346  0.5840  0.3870  0.4934
15496TIP3    H167903   1.216   4.188   5.401 -0.3506  0.4687  1.7344
15496TIP3    H267904   1.112   4.298   5.403  0.4860  1.3832 -0.6959
15497TIP3   OH267905   3.139   3.974  15.693 -0.4391  0.2053 -0.1140
15497TIP3    H167906   3.222   3.930  15.677 -0.2319  0.4361  0.3057
15497TIP3    H267907   3.100   3.983  15.606  0.4719  1.0635 -0.4589
15498TIP3   OH267908   1.685   3.663  10.421 -0.2815  0.0761 -0.0024
15498TIP3    H167909   1.600   3.702  10.399 -0.8783 -0.7333  0.7607
15498TIP3    H267910   1.746   3.736  10.421 -1.1264  0.8026  0.1480
15499TIP3   OH267911   1.804   3.784  12.348  0.3690 -0.1074  0.1533
15499TIP3    H167912   1.825   3.736  12.268  1.6453 -0.3426  0.6059
15499TIP3    H267913   1.880   3.840  12.364 -0.5652  1.1378  0.3314
15500TIP3   OH267914   2.638   5.137   0.078 -0.0676  0.2082  0.0039
15500TIP3    H167915   2.623   5.046   0.102  0.9005 -0.5599 -2.0311
15500TIP3    H267916   2.561   5.162   0.027 -0.2995  0.5210  0.4973
15501TIP3   OH267917   0.383   0.583  11.914 -0.3495 -0.0724 -0.0352
15501TIP3    H167918   0.392   0.679  11.912 -2.1224  0.1354  0.6766
15501TIP3    H267919   0.298   0.567  11.953 -0.0587 -1.9733 -0.0719
15502TIP3   OH267920   1.225   1.871   0.527 -0.5347 -0.6088 -0.0189
15502TIP3    H167921   1.298   1.879   0.587 -0.4532 -0.7986 -0.0920
15502TIP3    H267922   1.222   1.955   0.481  0.1995 -0.9165 -0.6505
15503TIP3   OH267923   0.487   3.236   2.371 -0.0431  0.1241 -0.3008
15503TIP3    H167924   0.547   3.178   2.323 -0.7021 -0.2872 -0.6375
15503TIP3    H267925   0.438   3.282   2.303 -0.6668 -0.1279 -0.0282
15504TIP3   OH267926   3.038   6.167  14.677 -0.1754  0.2550 -0.8281
15504TIP3    H167927   2.987   6.094  14.713  1.4794 -0.7489 -0.4284
15504TIP3    H267928   3.122   6.129  14.654  1.3521  2.3120  0.8892
15505TIP3   OH267929   3.391   2.527   2.346  0.3079 -0.1461  0.1451
15505TIP3    H167930   3.454   2.455   2.348  0.4455 -0.0193  0.6825
15505TIP3    H267931   3.437   2.600   2.389  0.0709  0.1759 -0.1385
15506TIP3   OH267932   2.744   0.294   2.563 -0.1392 -0.4687 -0.0212
15506TIP3    H167933   2.739   0.227   2.630  2.5607 -1.1800 -0.4313
15506TIP3    H267934   2.702   0.255   2.486 -1.4129 -0.4207  0.6258
15507TIP3   OH267935   1.503   0.648  15.629  0.2465  0.1185  0.1719
15507TIP3    H167936   1.491   0.566  15.581  1.0804 -0.4335  0.8625
15507TIP3    H267937   1.571   0.628  15.694 -3.0751 -0.2349  3.9473
15508TIP3   OH267938   4.511   2.620   3.725  0.4584  0.2886  0.4236
15508TIP3    H167939   4.550   2.545   3.770 -0.4521  1.9374  4.3574
15508TIP3    H267940   4.565   2.695   3.750 -0.9194  1.5155 -0.1139
15509TIP3   OH267941   4.140   2.153   1.562  0.0298  0.6032 -0.2914
15509TIP3    H167942   4.151   2.233   1.511 -0.9231  1.5157  0.8758
15509TIP3    H267943   4.148   2.082   1.498 -0.2709  1.6770 -1.5505
15510TIP3   OH267944   3.382   0.072   1.272  0.3740  0.9471  0.1044
15510TIP3    H167945   3.435   0.107   1.200  0.6145  0.3282 -0.0311
15510TIP3    H267946   3.392   0.135   1.342  0.4183  1.3842 -0.2919
15511TIP3   OH267947   2.503   2.960   0.894  0.7327 -0.2609  0.1762
15511TIP3    H167948   2.477   2.943   0.985  0.6473  1.2925  0.4704
15511TIP3    H267949   2.421   2.963   0.845  0.7794 -1.1059  0.0324
15512TIP3   OH267950   3.362   5.905   2.116 -0.1789 -0.2137 -0.3839
15512TIP3    H167951   3.320   5.895   2.030 -2.4557 -1.4842  0.7839
15512TIP3    H267952   3.368   5.816   2.151  3.2686 -0.0739 -0.2491
15513TIP3   OH267953   2.529   5.078   4.576 -0.1829 -0.3868 -0.0009
15513TIP3    H167954   2.435   5.088   4.589 -0.4913 -1.3604 -1.2162
15513TIP3    H267955   2.561   5.036   4.656 -0.6975  0.3339  0.5941
15514TIP3   OH267956   3.763   2.066  14.749 -0.2773 -0.7546 -0.3182
15514TIP3    H167957   3.692   2.079  14.686  1.2254 -1.8770 -2.3745
15514TIP3    H267958   3.827   2.133  14.727 -1.2166  1.3069  2.5545
15515TIP3   OH267959   2.087   1.505  17.244 -0.2505 -0.1488  0.4491
15515TIP3    H167960   2.169   1.553  17.257 -1.4017  1.4249  2.3929
15515TIP3    H267961   2.095   1.429  17.302  0.0898 -0.3858  0.1022
15516TIP3   OH267962   4.387   2.311   5.821 -1.0058  0.0305 -0.6254
15516TIP3    H167963   4.396   2.406   5.819 -1.1300  0.0649  0.1999
15516TIP3    H267964   4.412   2.286   5.910 -2.4251 -0.5615 -0.3654
15517TIP3   OH267965   2.626   3.522  16.684  0.0587  0.1309 -0.2465
15517TIP3    H167966   2.588   3.579  16.751 -1.2199 -1.9322  0.9092
15517TIP3    H267967   2.615   3.433  16.720  1.0419 -0.9223 -2.3877
15518TIP3   OH267968   0.620   2.789  16.432 -0.1223  0.0121 -0.4242
15518TIP3    H167969   0.703   2.792  16.480 -0.2380  2.9923 -0.1995
15518TIP3    H267970   0.580   2.874  16.449 -2.6362 -0.8454 -1.5971
15519TIP3   OH267971   1.838   4.547  15.144 -0.2776  0.5890  0.5763
15519TIP3    H167972   1.891   4.484  15.096  1.7399  0.5762  2.6762
15519TIP3    H267973   1.758   4.555  15.092  1.3121 -0.1951 -2.1604
15520TIP3   OH267974   4.930   5.057  13.149  0.3172  0.1174 -1.0097
15520TIP3    H167975   4.869   5.129  13.165 -1.4314 -1.5290  0.2540
15520TIP3    H267976   5.000   5.069  13.214 -0.1403  0.5033 -0.5850
15521TIP3   OH267977   3.018   4.369  14.919  0.1449  0.1345 -0.0591
15521TIP3    H167978   3.093   4.371  14.979  0.2541 -0.9993 -0.1473
15521TIP3    H267979   2.942   4.362  14.976  0.2007 -0.2218 -0.0312
15522TIP3   OH267980   1.664   4.545  13.472  0.7047 -0.5668  0.0153
15522TIP3    H167981   1.597   4.527  13.405  1.4906  0.9263 -1.2248
15522TIP3    H267982   1.747   4.523  13.430  1.2332  0.6088  0.3960
15523TIP3   OH267983   6.553   4.976   3.482  0.0998  0.6311  0.1572
15523TIP3    H167984   6.512   4.904   3.530 -0.5301 -0.5746 -2.0557
15523TIP3    H267985   6.482   5.039   3.469 -0.1663  0.1952 -0.5721
15524TIP3   OH267986   6.665   0.627  15.555 -0.4322  0.2989  0.0051
15524TIP3    H167987   6.685   0.652  15.645  1.1308  0.7292 -0.4348
15524TIP3    H267988   6.750   0.616  15.514 -1.1147  1.1816 -1.7315
15525TIP3   OH267989   0.520   3.702  12.605  0.2247  0.5001 -0.0485
15525TIP3    H167990   0.494   3.769  12.542 -1.2961 -0.8791 -0.9687
15525TIP3    H267991   0.437   3.673  12.644  0.7602 -1.2425 -0.1277
15526TIP3   OH267992   1.016   0.782   5.368  0.1771  0.6852 -0.4511
15526TIP3    H167993   0.971   0.783   5.452  1.4801  0.5078  0.2741
15526TIP3    H267994   1.060   0.697   5.365  0.6689  0.9506 -1.0137
15527TIP3   OH267995   5.058   6.143  13.808 -0.4147  0.8255 -0.7537
15527TIP3    H167996   5.120   6.126  13.737  0.9758  0.1616  0.5370
15527TIP3    H267997   5.084   6.080  13.877 -2.8712  0.1600 -0.3449
15528TIP3   OH267998   6.240   0.416   5.425  0.3965 -0.0349 -0.5833
15528TIP3    H167999   6.175   0.396   5.493 -2.4038  0.8055 -2.8083
15528TIP3    H268000   6.291   0.336   5.416 -1.6963 -1.4893 -0.1207
15529TIP3   OH268001   2.704   3.736   3.226 -0.1723  0.2936  0.1288
15529TIP3    H168002   2.713   3.830   3.211 -0.9054  0.5500  1.2016
15529TIP3    H268003   2.786   3.711   3.269  0.1024  0.4054 -0.3262
15530TIP3   OH268004   1.181   0.983  16.910 -0.0072 -0.5166  0.0778
15530TIP3    H168005   1.257   1.016  16.862 -0.9487  1.2666 -0.2734
15530TIP3    H268006   1.135   0.929  16.846  0.2742 -0.5383 -0.1111
15531TIP3   OH268007   3.651   4.902  16.313 -0.1577 -0.2060 -1.0430
15531TIP3    H168008   3.739   4.921  16.280 -0.2745  1.2034 -0.6155
15531TIP3    H268009   3.618   4.986  16.344 -0.5531 -1.1793  1.4485
15532TIP3   OH268010   5.625   3.358   5.969  0.0057 -0.3429  0.1361
15532TIP3    H168011   5.639   3.403   5.886 -2.9481 -1.4201 -1.0689
15532TIP3    H268012   5.647   3.424   6.036 -0.0218  1.4121 -1.4920
15533TIP3   OH268013   3.592   1.564  16.345  0.0909 -0.1664  0.4537
15533TIP3    H168014   3.496   1.569  16.345  0.0656 -0.5914  0.1818
15533TIP3    H268015   3.620   1.653  16.366 -0.3685 -0.1883  1.2095
15534TIP3   OH268016   4.322   3.929   1.220 -0.2254  0.3248 -0.3106
15534TIP3    H168017   4.378   4.007   1.223 -1.2458  1.0498  1.9568
15534TIP3    H268018   4.274   3.937   1.137  1.4426  0.7806 -1.2870
15535TIP3   OH268019   4.696   6.412  16.357 -0.2061  0.2609  0.1791
15535TIP3    H168020   4.741   6.397  16.440  0.4860  1.9247  0.1416
15535TIP3    H268021   4.609   6.373  16.370  0.4126 -0.8777  1.1106
15536TIP3   OH268022   0.968   5.999  12.501  0.1050  0.2801  0.0552
15536TIP3    H168023   0.879   6.033  12.514  0.2530  0.3417  0.9781
15536TIP3    H268024   0.961   5.943  12.424 -0.5837  0.8214 -0.2959
15537TIP3   OH268025   2.453   5.329  14.610  0.1579  0.5791  0.2639
15537TIP3    H168026   2.479   5.289  14.526 -1.1430  0.9240 -0.3312
15537TIP3    H268027   2.533   5.329  14.662  0.7842 -0.4773 -0.6502
15538TIP3   OH268028   1.182   2.200  13.916 -0.4674  0.8368 -0.4108
15538TIP3    H168029   1.256   2.216  13.857  1.6371  1.7176  2.2561
15538TIP3    H268030   1.150   2.287  13.940 -1.0987  0.5084 -0.0141
15539TIP3   OH268031   0.256   2.780  16.061 -0.0217  0.3830  0.0373
15539TIP3    H168032   0.257   2.700  16.113 -1.9575  2.3213  3.4670
15539TIP3    H268033   0.348   2.804  16.052  0.4784 -1.1669  0.7666
15540TIP3   OH268034   0.500   6.372   5.858  0.6657 -0.3316  0.2875
15540TIP3    H168035   0.519   6.288   5.818  1.6339  0.3420 -0.7292
15540TIP3    H268036   0.570   6.386   5.922  0.9664  0.0533 -0.1197
15541TIP3   OH268037   0.490   6.675   2.333 -0.3136  0.9266  0.2976
15541TIP3    H168038   0.523   6.585   2.332 -2.0787  0.1940  1.7025
15541TIP3    H268039   0.555   6.724   2.382 -0.8937 -0.3442  2.4869
15542TIP3   OH268040   3.060   0.664  17.022  0.2879  0.1477 -0.2312
15542TIP3    H168041   3.060   0.758  17.004 -1.0193  0.2166  0.0248
15542TIP3    H268042   3.032   0.623  16.940 -2.9057  0.2807  0.6522
15543TIP3   OH268043   5.083   0.732  16.543 -0.2792 -0.4594 -0.3667
15543TIP3    H168044   5.006   0.765  16.590  1.1859 -0.3075  2.0980
15543TIP3    H268045   5.093   0.791  16.469 -1.2887  0.8543  0.5003
15544TIP3   OH268046   6.509   0.625   1.186  0.2421  0.0332  0.2637
15544TIP3    H168047   6.458   0.550   1.155  0.7016  0.4466 -1.6781
15544TIP3    H268048   6.470   0.700   1.141  1.7972  0.5115 -0.3634
15545TIP3   OH268049   3.367   5.525   2.634 -0.2423  0.1418  0.0194
15545TIP3    H168050   3.365   5.458   2.566 -1.3009  0.3345 -0.1668
15545TIP3    H268051   3.429   5.492   2.699 -2.0168 -1.8963  0.8032
15546TIP3   OH268052   6.622   1.440  13.584 -0.6107 -0.5193 -0.4647
15546TIP3    H168053   6.557   1.442  13.514 -1.7750  0.5002  0.6013
15546TIP3    H268054   6.599   1.362  13.635 -2.7210  1.2068  1.4116
15547TIP3   OH268055   2.466   2.294  12.617  0.3995 -0.3192 -0.0931
15547TIP3    H168056   2.377   2.279  12.649  0.1524 -1.0302 -1.0515
15547TIP3    H268057   2.462   2.273  12.523  1.7841 -1.2523  0.0262
15548TIP3   OH268058   0.754   6.033   5.262 -0.0096 -0.1520  0.7301
15548TIP3    H168059   0.674   6.003   5.219 -0.1539 -0.1043  0.9667
15548TIP3    H268060   0.818   6.041   5.190  0.9658 -3.8969  0.9564
15549TIP3   OH268061   5.917   1.876   2.660  0.6411  0.2986 -0.2520
15549TIP3    H168062   5.833   1.920   2.675  0.4785  0.3091 -1.1704
15549TIP3    H268063   5.896   1.783   2.662  1.1127  0.1507  2.5020
15550TIP3   OH268064   0.722   2.579  16.248 -0.2161 -0.5415 -0.3567
15550TIP3    H168065   0.703   2.617  16.334 -0.0053  1.7844 -1.2597
15550TIP3    H268066   0.817   2.581  16.240 -0.2410 -0.5738 -0.7195
15551TIP3   OH268067   2.793   5.785  15.602  0.0792 -0.3764  0.0498
15551TIP3    H168068   2.821   5.706  15.649  1.4690 -1.3706 -2.3094
15551TIP3    H268069   2.748   5.753  15.525 -0.1007  1.1651 -0.5282
15552TIP3   OH268070   1.526   1.746   4.925 -0.3327 -0.1842  0.0107
15552TIP3    H168071   1.514   1.776   5.015  1.9728 -2.2225  1.0905
15552TIP3    H268072   1.585   1.810   4.886  0.4455 -0.4807  0.6769
15553TIP3   OH268073   5.023   2.020   6.058 -0.2791  0.6494  0.4146
15553TIP3    H168074   4.936   2.014   6.097  0.2002  0.2607  1.4538
15553TIP3    H268075   5.056   2.105   6.087 -0.4092  0.9161 -0.2026
15554TIP3   OH268076   5.224   5.823   3.840  0.0001 -0.5969  0.0147
15554TIP3    H168077   5.238   5.823   3.934  0.2745 -2.4608  0.0063
15554TIP3    H268078   5.211   5.915   3.818 -1.2948 -0.2393  2.0359
15555TIP3   OH268079   1.140   2.850  16.919 -0.1487  0.1830 -0.0073
15555TIP3    H168080   1.191   2.869  16.840 -0.2025  0.2136 -0.0347
15555TIP3    H268081   1.103   2.935  16.944  0.5612  0.3448  0.5418
15556TIP3   OH268082   5.424   2.785   0.026  0.3155 -0.0837  0.3183
15556TIP3    H168083   5.333   2.775  -0.002  0.5348 -0.4704 -0.2479
15556TIP3    H268084   5.428   2.736   0.108  0.7630 -2.7237 -1.1804
15557TIP3   OH268085   1.694   5.246   4.821  0.2314  0.5335 -0.5087
15557TIP3    H168086   1.724   5.203   4.901 -0.3328 -0.2981 -0.7300
15557TIP3    H268087   1.602   5.266   4.837  0.1950  0.6404 -0.8392
15558TIP3   OH268088   0.634   3.860  12.850 -0.2201  0.0925 -0.0695
15558TIP3    H168089   0.714   3.839  12.801  0.9068  1.0029  1.2998
15558TIP3    H268090   0.605   3.776  12.886 -0.5713 -0.4389 -1.5330
15559TIP3   OH268091   2.949   2.794   2.549  0.2564  0.2744 -0.4631
15559TIP3    H168092   3.028   2.801   2.495  0.9761  1.2466  0.6672
15559TIP3    H268093   2.909   2.711   2.523  2.4010 -0.9498 -0.0938
15560TIP3   OH268094   5.270   0.108   0.342  0.9042 -0.2363  0.2369
15560TIP3    H168095   5.316   0.029   0.312 -0.7554 -1.3248  0.4563
15560TIP3    H268096   5.237   0.148   0.262  1.9395  0.3830  0.1053
15561TIP3   OH268097   2.087   2.031  17.168 -0.3954 -0.1732 -0.1208
15561TIP3    H168098   2.080   2.119  17.131  0.5797 -0.0983 -0.1424
15561TIP3    H268099   2.084   1.972  17.092  1.6433 -0.0185 -0.3592
15562TIP3   OH268100   3.145   4.847  14.756  0.3453  0.0677 -0.2044
15562TIP3    H168101   3.142   4.862  14.662 -1.5123  0.1666 -0.1725
15562TIP3    H268102   3.093   4.768  14.770 -0.3351  0.6578  0.8130
15563TIP3   OH268103   2.205   0.975  11.817 -0.4001  0.0253 -0.1491
15563TIP3    H168104   2.285   0.986  11.766 -0.2292  1.6524  0.4116
15563TIP3    H268105   2.151   0.917  11.764  0.2182  0.7740 -1.6709
15564TIP3   OH268106   4.737   2.666  13.564 -0.6523 -0.2864 -0.1288
15564TIP3    H168107   4.661   2.665  13.506 -0.1459  0.6174 -0.8255
15564TIP3    H268108   4.803   2.613  13.519  1.0989  3.3642 -2.3691
15565TIP3   OH268109   5.627   2.325   1.708 -0.1281 -0.0686  0.4404
15565TIP3    H168110   5.654   2.236   1.689 -0.7317  0.3175 -2.8102
15565TIP3    H268111   5.708   2.376   1.706 -0.1658  0.1903 -3.4988
15566TIP3   OH268112   3.431   3.509   5.459  0.6943 -0.5889  0.2537
15566TIP3    H168113   3.460   3.492   5.369  1.9126 -2.0384  0.8658
15566TIP3    H268114   3.340   3.480   5.461 -0.2479  1.9754 -1.1562
15567TIP3   OH268115   3.669   2.256  16.196 -0.0738  0.3196  0.0138
15567TIP3    H168116   3.717   2.238  16.115  2.0151  2.1976  0.7241
15567TIP3    H268117   3.708   2.198  16.261 -0.6524 -0.0528  0.0401
15568TIP3   OH268118   3.276   5.918   4.541  0.2262  0.1389 -0.1063
15568TIP3    H168119   3.356   5.870   4.562  0.4033  0.7999  0.7662
15568TIP3    H268120   3.296   5.962   4.459  1.6672  2.2332  1.2745
15569TIP3   OH268121   3.554   4.486  12.150  0.2689 -0.0298 -0.4098
15569TIP3    H168122   3.510   4.412  12.109 -0.1421 -0.9155  1.5179
15569TIP3    H268123   3.576   4.544  12.077 -2.3734 -0.4421 -1.6739
15570TIP3   OH268124   4.429   0.454   5.998 -0.0349 -0.6847  0.2138
15570TIP3    H168125   4.463   0.380   6.049  2.7516 -0.1122 -0.6351
15570TIP3    H268126   4.364   0.495   6.056  0.6715 -1.9453  1.9874
15571TIP3   OH268127   4.057   4.350   4.236 -0.1180  0.1739 -0.6205
15571TIP3    H168128   4.087   4.357   4.326 -0.6864  0.0698 -0.4221
15571TIP3    H268129   3.985   4.412   4.229 -1.6332 -1.5035 -0.3377
15572TIP3   OH268130   6.185   1.844   0.772 -0.0568 -0.5319  0.3233
15572TIP3    H168131   6.255   1.909   0.777  0.4496 -1.0684  0.4418
15572TIP3    H268132   6.200   1.787   0.847 -1.6756  0.3380  1.3498
15573TIP3   OH268133   5.053   1.329   3.881 -0.3466 -0.2578  0.5273
15573TIP3    H168134   5.029   1.410   3.926  0.6790  0.7215 -0.6140
15573TIP3    H268135   5.097   1.276   3.949 -0.4500  0.4037  1.1214
15574TIP3   OH268136   3.542   1.251   2.008 -0.4873 -0.3608  0.2392
15574TIP3    H168137   3.551   1.161   1.977 -1.5869 -1.2064  2.1506
15574TIP3    H268138   3.449   1.272   1.995  0.3443  2.0144 -3.7265
15575TIP3   OH268139   3.884   3.608   5.545  0.4754 -0.3690  0.8987
15575TIP3    H168140   3.889   3.632   5.452 -1.9787  0.3044  0.8648
15575TIP3    H268141   3.878   3.512   5.544 -1.6522 -0.2764  0.1555
15576TIP3   OH268142   3.765   5.667   0.644 -0.0748 -0.0897 -0.0372
15576TIP3    H168143   3.807   5.731   0.702  0.6147 -0.3962 -0.1931
15576TIP3    H268144   3.837   5.615   0.608 -0.3111  1.0194 -2.3214
15577TIP3   OH268145   5.971   2.095   6.752  0.7150 -0.2498  0.0942
15577TIP3    H168146   5.944   2.166   6.810 -1.4352  0.2344 -1.3662
15577TIP3    H268147   6.026   2.137   6.686  0.7950 -0.2598  0.1543
15578TIP3   OH268148   6.589   4.241   2.983 -0.6619  0.0405  0.0206
15578TIP3    H168149   6.540   4.176   3.032  0.0304 -0.1380  0.4882
15578TIP3    H268150   6.526   4.310   2.964 -1.0811 -0.1699  0.6374
15579TIP3   OH268151   4.704   0.146   0.116 -0.7770  0.5666 -0.4217
15579TIP3    H168152   4.715   0.158   0.211  0.8026 -0.0392 -0.5034
15579TIP3    H268153   4.628   0.199   0.094 -1.1120  0.8005  1.1724
15580TIP3   OH268154   5.970   5.003  17.394 -0.2968 -0.2116  0.3595
15580TIP3    H168155   5.921   5.004  17.312 -0.6504  1.1315  0.5537
15580TIP3    H268156   5.938   5.080  17.442  2.3495  1.0559  0.2715
15581TIP3   OH268157   1.318   6.103   2.789  0.6475 -0.4460  0.4825
15581TIP3    H168158   1.284   6.045   2.721 -0.1857  0.0169  0.5014
15581TIP3    H268159   1.334   6.186   2.744  2.0380 -0.7206  0.4068
15582TIP3   OH268160   0.109   5.218   4.646 -0.2105  0.0598 -0.0954
15582TIP3    H168161   0.090   5.173   4.564 -0.0953  1.4464 -0.9097
15582TIP3    H268162   0.199   5.249   4.636 -0.1836  0.2142  0.5650
15583TIP3   OH268163   3.077   6.318  14.006 -0.6890  0.5791  0.5452
15583TIP3    H168164   3.024   6.324  14.086 -1.9585  0.2291 -0.2529
15583TIP3    H268165   3.059   6.400  13.960  0.9772  1.3291  1.1468
15584TIP3   OH268166   1.621   2.842  15.246 -0.2873  0.3167  0.3824
15584TIP3    H168167   1.625   2.893  15.327  0.0864  0.2753  0.3924
15584TIP3    H268168   1.681   2.769  15.261  2.7327  2.2416 -1.2694
15585TIP3   OH268169   3.643   3.728   5.318 -0.0578  0.0617 -0.1923
15585TIP3    H168170   3.625   3.648   5.268  0.1025 -0.8171  1.0875
15585TIP3    H268171   3.736   3.744   5.306 -0.1830  0.3444 -0.8370
15586TIP3   OH268172   4.216   2.454  11.180 -0.4234 -0.9829 -0.2232
15586TIP3    H168173   4.125   2.441  11.207 -0.1223 -0.2465  1.2505
15586TIP3    H268174   4.263   2.380  11.218 -0.3119 -1.0690 -0.5224
15587TIP3   OH268175   0.225   0.182  16.490  0.0349 -0.5005 -0.3291
15587TIP3    H168176   0.193   0.247  16.427  0.1368 -0.3612 -0.2394
15587TIP3    H268177   0.159   0.182  16.559  1.6726  2.0123  1.3733
15588TIP3   OH268178   0.067   1.606   2.495  0.2273 -0.1932  0.2192
15588TIP3    H168179   0.072   1.620   2.589  0.3263  1.4353  0.0092
15588TIP3    H268180  -0.011   1.552   2.482  1.0901 -1.7704  1.3249
15589TIP3   OH268181   2.651   2.864  12.898  0.1219 -0.5203  0.2831
15589TIP3    H168182   2.709   2.930  12.860  2.1194 -1.2680  1.8407
15589TIP3    H268183   2.590   2.842  12.828  0.3219  1.8898 -0.7369
15590TIP3   OH268184   2.353   0.140  16.445  0.2488 -0.2501  0.0462
15590TIP3    H168185   2.276   0.094  16.412  0.3455  0.3613 -1.0981
15590TIP3    H268186   2.359   0.114  16.536  0.5100 -2.7646 -0.6241
15591TIP3   OH268187   3.119   5.708   1.503 -0.1974 -0.3203 -0.5770
15591TIP3    H168188   3.096   5.795   1.535  0.3146  0.3734 -2.0448
15591TIP3    H268189   3.039   5.676   1.461 -1.1081 -1.5339  1.8548
15592TIP3   OH268190   4.964   1.859  16.815 -0.4461 -0.3747 -0.2409
15592TIP3    H168191   4.939   1.920  16.746  0.3632  2.0030  1.4236
15592TIP3    H268192   5.044   1.818  16.783 -0.1694  0.5790 -0.8132
15593TIP3   OH268193   0.808   3.332  15.384 -0.7363 -0.1810 -0.0524
15593TIP3    H168194   0.869   3.284  15.439 -0.2789  0.9112  0.4182
15593TIP3    H268195   0.742   3.267  15.359 -0.6637 -0.8262  1.3471
15594TIP3   OH268196   3.261   6.573  14.133 -0.3112  0.5549 -0.4265
15594TIP3    H168197   3.233   6.490  14.093  0.5618 -0.5994  1.2487
15594TIP3    H268198   3.214   6.576  14.217  1.9051  0.2138  0.9149
15595TIP3   OH268199   1.329   0.085   3.218 -0.1084  0.0609 -0.0167
15595TIP3    H168200   1.372   0.048   3.295  1.2227 -0.0677 -0.7735
15595TIP3    H268201   1.245   0.116   3.249  1.4895  2.6654  2.1668
15596TIP3   OH268202   4.871   6.746   3.564 -1.0233  0.8430  0.2822
15596TIP3    H168203   4.891   6.798   3.641  2.6103 -1.4129  1.1058
15596TIP3    H268204   4.881   6.806   3.490  1.0893  1.8272  1.2929
15597TIP3   OH268205   0.553   3.739   5.562 -0.0001  0.3674 -0.1405
15597TIP3    H168206   0.512   3.656   5.587 -0.8157  1.5382  2.8189
15597TIP3    H268207   0.642   3.714   5.535  0.2053 -1.3715  1.8639
15598TIP3   OH268208   4.252   5.783  12.707  0.1329  0.2094 -0.3502
15598TIP3    H168209   4.220   5.848  12.644  1.1395 -0.2101 -1.3240
15598TIP3    H268210   4.238   5.698  12.663  1.5359 -0.0440 -0.3494
15599TIP3   OH268211   2.382   2.434   1.137 -0.5874  0.4887  0.0962
15599TIP3    H168212   2.418   2.429   1.048 -0.4078 -0.6437  0.2216
15599TIP3    H268213   2.436   2.374   1.188  0.6466  2.6010  1.4641
15600TIP3   OH268214   5.686   1.756  13.219 -0.3816 -0.3134  0.4186
15600TIP3    H168215   5.635   1.680  13.249  1.6666 -1.0168  2.3908
15600TIP3    H268216   5.702   1.807  13.299  0.5158  0.7852 -0.4328
15601TIP3   OH268217   2.696   1.452   5.312  0.2929 -0.1441  0.2238
15601TIP3    H168218   2.712   1.403   5.231  1.3648  0.5106  0.0133
15601TIP3    H268219   2.610   1.422   5.342 -0.6405  0.4158 -1.7444
15602TIP3   OH268220   1.558   3.839   4.371 -0.1697  0.3013 -0.1114
15602TIP3    H168221   1.500   3.798   4.307 -0.3406  0.4853 -0.0740
15602TIP3    H268222   1.518   3.923   4.391  1.3958  1.5616 -1.9538
15603TIP3   OH268223   5.770   3.059  15.088  0.4940  0.6882  0.4230
15603TIP3    H168224   5.820   3.091  15.163 -0.2375  0.0977  1.1804
15603TIP3    H268225   5.745   2.970  15.112  1.5423 -0.0916 -1.1684
15604TIP3   OH268226   1.279   5.153   1.978  0.3213  0.6371 -0.1598
15604TIP3    H168227   1.342   5.220   2.003  2.0948 -1.0795  0.2707
15604TIP3    H268228   1.195   5.188   2.006  1.1905  2.5851  0.1901
15605TIP3   OH268229   5.425   5.701   1.855 -0.5572 -0.0446 -0.4692
15605TIP3    H168230   5.500   5.740   1.900 -1.4850  0.4131  0.7388
15605TIP3    H268231   5.450   5.609   1.842  0.3306  0.1712 -0.3861
15606TIP3   OH268232   1.612   2.431  12.634 -0.2926 -0.4183  0.1323
15606TIP3    H168233   1.615   2.349  12.682 -0.3279 -0.9936 -0.8221
15606TIP3    H268234   1.524   2.435  12.598 -0.3079  0.0634  0.2205
15607TIP3   OH268235   0.481   5.820  16.913 -0.3369  0.9191  0.1864
15607TIP3    H168236   0.573   5.794  16.908 -0.7024 -0.3238 -0.3083
15607TIP3    H268237   0.480   5.909  16.877  0.5772  0.7110 -0.3807
15608TIP3   OH268238   1.230   1.519   0.958  0.3888 -0.2817 -0.2795
15608TIP3    H168239   1.257   1.606   0.929  2.3531 -0.6526  0.3198
15608TIP3    H268240   1.261   1.460   0.889  0.3399 -0.6418  0.0052
15609TIP3   OH268241   5.404   1.460  15.646 -0.2474  0.6509  0.4639
15609TIP3    H168242   5.485   1.498  15.680  0.4032 -1.1224  1.0288
15609TIP3    H268243   5.335   1.519  15.676  0.7869  1.9383  0.3740
15610TIP3   OH268244   3.385   0.780  14.448  0.6420 -0.0738 -0.1668
15610TIP3    H168245   3.397   0.864  14.493  0.4440 -0.4254  0.5526
15610TIP3    H268246   3.388   0.803  14.355 -0.7059  0.9451 -0.0077
15611TIP3   OH268247   5.199   1.567   5.049  0.1949 -0.2265 -0.4135
15611TIP3    H168248   5.285   1.571   5.007  0.0568 -0.1930 -0.7022
15611TIP3    H268249   5.157   1.490   5.011  0.3427 -0.6234  0.2174
15612TIP3   OH268250   2.278   0.696  11.946 -0.0381 -0.5834  0.6298
15612TIP3    H168251   2.251   0.780  11.908  0.8566  0.0382  1.3065
15612TIP3    H268252   2.211   0.675  12.011  0.0649 -0.0468  0.9161
15613TIP3   OH268253   3.609   2.136   5.968 -0.2412 -0.1269  0.0342
15613TIP3    H168254   3.608   2.041   5.961 -1.2689 -0.3454  2.1275
15613TIP3    H268255   3.686   2.163   5.920 -0.6642 -1.8835 -1.7715
15614TIP3   OH268256   4.157   5.639   0.973 -0.3726 -0.0653 -0.1826
15614TIP3    H168257   4.177   5.662   0.883 -1.7512 -1.4985 -0.8965
15614TIP3    H268258   4.242   5.624   1.014  0.2320 -0.3412 -1.5122
15615TIP3   OH268259   1.031   5.544  12.284  0.3318  0.1633 -0.2085
15615TIP3    H168260   1.097   5.590  12.234 -1.0602  1.2619 -1.1040
15615TIP3    H268261   0.960   5.528  12.222 -0.4094 -0.6559  0.8087
15616TIP3   OH268262   2.209   4.793   5.687  0.2254 -0.7532  0.1266
15616TIP3    H168263   2.233   4.751   5.604 -0.6826 -0.2013 -0.4302
15616TIP3    H268264   2.185   4.883   5.662  0.8311 -0.2928  1.1176
15617TIP3   OH268265   0.996   5.301  12.565  0.1164 -0.1729  0.7916
15617TIP3    H168266   1.044   5.340  12.638  2.2380 -1.9789  0.4331
15617TIP3    H268267   0.936   5.239  12.607  0.1832 -0.0520  1.0738
15618TIP3   OH268268   5.744   6.204   3.109  0.2503 -0.3772  0.0505
15618TIP3    H168269   5.650   6.210   3.093 -0.1372  1.1324  2.4324
15618TIP3    H268270   5.772   6.130   3.054 -2.6823 -2.2623  0.8027
15619TIP3   OH268271   4.363   0.797  11.132  0.0213  0.1303  0.8317
15619TIP3    H168272   4.311   0.730  11.177 -0.7677 -0.8782 -1.4075
15619TIP3    H268273   4.449   0.756  11.122 -0.0495  0.0154  0.6874
15620TIP3   OH268274   3.237   2.516  12.269 -0.6295 -0.2378  0.2589
15620TIP3    H168275   3.205   2.434  12.307 -0.3371 -1.3640 -1.7798
15620TIP3    H268276   3.332   2.504  12.264 -0.6782 -0.1954 -0.9413
15621TIP3   OH268277   0.862   1.906   0.246  0.8646  0.1375 -0.8640
15621TIP3    H168278   0.882   1.863   0.329 -3.2524 -0.8606 -0.1379
15621TIP3    H268279   0.884   1.842   0.179  0.6423 -0.6252 -0.2236
15622TIP3   OH268280   4.881   4.811  10.612  0.3188  0.4473 -0.2785
15622TIP3    H168281   4.830   4.749  10.663 -0.7994 -0.6473 -2.5799
15622TIP3    H268282   4.837   4.895  10.624 -0.4755  0.0193 -0.1590
15623TIP3   OH268283   4.564   5.093   2.880 -0.3812  0.3425 -0.1582
15623TIP3    H168284   4.548   5.004   2.849 -2.2282 -0.6082  3.0551
15623TIP3    H268285   4.657   5.108   2.860  0.8426 -3.4534  1.5970
15624TIP3   OH268286   6.542   2.219   2.640  0.0462 -0.0172 -0.2475
15624TIP3    H168287   6.478   2.214   2.710  0.8245  0.6669  0.5307
15624TIP3    H268288   6.619   2.260   2.680  0.6803 -0.0696 -1.3671
15625TIP3   OH268289   3.004   2.311   3.662  0.1225  0.2719  0.2633
15625TIP3    H168290   3.077   2.266   3.620  0.5479  1.3347 -0.1682
15625TIP3    H268291   2.927   2.286   3.610  0.6906  1.8780 -1.4686
15626TIP3   OH268292   5.746   5.733  12.557 -0.3729  0.0670  0.4331
15626TIP3    H168293   5.833   5.723  12.517 -0.5485 -1.1148  0.3179
15626TIP3    H268294   5.764   5.755  12.648  0.0371  2.7035 -0.1849
15627TIP3   OH268295   0.648   3.094   0.758  0.8809 -0.0978  0.2424
15627TIP3    H168296   0.702   3.133   0.827 -0.3831  0.8610  0.7331
15627TIP3    H268297   0.559   3.093   0.795  0.1495  0.5354 -1.4002
15628TIP3   OH268298   3.275   1.154  13.162  0.4252 -0.2552 -0.2943
15628TIP3    H168299   3.330   1.232  13.161  0.6466 -0.3915  0.6921
15628TIP3    H268300   3.230   1.157  13.246  0.6577 -1.3426 -0.1125
15629TIP3   OH268301   6.747   1.262   0.174  0.4339  0.3733  0.1377
15629TIP3    H168302   6.737   1.246   0.081  0.7599  1.8252 -0.1675
15629TIP3    H268303   6.658   1.278   0.206  0.1200 -1.5786  0.4135
15630TIP3   OH268304   3.179   6.504  15.272  0.8924  0.1109  0.1657
15630TIP3    H168305   3.092   6.537  15.292  0.3104 -0.9531 -0.5323
15630TIP3    H268306   3.238   6.565  15.317 -0.1474  1.6322 -0.4134
15631TIP3   OH268307   5.022   5.080  16.625  0.4290 -0.4893 -0.0386
15631TIP3    H168308   4.980   5.155  16.582 -0.2788 -1.0185 -0.2888
15631TIP3    H268309   5.056   5.027  16.553 -0.2959 -1.1121  0.0671
15632TIP3   OH268310   2.258   6.579   6.547  0.0092  0.1385 -0.4708
15632TIP3    H168311   2.342   6.548   6.512 -0.2941 -0.4151 -0.7131
15632TIP3    H268312   2.272   6.584   6.642  0.2756 -0.0723 -0.4986
15633TIP3   OH268313   0.612   0.328  15.371 -0.0110 -0.1655  0.1449
15633TIP3    H168314   0.664   0.252  15.347  0.9110  0.4104  0.2656
15633TIP3    H268315   0.673   0.385  15.419  0.3511  2.2632 -2.8952
15634TIP3   OH268316   6.299   0.868  16.523  0.4011  0.7259  0.1070
15634TIP3    H168317   6.213   0.909  16.515  0.7817  1.6908  0.8295
15634TIP3    H268318   6.361   0.935  16.495  0.9999  0.4435  0.7327
15635TIP3   OH268319   2.120   0.972  16.998  0.2965  0.2171  0.0037
15635TIP3    H168320   2.185   1.035  16.967 -0.9851  0.8418 -1.5573
15635TIP3    H268321   2.041   1.024  17.012 -0.9880 -1.0493 -1.9773
15636TIP3   OH268322   1.496   2.761   4.336  0.1424  0.7331  0.0042
15636TIP3    H168323   1.564   2.804   4.283  0.9884  1.6210  1.7199
15636TIP3    H268324   1.536   2.679   4.363 -0.9410 -0.5604 -2.0863
15637TIP3   OH268325   2.364   2.802  13.734 -0.1399 -1.0394  0.1472
15637TIP3    H168326   2.440   2.754  13.768  1.3093  0.5124 -0.7232
15637TIP3    H268327   2.380   2.808  13.640 -1.1836 -0.4013  0.0022
15638TIP3   OH268328   1.660   6.758   5.494  0.4190  0.4651  0.1664
15638TIP3    H168329   1.575   6.718   5.474  0.1899  1.4764 -1.0015
15638TIP3    H268330   1.649   6.798   5.580  0.2517 -0.8277  0.7695
15639TIP3   OH268331   1.902   0.761   2.542  0.0490  0.0644  0.3285
15639TIP3    H168332   1.979   0.817   2.551 -0.0743  0.2547  0.2083
15639TIP3    H268333   1.914   0.717   2.459 -0.3321  0.6579 -0.0532
15640TIP3   OH268334   4.699   3.964   5.164 -0.0143 -0.1772 -0.0632
15640TIP3    H168335   4.650   3.984   5.085  0.0386  0.3094  0.0229
15640TIP3    H268336   4.649   3.894   5.206 -0.6811  0.3636  0.0629
15641TIP3   OH268337   2.227   2.714   4.306  0.1518  0.1020  0.7529
15641TIP3    H168338   2.309   2.669   4.286 -0.3092 -2.3009  3.6495
15641TIP3    H268339   2.253   2.784   4.366  0.3267  1.1363 -0.4664
15642TIP3   OH268340   0.265   1.338   0.111 -0.1054  0.7559  0.4773
15642TIP3    H168341   0.287   1.359   0.202 -1.2682  0.9339  0.7350
15642TIP3    H268342   0.169   1.340   0.109 -0.1688 -1.0137 -0.3318
15643TIP3   OH268343   0.047   4.303   1.701 -0.4633  0.1808 -0.2744
15643TIP3    H168344  -0.046   4.316   1.723 -0.9203  0.6019 -2.2749
15643TIP3    H268345   0.060   4.208   1.710 -0.5328  0.3157  1.8704
15644TIP3   OH268346   6.525   5.865   0.294 -0.2041 -0.6240 -0.4391
15644TIP3    H168347   6.487   5.787   0.255 -0.9375 -1.4418  1.7411
15644TIP3    H268348   6.539   5.842   0.386 -0.0751  1.6715  0.1929
15645TIP3   OH268349   5.925   1.307   5.264  0.6647 -0.3081 -0.1033
15645TIP3    H168350   5.931   1.349   5.178  1.3848  0.4758  0.3188
15645TIP3    H268351   5.914   1.214   5.244  0.4971 -0.1004 -1.0449
15646TIP3   OH268352   0.776   0.390   6.293  0.4065  0.3540  0.6693
15646TIP3    H168353   0.728   0.341   6.360  0.2323 -1.8045 -0.9372
15646TIP3    H268354   0.811   0.465   6.340 -0.6130 -0.4861  2.9395
15647TIP3   OH268355   3.074   5.114   0.118 -0.3024 -0.6282 -0.8191
15647TIP3    H168356   3.116   5.119   0.032  0.2321  0.1027 -0.5353
15647TIP3    H268357   3.041   5.025   0.124 -0.5257 -0.6297 -1.8622
15648TIP3   OH268358   5.533   1.885   4.540 -0.7739  0.3936  0.2295
15648TIP3    H168359   5.449   1.919   4.570 -1.6801 -0.0425 -1.7258
15648TIP3    H268360   5.589   1.963   4.534 -0.6527  0.5603  2.5376
15649TIP3   OH268361   4.894   2.014  16.568 -0.5022  0.1676  0.6253
15649TIP3    H168362   4.944   2.071  16.510 -1.9927 -0.3618 -1.2876
15649TIP3    H268363   4.842   2.074  16.622 -1.8512  0.7072 -1.1720
15650TIP3   OH268364   0.077   0.198   0.179 -0.0639  0.2835 -0.4074
15650TIP3    H168365   0.114   0.275   0.221  1.6107  0.0473 -1.3560
15650TIP3    H268366   0.150   0.161   0.129 -1.2695 -0.9691 -1.3024
15651TIP3   OH268367   5.307   6.597   3.190 -0.2810 -0.0354 -0.1881
15651TIP3    H168368   5.288   6.595   3.096 -0.5340 -0.3735 -0.1337
15651TIP3    H268369   5.357   6.516   3.207  0.1259  0.2313 -0.1053
15652TIP3   OH268370   3.674   6.638  16.901  0.0690  0.4359  0.1096
15652TIP3    H168371   3.646   6.694  16.829 -0.9263 -1.7776 -1.2948
15652TIP3    H268372   3.769   6.649  16.904  0.3125 -0.4023 -2.4650
15653TIP3   OH268373   2.031   2.575  15.899  0.3375  0.2608 -0.2100
15653TIP3    H168374   2.102   2.537  15.950  0.0460 -0.0861 -0.0568
15653TIP3    H268375   1.999   2.503  15.844 -0.2110  0.2785  0.0767
15654TIP3   OH268376   1.696   4.536   2.207 -0.1491  0.1963 -0.7741
15654TIP3    H168377   1.764   4.574   2.151 -1.5688  2.2201 -1.2410
15654TIP3    H268378   1.614   4.558   2.163 -1.1605 -1.4044  0.2318
15655TIP3   OH268379   4.925   0.816  11.319  0.0712  0.4778  0.6375
15655TIP3    H168380   4.888   0.904  11.316 -0.7986  0.0909 -1.7697
15655TIP3    H268381   5.014   0.825  11.284 -0.2209  0.3106 -0.1491
15656TIP3   OH268382   3.052   3.311   5.635  0.4485 -0.0329 -0.0285
15656TIP3    H168383   3.020   3.357   5.713  2.1548 -0.0169  0.6945
15656TIP3    H268384   3.018   3.222   5.644  0.9893 -0.1515  0.9773
15657TIP3   OH268385   0.459   4.449   1.831  0.9159 -0.4635  0.4304
15657TIP3    H168386   0.547   4.474   1.859  1.2505  0.3186 -1.2169
15657TIP3    H268387   0.435   4.514   1.765 -1.3350 -0.0368  1.5719
15658TIP3   OH268388   4.727   0.489  12.033 -0.3774 -0.6969  0.7521
15658TIP3    H168389   4.753   0.551  12.101  1.2203 -0.0971 -0.3369
15658TIP3    H268390   4.664   0.536  11.980  0.3280 -0.2247  0.3217
15659TIP3   OH268391   2.935   2.794  11.519  0.1985  0.4341  0.3142
15659TIP3    H168392   2.940   2.732  11.446  1.5402  1.2516 -0.3378
15659TIP3    H268393   2.861   2.764  11.572 -1.2128  0.1927 -1.7163
15660TIP3   OH268394   4.954   5.177   3.078  0.0568  0.1031 -0.5038
15660TIP3    H168395   5.041   5.168   3.117 -0.1958 -0.0841  0.0257
15660TIP3    H268396   4.951   5.110   3.010  0.2656  0.0021 -0.4130
15661TIP3   OH268397   4.693   4.041  13.081 -0.2336 -0.2790  0.1356
15661TIP3    H168398   4.749   4.018  13.156 -0.2251  0.2386  0.2861
15661TIP3    H268399   4.739   4.112  13.037 -0.5795 -0.1171  0.0314
15662TIP3   OH268400   3.826   4.127   4.871  0.0935 -0.2788 -0.2926
15662TIP3    H168401   3.814   4.094   4.782 -1.7059  0.1073 -0.2299
15662TIP3    H268402   3.795   4.057   4.927 -1.1381  0.4022 -0.0768
15663TIP3   OH268403   4.878   1.611   3.345  0.6357 -0.2962  0.2286
15663TIP3    H168404   4.844   1.534   3.391  0.6669 -1.8207 -2.1459
15663TIP3    H268405   4.924   1.576   3.269  1.9165  2.0302 -0.1817
15664TIP3   OH268406   5.291   0.952  14.570 -0.3358 -0.6695 -0.2761
15664TIP3    H168407   5.353   0.937  14.498 -0.1985 -0.0097 -0.2964
15664TIP3    H268408   5.243   1.031  14.545  2.0141  1.6064  1.8916
15665TIP3   OH268409   0.525   6.368  11.407 -0.3613  0.0518 -0.1195
15665TIP3    H168410   0.616   6.340  11.412  0.7568  2.7569 -2.6093
15665TIP3    H268411   0.491   6.325  11.329  0.0162  1.9831 -1.3933
15666TIP3   OH268412   0.187   3.479   5.354  0.3217  0.2040  0.1517
15666TIP3    H168413   0.195   3.560   5.405  0.9101  0.4747 -0.3570
15666TIP3    H268414   0.274   3.441   5.354 -0.3411 -1.5205  2.0832
15667TIP3   OH268415   5.481   0.212  15.083  0.2162 -0.6224 -0.5763
15667TIP3    H168416   5.481   0.260  15.001 -0.6343 -0.7163 -0.6392
15667TIP3    H268417   5.485   0.120  15.057 -1.1921 -0.7064 -0.5687
15668TIP3   OH268418   5.424   2.613  16.728  0.5362 -0.2511  0.5473
15668TIP3    H168419   5.334   2.583  16.711  0.4082  0.3127  0.2063
15668TIP3    H268420   5.478   2.557  16.672  0.3209 -0.0138  0.0934
15669TIP3   OH268421   4.827   4.893  13.824 -0.0188  0.4452  0.0849
15669TIP3    H168422   4.819   4.887  13.920  1.4007  0.2734  0.2202
15669TIP3    H268423   4.783   4.974  13.801  1.1307  1.4040  1.1147
15670TIP3   OH268424   1.046   5.315   2.078  0.0651 -0.1246 -0.3006
15670TIP3    H168425   1.111   5.326   2.148  0.6412  0.3031 -0.8821
15670TIP3    H268426   1.057   5.393   2.024 -2.3181  0.9923  0.6601
15671TIP3   OH268427   4.658   3.036   6.263 -0.3613 -0.4007  0.2210
15671TIP3    H168428   4.605   2.990   6.328  0.6195 -0.4174  1.0266
15671TIP3    H268429   4.748   3.031   6.296 -0.1133  1.3911 -0.0740
15672TIP3   OH268430   2.444   2.585  17.230 -0.5782  0.6757 -0.0754
15672TIP3    H168431   2.441   2.525  17.305 -1.5505  0.2750 -0.4264
15672TIP3    H268432   2.537   2.604  17.219  0.0144 -2.2739 -1.1417
15673TIP3   OH268433   5.378   4.153   4.584 -0.5856  0.6011 -0.3500
15673TIP3    H168434   5.337   4.132   4.500 -0.9143 -0.9711  0.1644
15673TIP3    H268435   5.315   4.123   4.650  0.3526  0.3409  0.4555
15674TIP3   OH268436   4.498   4.129  12.433  0.1262  0.3723 -0.0467
15674TIP3    H168437   4.488   4.215  12.392 -0.4094  0.7874  0.9063
15674TIP3    H268438   4.590   4.105  12.418 -0.4173 -0.3027 -2.9491
15675TIP3   OH268439   0.946   5.372   2.610  0.3324 -0.3451 -0.1958
15675TIP3    H168440   0.987   5.312   2.672  2.1529  0.5487 -0.4544
15675TIP3    H268441   1.015   5.435   2.589 -0.7742  0.4015 -1.7850
15676TIP3   OH268442   4.628   0.401   4.145  0.6465 -0.4751 -0.9697
15676TIP3    H168443   4.627   0.365   4.056 -2.4617  0.8857 -1.6324
15676TIP3    H268444   4.567   0.345   4.194  0.9108 -0.1029 -0.2035
15677TIP3   OH268445   3.668   5.356   5.428  0.4587  0.1508 -0.6612
15677TIP3    H168446   3.670   5.275   5.378  1.3462  0.4925 -1.1967
15677TIP3    H268447   3.700   5.423   5.368  2.3429  0.4355  0.5674
15678TIP3   OH268448   4.272   2.261   3.400 -0.8516  0.5567  0.2622
15678TIP3    H168449   4.280   2.355   3.386 -1.2330  0.3337 -1.9574
15678TIP3    H268450   4.177   2.246   3.409 -0.7661  0.4095  0.9753
15679TIP3   OH268451   1.770   1.934  15.979  0.0374 -0.3810  0.2796
15679TIP3    H168452   1.823   1.948  15.901  1.6371  0.1430  1.4011
15679TIP3    H268453   1.830   1.952  16.052 -1.3579 -0.9852  1.6289
15680TIP3   OH268454   3.316   1.559  11.485  0.5507 -0.3134 -0.2612
15680TIP3    H168455   3.270   1.624  11.539 -2.7849 -2.8556  0.3258
15680TIP3    H268456   3.304   1.591  11.396 -1.1073 -0.0745  0.0035
15681TIP3   OH268457   5.621   3.552  12.206  0.0935  0.6983  0.1330
15681TIP3    H168458   5.552   3.555  12.273  0.4438 -0.0281  0.5366
15681TIP3    H268459   5.693   3.603  12.243  0.4664 -0.0941  0.5353
15682TIP3   OH268460   2.807   3.735  15.100 -0.1158 -0.3798  0.1564
15682TIP3    H168461   2.817   3.773  15.013  0.7984 -0.4372  0.2276
15682TIP3    H268462   2.861   3.656  15.098  0.9997  0.3019  1.1687
15683TIP3   OH268463   2.451   2.494  11.727  0.4471  0.2878 -0.6178
15683TIP3    H168464   2.497   2.502  11.643 -1.0087  2.4327 -1.2876
15683TIP3    H268465   2.374   2.441  11.707  0.1514  0.7162 -0.6292
15684TIP3   OH268466   4.939   0.028  12.101 -0.2259 -0.3941 -0.4481
15684TIP3    H168467   4.941  -0.000  12.192  0.0734 -1.0341 -0.6471
15684TIP3    H268468   4.949  -0.052  12.051  0.8300  0.0733 -1.0253
15685TIP3   OH268469   5.611   5.660  14.673  0.0709 -0.0537 -0.5177
15685TIP3    H168470   5.545   5.598  14.704 -0.6307  0.5558 -0.7828
15685TIP3    H268471   5.685   5.649  14.734 -1.1001  0.7982  1.1245
15686TIP3   OH268472   5.703   0.461  13.599  0.0841  0.0913 -0.4539
15686TIP3    H168473   5.749   0.498  13.674  0.1065  0.6978 -0.7541
15686TIP3    H268474   5.726   0.368  13.599 -0.9276 -0.1853  1.0278
15687TIP3   OH268475   5.631   0.083  13.419 -0.3166  0.3816  0.3987
15687TIP3    H168476   5.565   0.151  13.431 -0.2498  0.9323 -1.9253
15687TIP3    H268477   5.710   0.130  13.391 -0.0990 -0.5681 -0.6627
15688TIP3   OH268478   4.975   4.627  13.870  0.3197 -0.9652  0.2322
15688TIP3    H168479   4.997   4.716  13.843  0.9272 -0.5473  1.9428
15688TIP3    H268480   4.880   4.629  13.884  0.2440 -0.7550 -0.3212
15689TIP3   OH268481   2.435   1.783  12.647  0.1219 -0.3557  0.3750
15689TIP3    H168482   2.437   1.689  12.660 -1.2878 -0.4543  0.0174
15689TIP3    H268483   2.350   1.800  12.607  0.1262  1.1302  0.9338
15690TIP3   OH268484   3.766   2.115   3.378  0.6208  0.2977 -0.2850
15690TIP3    H168485   3.696   2.073   3.428 -0.0310  0.9151 -0.6774
15690TIP3    H268486   3.808   2.042   3.332 -0.6698  0.0895 -1.1661
15691TIP3   OH268487   6.441   3.846  15.513  0.2161 -0.0586 -0.0194
15691TIP3    H168488   6.362   3.844  15.567 -0.4434 -0.2462 -0.9701
15691TIP3    H268489   6.513   3.849  15.576 -0.5867  3.2618  0.9382
15692TIP3   OH268490   3.936   5.000  16.164  1.0610 -0.2876 -0.0138
15692TIP3    H168491   3.923   4.978  16.072  3.7594  0.2823 -0.6275
15692TIP3    H268492   3.984   4.925  16.200  1.2436  0.0942  0.5551
15693TIP3   OH268493   3.235   4.677  15.160  0.1809  0.3139 -0.6934
15693TIP3    H168494   3.299   4.737  15.197 -1.5894  1.5210  0.5428
15693TIP3    H268495   3.169   4.733  15.119  0.1616 -0.9020 -2.4868
15694TIP3   OH268496   4.464   3.182  12.415 -0.6328  0.6838 -0.0715
15694TIP3    H168497   4.502   3.136  12.490  0.7691  0.5892 -0.8077
15694TIP3    H268498   4.441   3.268  12.449  4.0616  2.3571 -0.3635
15695TIP3   OH268499   4.622   6.109   3.109 -0.0616 -0.1415  0.8434
15695TIP3    H168500   4.657   6.111   3.198  0.0862  0.8466  0.7829
15695TIP3    H268501   4.540   6.061   3.117  0.0043 -0.1626  1.5010
15696TIP3   OH268502   2.237   5.758  13.071  0.2762  0.3425 -0.0848
15696TIP3    H168503   2.224   5.843  13.113 -1.4758  1.0557 -1.8916
15696TIP3    H268504   2.181   5.698  13.120 -2.0283  1.2382 -1.4620
15697TIP3   OH268505   6.592   5.538  12.898  0.6130 -0.0941 -0.2655
15697TIP3    H168506   6.666   5.551  12.957  0.5397  0.1235 -0.2238
15697TIP3    H268507   6.540   5.618  12.906  0.5022 -0.1440 -0.4811
15698TIP3   OH268508   6.127   5.085  12.585 -0.6799 -0.0650  0.4396
15698TIP3    H168509   6.208   5.106  12.633 -0.1948  0.3182 -0.5291
15698TIP3    H268510   6.094   5.007  12.629  1.1897 -1.3236 -0.2429
15699TIP3   OH268511   4.093   4.867  16.718 -0.3250  0.4542  0.8040
15699TIP3    H168512   4.088   4.937  16.653 -2.4905  0.7289  1.1887
15699TIP3    H268513   4.139   4.796  16.673 -2.5345  0.2925 -1.4072
15700TIP3   OH268514   1.177   1.643   5.227 -0.2631 -0.4490  0.1487
15700TIP3    H168515   1.210   1.731   5.211  0.4550 -0.6507  0.4852
15700TIP3    H268516   1.105   1.654   5.289  0.6320 -0.2086  1.1714
15701TIP3   OH268517   2.340   0.875  12.514 -0.1053 -0.2080  0.4783
15701TIP3    H168518   2.336   0.884  12.609  2.4720  0.1894  0.6085
15701TIP3    H268519   2.320   0.782  12.499 -0.0591 -0.3922  1.4632
15702TIP3   OH268520   2.118   4.523  16.738 -0.2334 -0.2432  0.1722
15702TIP3    H168521   2.038   4.556  16.778 -0.0375 -0.7561  0.9955
15702TIP3    H268522   2.158   4.600  16.698 -0.8089  0.1329  0.3120
15703TIP3   OH268523   6.031   4.255   0.870  0.0513  0.3246 -0.0262
15703TIP3    H168524   6.048   4.250   0.776  1.2839  2.3850  0.0193
15703TIP3    H268525   6.087   4.187   0.908  0.2320  0.0904 -0.6961
15704TIP3   OH268526   1.958   5.042   4.493  0.8055  0.1894  0.5880
15704TIP3    H168527   1.903   4.970   4.463  0.9279  0.8799 -1.4329
15704TIP3    H268528   1.969   5.026   4.587 -0.9026 -1.2370  0.5987
15705TIP3   OH268529   5.535   6.444   1.038 -0.2401 -0.7204  0.2978
15705TIP3    H168530   5.496   6.487   0.962 -1.1431  0.4426  1.3791
15705TIP3    H268531   5.461   6.414   1.090  0.3084 -0.1818  1.4330
15706TIP3   OH268532   5.069   3.622  17.189  0.7253 -0.0486 -0.3211
15706TIP3    H168533   5.101   3.563  17.122 -0.2261 -0.0770 -0.7704
15706TIP3    H268534   5.108   3.590  17.271 -0.2920 -1.7070 -0.4476
15707TIP3   OH268535   3.363   0.234   4.615  0.1914 -0.2447 -0.2877
15707TIP3    H168536   3.386   0.164   4.677 -1.0972 -0.6769 -0.2654
15707TIP3    H268537   3.428   0.303   4.632  0.1229 -0.5207  1.2645
15708TIP3   OH268538   5.257   6.103   6.035  0.8399  0.0750 -0.6480
15708TIP3    H168539   5.214   6.083   5.952  0.5073 -0.0613 -0.4412
15708TIP3    H268540   5.312   6.179   6.015  1.6949 -0.6879 -1.3009
15709TIP3   OH268541   5.958   3.084  13.809 -0.3407 -0.3075 -0.6453
15709TIP3    H168542   5.986   2.993  13.810  1.2277  0.1478 -0.0175
15709TIP3    H268543   6.006   3.123  13.736 -0.6867  0.1127 -0.6532
15710TIP3   OH268544   2.229   4.676   2.980 -0.4740  0.0881  0.1362
15710TIP3    H168545   2.276   4.619   2.919 -0.4990  0.0737  0.1303
15710TIP3    H268546   2.179   4.735   2.924  0.5661  0.9868  0.1123
15711TIP3   OH268547   5.836   2.610  16.844  0.3028 -0.2043 -0.3686
15711TIP3    H168548   5.879   2.676  16.789 -0.4870  1.4907  0.9506
15711TIP3    H268549   5.893   2.602  16.921  0.1785 -0.7724 -0.3310
15712TIP3   OH268550   0.848   6.383   4.386  0.2256  0.7618  0.1196
15712TIP3    H168551   0.769   6.406   4.339 -0.5816 -0.9664  0.5303
15712TIP3    H268552   0.871   6.296   4.353  1.2082  0.6935  0.9276
15713TIP3   OH268553   5.072   0.805   3.881 -0.1948  0.2154 -0.3703
15713TIP3    H168554   5.066   0.719   3.840 -1.2695  0.9361 -1.7869
15713TIP3    H268555   5.159   0.837   3.857  0.3601 -0.6037  0.4788
15714TIP3   OH268556   5.569   0.546  17.187 -0.3667  1.1217  0.2804
15714TIP3    H168557   5.571   0.634  17.225 -0.0511  0.5741  1.5466
15714TIP3    H268558   5.498   0.502  17.234 -0.1733  0.5269  0.0134
15715TIP3   OH268559   6.581   1.737  15.510  0.1639 -0.5004 -0.1568
15715TIP3    H168560   6.625   1.773  15.433 -0.1312 -0.8709 -0.5035
15715TIP3    H268561   6.535   1.812  15.549 -0.3061 -0.4592 -0.7746
15716TIP3   OH268562   2.927   0.240  16.871 -0.5164  0.6667 -0.5463
15716TIP3    H168563   2.988   0.167  16.857 -0.6436  0.5454 -0.4749
15716TIP3    H268564   2.849   0.214  16.823 -0.7519  0.5119 -0.0836
15717TIP3   OH268565   2.792   2.409   5.858  0.7984 -0.2742  0.2350
15717TIP3    H168566   2.738   2.365   5.925 -0.0653 -1.5928 -1.2605
15717TIP3    H268567   2.851   2.465   5.908 -0.6969 -0.2115  2.0404
15718TIP3   OH268568   0.791   6.185   0.217 -0.4596 -0.1948  0.2875
15718TIP3    H168569   0.783   6.244   0.141 -0.2680 -0.0360  0.3893
15718TIP3    H268570   0.710   6.134   0.216  0.2217 -1.3124 -0.9525
15719TIP3   OH268571   2.472   0.316   0.207 -0.1978  0.7241  0.0121
15719TIP3    H168572   2.560   0.327   0.243 -0.4304  2.9407 -0.0059
15719TIP3    H268573   2.486   0.292   0.115  0.4026  1.5927 -0.1310
15720TIP3   OH268574   3.522   1.104   1.022  0.5109  0.1516  0.2680
15720TIP3    H168575   3.608   1.070   0.998  0.3840  1.0141 -1.6183
15720TIP3    H268576   3.467   1.026   1.029  0.8740 -0.2602 -1.1375
15721TIP3   OH268577   4.699   0.240  12.692 -0.7068  0.4803 -0.2444
15721TIP3    H168578   4.693   0.146  12.706 -0.9605  0.4533 -0.5307
15721TIP3    H268579   4.792   0.255  12.675 -0.7885  0.1648 -1.0048
15722TIP3   OH268580   0.244   0.007  14.799 -0.5361  0.1643 -0.0634
15722TIP3    H168581   0.214  -0.072  14.755 -0.1203 -0.7304  1.1852
15722TIP3    H268582   0.274  -0.024  14.885 -0.8631  1.7616  0.6512
15723TIP3   OH268583   1.533   6.503  13.982 -0.1420 -0.1936  0.2205
15723TIP3    H168584   1.566   6.414  13.994  1.0544 -0.1756 -2.3414
15723TIP3    H268585   1.450   6.491  13.935 -0.8581  0.0033  1.4076
15724TIP3   OH268586   3.221   0.767   6.069 -0.3214  0.4340  0.0743
15724TIP3    H168587   3.286   0.788   6.136 -0.9079  0.1339  0.7557
15724TIP3    H268588   3.142   0.814   6.097 -1.1793 -1.3159  0.7341
15725TIP3   OH268589   0.630   5.838  13.888 -0.9780 -0.2204 -0.2979
15725TIP3    H168590   0.702   5.822  13.828 -2.2164 -1.6924 -1.4631
15725TIP3    H268591   0.554   5.800  13.845 -2.0382 -0.7715  1.9359
15726TIP3   OH268592   6.550   5.522   1.057 -0.5313  0.0795  0.2983
15726TIP3    H168593   6.621   5.457   1.056  0.4908  1.1628  0.5391
15726TIP3    H268594   6.470   5.470   1.049  0.3557 -1.0544 -2.1291
15727TIP3   OH268595   1.012   5.159  15.878 -0.1273 -0.1621 -0.2444
15727TIP3    H168596   1.011   5.185  15.970 -0.3562 -1.3797  0.1119
15727TIP3    H268597   1.088   5.204  15.841  1.5914 -1.7521  1.1836
15728TIP3   OH268598   4.804   4.916   5.243 -0.1676 -0.3050  0.4290
15728TIP3    H168599   4.789   4.822   5.255 -1.6334 -0.0490  0.8235
15728TIP3    H268600   4.781   4.955   5.328 -0.6040  0.5120 -0.0479
15729TIP3   OH268601   0.044   2.211   2.318 -0.1009 -0.0379  0.4461
15729TIP3    H168602   0.070   2.237   2.406  0.6608  0.1774  0.1629
15729TIP3    H268603  -0.051   2.222   2.317 -0.0959  0.1397  1.1742
15730TIP3   OH268604   5.145   6.297   1.327 -0.3575 -0.1878 -0.8175
15730TIP3    H168605   5.111   6.218   1.286  1.6487 -1.0306 -0.9625
15730TIP3    H268606   5.168   6.354   1.254 -1.3189  0.3471 -0.7217
15731TIP3   OH268607   3.491   1.351  13.168 -0.4750  0.0579  0.3580
15731TIP3    H168608   3.530   1.376  13.084 -0.7607 -0.1563  0.1602
15731TIP3    H268609   3.504   1.428  13.224 -2.8378  1.3972 -0.7477
15732TIP3   OH268610   2.984   2.600  12.079 -0.0297 -0.5796 -0.4084
15732TIP3    H168611   2.981   2.589  11.984 -1.1286  1.9101 -0.7292
15732TIP3    H268612   3.075   2.619  12.099  0.1440 -0.7937 -0.9827
15733TIP3   OH268613   2.393   2.551  16.834 -0.0281  0.1578  0.1227
15733TIP3    H168614   2.411   2.501  16.914 -2.5116  1.1696  1.4246
15733TIP3    H268615   2.411   2.642  16.858  2.3960  0.2049 -1.5639
15734TIP3   OH268616   0.439   4.721   0.931  0.0758 -0.1403 -0.6517
15734TIP3    H168617   0.467   4.649   0.875  0.8775  0.0138 -0.4612
15734TIP3    H268618   0.520   4.765   0.956 -0.0335 -1.4358  2.3646
15735TIP3   OH268619   2.915   1.444   1.028  0.1909 -0.2531 -0.4628
15735TIP3    H168620   2.902   1.538   1.014  2.0857  0.3719  1.3703
15735TIP3    H268621   3.000   1.425   0.988 -0.7913 -1.5511 -2.0504
15736TIP3   OH268622   1.374   1.315   4.556 -0.1448  0.0647 -0.0918
15736TIP3    H168623   1.304   1.307   4.492  1.5985  0.0724 -2.0962
15736TIP3    H268624   1.386   1.409   4.567 -1.8589  0.1224  1.9869
15737TIP3   OH268625   1.632   5.917   4.851 -0.4395  0.4135  0.2301
15737TIP3    H168626   1.709   5.959   4.890 -0.5060  0.3476  0.4357
15737TIP3    H268627   1.579   5.890   4.926  0.1441 -1.0672  0.1501
15738TIP3   OH268628   3.013   2.069  12.346 -0.8478 -0.1955 -0.4370
15738TIP3    H168629   2.937   2.105  12.302 -1.6777  0.2918  1.3189
15738TIP3    H268630   3.078   2.139  12.344 -1.4474  0.4081  0.4646
15739TIP3   OH268631   2.780   5.357  15.152  0.3904 -0.2604 -0.6499
15739TIP3    H168632   2.845   5.334  15.085  1.8732  0.0949  0.5981
15739TIP3    H268633   2.807   5.306  15.229 -0.4810  0.3433  0.0697
15740TIP3   OH268634   3.625   4.231  11.147 -0.4148  0.4120  0.1047
15740TIP3    H168635   3.705   4.277  11.123 -1.1124  0.9445 -1.2834
15740TIP3    H268636   3.655   4.150  11.189  0.8408  1.9740  2.4658
15741TIP3   OH268637   1.916   5.045  13.783 -0.4548 -0.3691 -1.1668
15741TIP3    H168638   1.902   5.101  13.859 -1.0938  0.3064 -1.7714
15741TIP3    H268639   1.842   5.063  13.725  0.1575 -0.6793 -2.0692
15742TIP3   OH268640   4.246   5.700   0.717 -0.0103 -0.3339 -0.4546
15742TIP3    H168641   4.205   5.783   0.742 -0.3612 -0.7762  0.5083
15742TIP3    H268642   4.274   5.713   0.627 -2.5526 -0.0956 -1.2946
15743TIP3   OH268643   6.709   1.525  14.338  0.1011 -0.9267 -0.3237
15743TIP3    H168644   6.784   1.570  14.378  0.1774 -1.0988 -0.2720
15743TIP3    H268645   6.711   1.552  14.247 -0.1329 -0.4496 -0.1922
15744TIP3   OH268646   5.702   4.930   5.609 -0.2976 -0.2777 -0.2265
15744TIP3    H168647   5.728   5.019   5.632 -0.7636  0.1201 -1.1587
15744TIP3    H268648   5.607   4.930   5.620 -0.7404  0.3279 -3.1945
15745TIP3   OH268649   1.843   1.031   0.255 -0.1870  0.5624 -0.3342
15745TIP3    H168650   1.816   1.006   0.167  1.0172  0.3112 -0.6494
15745TIP3    H268651   1.883   0.951   0.291  0.5943  1.0537 -0.0854
15746TIP3   OH268652   1.140   0.076  14.784 -0.6009 -0.5838 -0.2693
15746TIP3    H168653   1.079   0.062  14.857 -2.1897 -0.5489 -1.5529
15746TIP3    H268654   1.226   0.079  14.826 -1.5272  0.1722  1.6958
15747TIP3   OH268655   4.132   2.583  15.650 -0.0015 -0.0846 -0.1801
15747TIP3    H168656   4.081   2.508  15.682 -0.2312  0.1810  0.0801
15747TIP3    H268657   4.117   2.652  15.714  0.6768  0.0065 -0.1112
15748TIP3   OH268658   4.595   5.133   2.190 -0.4581 -0.1748  0.0493
15748TIP3    H168659   4.521   5.077   2.164 -1.2276  1.0079 -0.4094
15748TIP3    H268660   4.554   5.216   2.215  0.7133  0.4545 -0.0641
15749TIP3   OH268661   3.141   1.328  14.610  0.2820 -0.8236  0.3859
15749TIP3    H168662   3.104   1.245  14.578  0.0535 -0.8740  0.7795
15749TIP3    H268663   3.065   1.378  14.640  0.5371 -0.9945  1.3518
15750TIP3   OH268664   6.460   5.682   1.450 -0.4760  0.0511  0.3948
15750TIP3    H168665   6.384   5.702   1.396 -0.1855  2.1281  0.6857
15750TIP3    H268666   6.425   5.659   1.535 -0.8180  2.1100  0.8705
15751TIP3   OH268667   2.772   1.269  16.770  0.3032 -0.4084  0.8398
15751TIP3    H168668   2.747   1.176  16.766 -1.3272 -0.0820  2.0629
15751TIP3    H268669   2.861   1.268  16.806  1.0657 -1.5364 -0.9280
15752TIP3   OH268670   5.568   3.532   4.022 -0.0004 -0.2071 -0.1439
15752TIP3    H168671   5.610   3.540   3.936 -1.1321 -2.4886 -0.9709
15752TIP3    H268672   5.633   3.486   4.076 -0.2245 -0.9539 -0.5052
15753TIP3   OH268673   3.460   2.895   4.749 -0.1370 -0.0259  0.6365
15753TIP3    H168674   3.486   2.944   4.827 -0.0598 -0.6606  1.0160
15753TIP3    H268675   3.535   2.903   4.689 -0.1987  0.4643  0.6199
15754TIP3   OH268676   2.943   0.842   4.133  0.3297 -0.2592  0.2822
15754TIP3    H168677   2.863   0.789   4.130  1.0251 -1.3033 -1.1202
15754TIP3    H268678   3.009   0.784   4.172  0.3897  0.6613  1.6113
15755TIP3   OH268679   2.525   4.382  15.847 -0.3023  0.0262 -0.2667
15755TIP3    H168680   2.513   4.358  15.755 -0.0723 -1.5236  0.0713
15755TIP3    H268681   2.537   4.477  15.846  0.3892 -0.0438 -1.9006
15756TIP3   OH268682   2.073   2.177   1.132  0.0728  0.0443  0.1650
15756TIP3    H168683   2.138   2.228   1.180  1.1188 -0.1310 -1.0307
15756TIP3    H268684   2.005   2.240   1.109  0.4947  0.5214  0.2132
15757TIP3   OH268685   6.068   4.094  16.342 -0.0190 -0.1387  0.3084
15757TIP3    H168686   5.988   4.085  16.291  0.1508  0.4888 -0.0768
15757TIP3    H268687   6.139   4.078  16.280  0.2125  1.3263  0.1545
15758TIP3   OH268688   5.487   4.090  14.873 -0.2156  0.1768  0.7342
15758TIP3    H168689   5.510   4.080  14.780  0.5176  0.4910  0.8742
15758TIP3    H268690   5.395   4.062  14.878 -0.0145 -0.6489  0.0630
15759TIP3   OH268691   6.333   6.332  14.942  0.5145 -0.2528  0.4876
15759TIP3    H168692   6.331   6.291  14.856 -1.3517  0.3212  0.2223
15759TIP3    H268693   6.424   6.358  14.954  0.9482 -1.0059 -0.9754
15760TIP3   OH268694   2.473   0.300   2.875  0.2088  0.9086  0.0327
15760TIP3    H168695   2.500   0.374   2.821  1.4146 -0.2783 -1.0909
15760TIP3    H268696   2.542   0.292   2.941  0.5646  0.2638 -0.4051
15761TIP3   OH268697   5.445   0.568  11.449 -0.2804  0.0228 -0.3149
15761TIP3    H168698   5.469   0.642  11.393 -2.1042  0.6459 -0.3382
15761TIP3    H268699   5.349   0.570  11.451 -0.3115  0.2371  3.0755
15762TIP3   OH268700   1.734   4.249  17.358 -0.0858  0.0057 -0.1456
15762TIP3    H168701   1.749   4.202  17.276  2.7108  0.0674  0.2345
15762TIP3    H268702   1.807   4.312  17.363 -2.0482  2.3694  0.7960
15763TIP3   OH268703   4.749   1.346  11.744  0.0965 -0.2324  0.1033
15763TIP3    H168704   4.690   1.410  11.785  0.5698 -0.2276  0.7873
15763TIP3    H268705   4.809   1.400  11.692  0.5093 -0.1155  0.6983
15764TIP3   OH268706   1.053   0.353  16.440  0.1013 -0.4134 -0.3221
15764TIP3    H168707   1.011   0.431  16.475 -0.0839 -0.7959  0.3264
15764TIP3    H268708   1.113   0.324  16.509 -0.8346 -1.6146  0.0112
15765TIP3   OH268709   1.282   4.230  12.238  0.6436  0.2022  0.6204
15765TIP3    H168710   1.226   4.153  12.252 -1.4665  2.0707  3.4372
15765TIP3    H268711   1.225   4.293  12.194  1.2691  1.3369  1.4158
15766TIP3   OH268712   3.742   5.449  16.804 -0.6959 -0.2280 -0.1302
15766TIP3    H168713   3.672   5.488  16.751 -0.2119 -0.1606 -0.7212
15766TIP3    H268714   3.734   5.355  16.789 -1.8551 -0.4035  1.2879
15767TIP3   OH268715   5.974   3.692  16.458  0.1745 -0.6241  0.1247
15767TIP3    H168716   5.891   3.736  16.474  0.8792  0.9083 -0.2599
15767TIP3    H268717   6.039   3.742  16.508  1.1941 -0.4395 -1.3203
15768TIP3   OH268718   1.308   4.607   5.799  0.2760  0.5039 -0.2048
15768TIP3    H168719   1.319   4.700   5.822  1.0401 -0.0088  1.7647
15768TIP3    H268720   1.396   4.579   5.773  0.2333  0.1326  0.0541
15769TIP3   OH268721   6.245   2.602   0.317  0.6006 -0.9053  0.1043
15769TIP3    H168722   6.273   2.691   0.300  0.7522 -1.2185 -1.4018
15769TIP3    H268723   6.152   2.601   0.296  0.9059 -1.4302 -1.3054
15770TIP3   OH268724   3.391   1.335  16.839  0.4241  0.0042 -0.5429
15770TIP3    H168725   3.470   1.312  16.888 -0.7647  0.9516  2.0130
15770TIP3    H268726   3.330   1.264  16.858 -0.5861  1.1725  0.7921
15771TIP3   OH268727   4.229   1.984   0.149 -0.1854 -0.4428 -0.1981
15771TIP3    H168728   4.294   1.937   0.097  0.2747 -0.7019  0.6024
15771TIP3    H268729   4.190   2.047   0.087  2.0182  0.9495 -0.2715
15772TIP3   OH268730   4.283   4.486  13.373  0.1796  0.3496 -0.8144
15772TIP3    H168731   4.271   4.398  13.407  0.6468 -0.2810 -2.1999
15772TIP3    H268732   4.198   4.509  13.335 -0.3065  1.0078  0.5822
15773TIP3   OH268733   1.278   2.706   3.198 -0.0477  0.4099  0.4266
15773TIP3    H168734   1.327   2.783   3.169 -1.4025  1.0461 -0.2836
15773TIP3    H268735   1.321   2.632   3.155  1.9593  0.5895  1.9808
15774TIP3   OH268736   3.851   3.824  12.407 -0.6040  0.2785  0.0624
15774TIP3    H168737   3.780   3.810  12.470  0.9236  0.9087  2.0167
15774TIP3    H268738   3.828   3.907  12.364 -1.7859 -0.2774 -0.4334
15775TIP3   OH268739   1.416   5.070  16.843  0.1405  0.1060 -0.0058
15775TIP3    H168740   1.415   4.976  16.823 -1.0129 -0.3662  1.9836
15775TIP3    H268741   1.349   5.108  16.787 -2.9099 -1.1396  2.4727
15776TIP3   OH268742   5.130   2.241   1.443 -0.1731 -0.4429 -0.4164
15776TIP3    H168743   5.103   2.300   1.373 -0.1320 -0.3394 -0.3454
15776TIP3    H268744   5.095   2.156   1.417  2.0732 -1.0044 -1.9010
15777TIP3   OH268745   1.709   3.231  14.823  0.1893 -0.2934  0.3252
15777TIP3    H168746   1.774   3.296  14.849 -0.9614  0.7329  0.7198
15777TIP3    H268747   1.697   3.176  14.900 -1.1090  0.9740  1.0699
15778TIP3   OH268748   3.441   3.689   2.794  0.6269  0.5850 -0.4042
15778TIP3    H168749   3.474   3.600   2.781 -1.1713  0.2204 -3.3874
15778TIP3    H268750   3.346   3.679   2.795  0.3749  2.1371  3.0822
15779TIP3   OH268751   4.897   3.608  15.902 -0.1007  0.1880 -0.1067
15779TIP3    H168752   4.835   3.549  15.945  0.3198  0.0688  0.3522
15779TIP3    H268753   4.847   3.649  15.832 -0.6111 -0.1372  0.0617
15780TIP3   OH268754   3.111   6.134   5.350  0.1986 -0.5360 -0.0539
15780TIP3    H168755   3.201   6.111   5.327 -0.7257 -2.7101 -1.8053
15780TIP3    H268756   3.098   6.220   5.309  2.0191  0.8025  1.9437
15781TIP3   OH268757   2.940   1.928   5.422 -0.1643 -0.3638 -0.2990
15781TIP3    H168758   2.878   1.910   5.493 -0.3856 -0.0261 -0.4045
15781TIP3    H268759   2.886   1.939   5.344 -0.0264  0.4737 -0.2921
15782TIP3   OH268760   2.431   6.361   0.106  0.4362 -0.0330 -0.2067
15782TIP3    H168761   2.513   6.406   0.124  0.8934 -1.0677  0.3687
15782TIP3    H268762   2.454   6.293   0.042 -0.5274  1.4524 -2.2302
15783TIP3   OH268763   4.044   0.759   0.607 -0.3711  0.4496  1.0988
15783TIP3    H168764   4.114   0.822   0.620  0.4542 -0.5538  1.7338
15783TIP3    H268765   4.075   0.704   0.535 -1.0414  0.7169  0.6023
15784TIP3   OH268766   2.902   6.294  14.479  0.4237  0.5273 -0.0138
15784TIP3    H168767   2.841   6.288  14.552  1.4254  0.4633  0.8474
15784TIP3    H268768   2.988   6.281  14.519  1.0036  0.6250 -1.1894
15785TIP3   OH268769   0.754   1.647   4.824  0.0465 -0.6358 -0.0517
15785TIP3    H168770   0.796   1.724   4.785  1.2558 -1.1239  0.2376
15785TIP3    H268771   0.811   1.623   4.897 -1.4901 -0.5137  1.2302
15786TIP3   OH268772   2.633   5.004   5.375  0.1376 -0.2483 -0.0297
15786TIP3    H168773   2.677   5.084   5.348  0.8819 -0.2977  0.9863
15786TIP3    H268774   2.622   4.954   5.294 -0.4705  0.9307 -0.6928
15787TIP3   OH268775   5.626   2.413   6.202 -0.5988 -0.1624 -0.4418
15787TIP3    H168776   5.585   2.368   6.276 -1.2431  0.0961 -0.6402
15787TIP3    H268777   5.692   2.351   6.171 -0.0869 -0.1388  0.5552
15788TIP3   OH268778   2.619   3.114   0.034  0.6477 -0.0167  0.5257
15788TIP3    H168779   2.667   3.132   0.115  0.6902  0.7613  0.3344
15788TIP3    H268780   2.554   3.184   0.029 -0.9895 -1.4005  1.1187
15789TIP3   OH268781   4.813   0.175   5.874 -0.1313 -0.4061 -0.5811
15789TIP3    H168782   4.784   0.149   5.962  2.2234 -1.3405 -0.0184
15789TIP3    H268783   4.835   0.093   5.831 -0.6542  0.0981 -1.8510
15790TIP3   OH268784   0.090   2.581  12.426 -0.5674  0.1491  0.0790
15790TIP3    H168785   0.079   2.642  12.499 -2.5624  1.6501 -1.3686
15790TIP3    H268786   0.077   2.634  12.348 -1.6435 -1.9614 -1.2737
15791TIP3   OH268787   6.024   1.525  11.395 -0.9431  0.8813  0.3017
15791TIP3    H168788   5.963   1.550  11.326  0.9465 -0.9072 -2.1735
15791TIP3    H268789   6.110   1.552  11.362 -0.0924  1.2634  2.6482
15792TIP3   OH268790   6.107   5.585  13.918  0.3966  0.0702  0.2857
15792TIP3    H168791   6.083   5.579  14.010 -1.2431  0.2978 -0.0998
15792TIP3    H268792   6.087   5.676  13.894 -1.2668 -0.5515 -0.8112
15793TIP3   OH268793   3.890   5.303   2.363  0.2790 -0.0815 -0.0507
15793TIP3    H168794   3.940   5.237   2.411  0.9872  1.3853  1.3404
15793TIP3    H268795   3.806   5.307   2.409  0.5704  0.5967  0.4326
15794TIP3   OH268796   0.290   5.142  13.499 -0.3619 -0.1739  0.1342
15794TIP3    H168797   0.347   5.169  13.572 -1.1324  1.4612  0.1709
15794TIP3    H268798   0.271   5.050  13.517  1.2477 -0.4184  0.7923
15795TIP3   OH268799   3.415   6.110   5.836 -0.7883 -0.1615  0.7895
15795TIP3    H168800   3.439   6.105   5.929 -2.1896  0.5976  1.2134
15795TIP3    H268801   3.352   6.040   5.823  0.0479 -0.8189  0.1830
15796TIP3   OH268802   1.210   1.734  11.048 -0.1884  0.2294 -0.1989
15796TIP3    H168803   1.210   1.744  10.952 -0.8939 -0.8707 -0.3264
15796TIP3    H268804   1.303   1.728  11.071  0.0914  2.1219 -0.6015
15797TIP3   OH268805   2.502   5.706   2.603  0.2987  0.4143  0.1316
15797TIP3    H168806   2.591   5.737   2.583 -0.9769  3.7390 -1.1072
15797TIP3    H268807   2.450   5.735   2.528 -2.1356  0.0202  1.5821
15798TIP3   OH268808   6.081   1.539  12.942 -0.4503  0.0519 -0.2228
15798TIP3    H168809   6.038   1.547  13.027 -0.8902 -0.6166 -0.3770
15798TIP3    H268810   6.121   1.625  12.928  2.0056 -0.6029  1.8875
15799TIP3   OH268811   0.144   0.128  16.971  0.0278 -0.4665 -0.0739
15799TIP3    H168812   0.077   0.171  17.024  1.2738  0.7025  0.6224
15799TIP3    H268813   0.174   0.196  16.911  1.5928 -0.5015  0.6129
15800TIP3   OH268814   0.407   0.077  16.334 -0.1229 -0.6134  0.3932
15800TIP3    H168815   0.328   0.100  16.381  0.3248  0.2379  0.7476
15800TIP3    H268816   0.466   0.042  16.401  0.8714  1.4834  0.7044
15801TIP3   OH268817   2.240   4.429  15.816 -0.0353  0.2355  0.4677
15801TIP3    H168818   2.239   4.411  15.722 -0.2364  0.2527  0.4661
15801TIP3    H268819   2.148   4.438  15.840  0.0608  1.3806  0.4559
15802TIP3   OH268820   2.021   1.811  16.618  0.0308  0.5132  0.0672
15802TIP3    H168821   1.964   1.842  16.548 -0.0566  1.1194  0.3957
15802TIP3    H268822   2.108   1.807  16.578 -0.3184 -0.9971 -0.6064
15803TIP3   OH268823   4.219   4.154   2.098  0.5125 -0.8418  0.3500
15803TIP3    H168824   4.156   4.091   2.132  1.7811 -1.7917  1.0405
15803TIP3    H268825   4.179   4.189   2.019 -1.9695  0.4369  2.0475
15804TIP3   OH268826   4.646   6.558  13.715  0.0107  0.1854 -0.5963
15804TIP3    H168827   4.674   6.469  13.695  0.0732 -0.3961  1.8168
15804TIP3    H268828   4.725   6.611  13.705  0.9897 -0.7146  1.7636
15805TIP3   OH268829   3.683   0.864   5.552  0.2852 -0.2240 -0.4280
15805TIP3    H168830   3.728   0.897   5.630  0.9463 -0.8376 -0.5397
15805TIP3    H268831   3.748   0.809   5.508 -0.8907 -2.0361 -0.0061
15806TIP3   OH268832   4.556   1.593  15.690 -0.8266  0.5430 -0.3644
15806TIP3    H168833   4.572   1.517  15.635 -1.5589  0.9382 -1.1485
15806TIP3    H268834   4.465   1.617  15.673 -0.2058  2.4930 -1.3051
15807TIP3   OH268835   2.290   6.640   5.092 -0.1811  0.0035 -0.1673
15807TIP3    H168836   2.373   6.667   5.131  0.1361 -0.0978 -0.7599
15807TIP3    H268837   2.277   6.701   5.019  1.0611 -2.0112 -2.1870
15808TIP3   OH268838   4.683   3.148   0.695 -0.2839  0.0496  0.2600
15808TIP3    H168839   4.630   3.070   0.678 -2.0271  1.2905 -0.3341
15808TIP3    H268840   4.624   3.206   0.743  0.5118  1.5373 -0.5077
15809TIP3   OH268841   1.210   1.674   5.903  0.3157 -0.3719 -0.1244
15809TIP3    H168842   1.214   1.711   5.991  1.3812 -1.2547  0.2178
15809TIP3    H268843   1.158   1.595   5.913  0.2443 -0.3521 -0.3368
15810TIP3   OH268844   2.874   2.931   2.168 -0.0502  0.4481  0.5590
15810TIP3    H168845   2.846   3.000   2.228  0.6318  0.0573  1.3393
15810TIP3    H268846   2.817   2.941   2.092 -0.2349  1.6093  0.8315
15811TIP3   OH268847   3.576   3.256  10.954  0.8071 -0.1743  0.5552
15811TIP3    H168848   3.597   3.346  10.979  1.8650 -0.2920  0.1158
15811TIP3    H268849   3.502   3.264  10.894  0.9228  0.4092  0.4889
15812TIP3   OH268850   4.340   1.493   2.333 -0.5072 -0.2634 -0.0909
15812TIP3    H168851   4.372   1.579   2.361  1.6652 -1.7933  2.5955
15812TIP3    H268852   4.251   1.509   2.302 -0.4891  2.8034  1.1149
15813TIP3   OH268853   3.938   1.724  13.970  0.6310 -0.1211 -0.1644
15813TIP3    H168854   3.970   1.656  13.910 -0.9382  0.1544 -1.3780
15813TIP3    H268855   3.894   1.675  14.039  0.5535 -0.3836 -0.3957
15814TIP3   OH268856   3.869   1.927   1.585  0.2385 -0.4203 -0.1953
15814TIP3    H168857   3.963   1.909   1.591  0.4491  0.2460 -1.2052
15814TIP3    H268858   3.857   1.961   1.496 -0.6530  1.1505  0.4747
15815TIP3   OH268859   2.840   0.055   4.102  0.1781  0.2747  0.3447
15815TIP3    H168860   2.919   0.099   4.133 -0.3992  0.7910  1.1332
15815TIP3    H268861   2.851  -0.036   4.131  0.6678  0.2488  0.0864
15816TIP3   OH268862   2.046   4.077   4.041 -0.6197  0.5171  0.7711
15816TIP3    H168863   2.087   4.117   4.118  0.9073  3.0685 -1.2217
15816TIP3    H268864   2.092   3.994   4.030 -0.0021  0.6897  1.9067
15817TIP3   OH268865   3.412   1.227   0.794  0.0252  0.2423 -0.1781
15817TIP3    H168866   3.437   1.158   0.856 -0.1921  0.5292  0.2265
15817TIP3    H268867   3.490   1.283   0.788 -0.2752  0.7438  0.5528
15818TIP3   OH268868   1.224   2.140  12.035  0.3500 -0.1215 -0.8032
15818TIP3    H168869   1.191   2.050  12.039  0.5458 -0.1665  0.0344
15818TIP3    H268870   1.287   2.145  12.108 -0.1072  0.8706 -0.4609
15819TIP3   OH268871   3.065   6.658  16.716  0.2314  0.4666 -0.3533
15819TIP3    H168872   3.096   6.740  16.679  0.1298  0.5795 -0.1908
15819TIP3    H268873   3.061   6.674  16.811 -0.6803  0.5849 -0.3988
15820TIP3   OH268874   1.802   0.963  17.140 -0.2595  0.6358 -0.0475
15820TIP3    H168875   1.867   0.999  17.201  0.7754 -0.3281 -0.5271
15820TIP3    H268876   1.833   0.990  17.053  0.4703 -1.1634 -0.4092
15821TIP3   OH268877   6.564   1.226   1.319  0.2796 -0.4023 -0.0734
15821TIP3    H168878   6.473   1.204   1.299 -0.0308 -0.1690  0.9972
15821TIP3    H268879   6.563   1.319   1.339  0.9109 -0.2140 -0.8511
15822TIP3   OH268880   2.619   0.341  11.550  0.1605  0.5654 -0.2913
15822TIP3    H168881   2.532   0.317  11.583 -0.0515  1.2420 -0.3511
15822TIP3    H268882   2.678   0.320  11.621 -0.2419  1.5944  0.3655
15823TIP3   OH268883   5.393   2.189   6.243 -0.3333 -0.2255 -0.0605
15823TIP3    H168884   5.481   2.182   6.280 -0.2216 -1.2042 -0.4742
15823TIP3    H268885   5.334   2.161   6.314 -0.2745 -0.1011  0.0377
15824TIP3   OH268886   0.876   2.282   2.582 -0.3705 -0.0750  0.3040
15824TIP3    H168887   0.902   2.211   2.523 -0.0801 -1.1158  1.6362
15824TIP3    H268888   0.782   2.270   2.595 -0.6770  0.8891 -0.8672
15825TIP3   OH268889   3.723   5.751  14.619  0.6217 -0.1143  0.2756
15825TIP3    H168890   3.706   5.845  14.615  0.7237 -0.0769  0.7066
15825TIP3    H268891   3.755   5.729  14.531  1.9425  0.5237  0.5639
15826TIP3   OH268892   0.147   4.160   5.236  0.4270  0.1496 -0.2153
15826TIP3    H168893   0.181   4.154   5.147 -0.3885  0.5705 -0.5581
15826TIP3    H268894   0.163   4.251   5.262 -0.8286  0.4867 -0.5544
15827TIP3   OH268895   2.781   5.166   3.843  0.1839 -0.4302 -0.2794
15827TIP3    H168896   2.774   5.213   3.760  0.8396  1.8575  0.8791
15827TIP3    H268897   2.845   5.097   3.827  0.2288 -0.0830 -1.6954
15828TIP3   OH268898   5.452   5.333   2.763 -0.5127 -0.2379 -0.0102
15828TIP3    H168899   5.420   5.282   2.838  0.4045  1.3854  1.5510
15828TIP3    H268900   5.387   5.401   2.750  0.6962  1.2360  1.2357
15829TIP3   OH268901   5.545   5.447  14.080  0.5717 -0.2654 -0.1025
15829TIP3    H168902   5.569   5.536  14.054  0.3437  0.4521  1.9043
15829TIP3    H268903   5.548   5.396  13.999  3.2417  0.9902 -0.8969
15830TIP3   OH268904   5.763   2.359   4.962  0.2699  0.3573 -0.1334
15830TIP3    H168905   5.680   2.388   4.925  0.4105  1.4056  0.3264
15830TIP3    H268906   5.759   2.385   5.055  1.3452  1.0008 -0.2414
15831TIP3   OH268907   2.151   4.465  12.971 -0.3536 -0.5919 -0.1727
15831TIP3    H168908   2.080   4.523  12.943 -1.2344 -0.5562  1.9319
15831TIP3    H268909   2.109   4.379  12.978  0.2901 -0.9550 -0.6991
15832TIP3   OH268910   0.281   1.261  17.154 -0.2946 -0.3193  0.0556
15832TIP3    H168911   0.337   1.183  17.144  0.5435  0.1798  0.7372
15832TIP3    H268912   0.303   1.315  17.078 -0.1379 -0.2973  0.1162
15833TIP3   OH268913   3.491   2.330   4.766 -0.1086 -0.2718  0.3841
15833TIP3    H168914   3.459   2.327   4.676 -0.4985  2.3892  0.3634
15833TIP3    H268915   3.575   2.283   4.763 -0.9504 -1.7579 -0.9384
15834TIP3   OH268916   5.452   2.465  16.965 -0.2357  0.1009  0.0409
15834TIP3    H168917   5.385   2.502  17.022  1.1255  0.9340  1.1387
15834TIP3    H268918   5.452   2.522  16.888 -0.7161  0.1585  0.0826
15835TIP3   OH268919   0.989   5.474  11.781  0.4223 -0.4079 -0.0108
15835TIP3    H168920   0.967   5.390  11.741  1.8411  0.0388 -1.8416
15835TIP3    H268921   1.028   5.525  11.710  2.8787  0.5307  1.8616
15836TIP3   OH268922   4.846   5.068  15.202  0.4455  0.4021  1.0368
15836TIP3    H168923   4.902   5.145  15.210  1.1307 -0.0106  0.3747
15836TIP3    H268924   4.894   4.998  15.245  0.2698  0.1277  0.7980
15837TIP3   OH268925   6.428   6.721  17.349 -0.7342  0.0693  0.2058
15837TIP3    H168926   6.399   6.645  17.400 -0.9353  1.0488  1.6130
15837TIP3    H268927   6.518   6.737  17.377 -0.2273 -0.4240 -1.0624
15838TIP3   OH268928   3.570   4.526   5.093 -1.1463  0.0791  0.5826
15838TIP3    H168929   3.603   4.539   5.182  0.5107  1.3649 -0.1634
15838TIP3    H268930   3.641   4.480   5.048 -1.8235 -0.2497 -0.1667
15839TIP3   OH268931   5.108   5.041   0.679 -0.4432  0.2072 -0.0484
15839TIP3    H168932   5.049   4.967   0.661  0.6166 -0.7744  0.3700
15839TIP3    H268933   5.055   5.118   0.661 -0.7201 -0.5963 -3.4683
15840TIP3   OH268934   4.611   5.304   4.862  0.1259  0.2365  0.1843
15840TIP3    H168935   4.597   5.371   4.929  0.2668  1.3074 -0.8163
15840TIP3    H268936   4.630   5.224   4.911  0.9859  1.1561  1.4106
15841TIP3   OH268937   1.076   6.726   0.798  0.1320  0.4842  0.7056
15841TIP3    H168938   0.986   6.755   0.783  0.2823  1.1200  0.9950
15841TIP3    H268939   1.093   6.747   0.890  1.3764  2.6543  0.0699
15842TIP3   OH268940   2.550   4.001   5.029 -0.2311  0.1320 -0.3547
15842TIP3    H168941   2.570   4.087   5.066  0.2442  0.0176 -0.3425
15842TIP3    H268942   2.594   3.939   5.088 -0.4324 -0.1116 -0.4580
15843TIP3   OH268943   2.640   0.932   1.223 -0.3553  0.4288 -0.0891
15843TIP3    H168944   2.552   0.966   1.209  0.0014  1.9904  1.1673
15843TIP3    H268945   2.698   1.008   1.215  0.9459 -0.6180 -1.2281
15844TIP3   OH268946   1.819   2.975   0.697 -0.4578 -0.1604  0.6910
15844TIP3    H168947   1.849   3.065   0.700  1.6173 -0.7628 -0.4169
15844TIP3    H268948   1.890   2.927   0.655 -0.2182 -2.8234  3.7043
15845TIP3   OH268949   5.413   6.507   5.202 -0.3140 -0.4612  0.4846
15845TIP3    H168950   5.347   6.567   5.237  0.4800  0.7611 -0.0590
15845TIP3    H268951   5.495   6.555   5.208  0.1919 -1.0982 -0.9207
15846TIP3   OH268952   4.600   1.648  13.051 -0.6216  0.4218  0.2699
15846TIP3    H168953   4.618   1.665  12.958  0.7075  4.1164  1.0469
15846TIP3    H268954   4.511   1.614  13.052 -0.5916  0.0526 -2.3675
15847TIP3   OH268955   2.907   1.496  14.632 -0.0400  0.1074  0.2426
15847TIP3    H168956   2.843   1.489  14.703 -2.1300  4.6677 -0.8066
15847TIP3    H268957   2.855   1.491  14.552  1.1375  1.9698 -0.7126
15848TIP3   OH268958   4.481   1.287  12.050 -0.5178  0.0067 -0.3923
15848TIP3    H168959   4.497   1.321  12.138  1.3211 -0.1483 -0.6294
15848TIP3    H268960   4.414   1.220  12.062 -0.0043 -0.3003  0.9760
15849TIP3   OH268961   4.826   1.026  12.226  0.3496 -0.2904 -0.3214
15849TIP3    H168962   4.833   1.118  12.200  1.1933  0.5515  2.5750
15849TIP3    H268963   4.846   0.978  12.145  1.2397  2.0496 -1.6248
15850TIP3   OH268964   2.680   3.430   0.726 -0.2440  0.2385 -0.0846
15850TIP3    H168965   2.610   3.491   0.749  0.6067  0.6347  1.6805
15850TIP3    H268966   2.756   3.486   0.710 -0.3267 -0.1701 -2.1580
15851TIP3   OH268967   1.061   0.744  16.343  0.1760  0.1445 -0.4314
15851TIP3    H168968   1.007   0.817  16.312 -2.7091 -1.3947  0.6333
15851TIP3    H268969   1.045   0.674  16.280  0.8341 -0.3829 -0.0204
15852TIP3   OH268970   4.465   4.497  11.598 -0.2746  0.0640  0.1097
15852TIP3    H168971   4.395   4.561  11.613 -0.3745 -0.2814  1.1750
15852TIP3    H268972   4.424   4.428  11.546 -1.4090 -1.2544  2.5884
15853TIP3   OH268973   1.954   4.151  14.244 -0.3162  0.3444  0.3291
15853TIP3    H168974   1.897   4.197  14.305  0.1105 -0.6300  1.4923
15853TIP3    H268975   2.029   4.210  14.232  0.5832 -0.3048  2.3917
15854TIP3   OH268976   0.557   5.950   4.756  1.1250 -0.1482 -0.2349
15854TIP3    H168977   0.586   6.019   4.697  0.3063  1.3653  1.0404
15854TIP3    H268978   0.464   5.937   4.734  1.1131 -0.4090 -0.0455
15855TIP3   OH268979   6.603   4.895  12.891 -0.2233  0.3158  0.2836
15855TIP3    H168980   6.570   4.967  12.945 -0.6970  0.8200 -0.6507
15855TIP3    H268981   6.685   4.929  12.855 -0.6498  0.5638 -0.4825
15856TIP3   OH268982   6.223   3.438   0.799 -0.0691  0.2077  0.1445
15856TIP3    H168983   6.229   3.476   0.886  1.3634 -0.1407  0.2174
15856TIP3    H268984   6.180   3.354   0.812  1.5445 -0.5572  0.7712
15857TIP3   OH268985   6.288   4.239  17.181 -0.1971 -0.3770  0.4129
15857TIP3    H168986   6.365   4.205  17.228 -0.2817 -0.8165  0.2444
15857TIP3    H268987   6.225   4.259  17.250 -0.4088 -1.2437  0.4832
15858TIP3   OH268988   1.714   5.220   3.169  0.3090 -0.1452 -0.0824
15858TIP3    H168989   1.630   5.209   3.124  0.2118 -1.0407  0.2916
15858TIP3    H268990   1.708   5.305   3.211 -0.2661 -0.0354 -0.3734
15859TIP3   OH268991   4.903   3.322  13.363 -0.4066  0.0186  0.0636
15859TIP3    H168992   4.977   3.268  13.334  0.0348  0.7186 -0.1509
15859TIP3    H268993   4.924   3.344  13.453 -0.3042  0.3017 -0.0295
15860TIP3   OH268994   2.480   1.204  13.868  0.3617  0.4539  0.0806
15860TIP3    H168995   2.453   1.187  13.958  1.9998 -2.0561  0.1881
15860TIP3    H268996   2.398   1.219  13.821 -0.7119 -0.5193  1.5479
15861TIP3   OH268997   5.281   1.401   0.860  0.4115  0.5480 -0.1554
15861TIP3    H168998   5.315   1.316   0.832 -0.6752  0.0971 -0.1571
15861TIP3    H268999   5.307   1.409   0.952 -1.2918 -0.7723  0.4914
15862TIP3   OH269000   2.767   5.887   4.633  0.3945  0.3259  0.4347
15862TIP3    H169001   2.723   5.832   4.568 -0.8373  2.0577 -0.2915
15862TIP3    H269002   2.738   5.976   4.612 -0.0013  0.9618  3.3505
15863TIP3   OH269003   3.382   3.024   5.336  0.0388  0.4346 -0.0957
15863TIP3    H169004   3.333   3.084   5.393 -0.2575 -0.6457  0.8271
15863TIP3    H269005   3.334   3.023   5.254 -0.8494  0.2626  0.4166
15864TIP3   OH269006   5.123   5.471  14.057  0.3352 -0.1991 -0.0667
15864TIP3    H169007   5.044   5.515  14.027 -0.2241 -0.9690  0.2274
15864TIP3    H269008   5.094   5.382  14.078  1.4618 -0.7737 -0.8367
15865TIP3   OH269009   4.164   5.555   6.037  0.4376 -0.0491 -0.0110
15865TIP3    H169010   4.146   5.580   6.128  0.1228  0.1499 -0.1292
15865TIP3    H269011   4.194   5.464   6.043  1.4627  0.2930  0.4086
15866TIP3   OH269012   5.576   4.575  12.774  0.1327  0.1894 -0.4076
15866TIP3    H169013   5.643   4.633  12.739 -0.3089  1.1903  0.3537
15866TIP3    H269014   5.527   4.629  12.837  0.1711 -1.1959  0.8812
15867TIP3   OH269015   5.128   1.698   0.974 -0.0420  0.3452 -0.1333
15867TIP3    H169016   5.076   1.621   0.998 -0.4663  0.9354  0.9116
15867TIP3    H269017   5.217   1.675   1.002  0.1474 -0.3824 -1.2730
15868TIP3   OH269018   6.080   0.368  15.236  0.6794  0.1236  0.3307
15868TIP3    H169019   6.046   0.338  15.320 -1.5674  3.5592  0.8639
15868TIP3    H269020   6.111   0.457  15.252  0.2891  0.8691 -2.4003
15869TIP3   OH269021   3.195   2.706   3.013  0.5316 -0.3306  0.2648
15869TIP3    H169022   3.213   2.677   2.924 -0.7503 -0.2357 -0.0482
15869TIP3    H269023   3.122   2.652   3.043 -0.5347  1.1214  0.4204
15870TIP3   OH269024   4.806   3.782   3.869 -0.4283 -0.3123  0.5938
15870TIP3    H169025   4.837   3.798   3.780 -0.0002 -1.0735  0.6025
15870TIP3    H269026   4.848   3.850   3.922 -2.6644  1.7956 -0.1391
15871TIP3   OH269027   0.008   2.036  10.545  0.1380  0.1512 -0.5901
15871TIP3    H169028  -0.038   2.090  10.481 -1.1614  0.1853  0.3352
15871TIP3    H269029  -0.061   1.986  10.588  1.2796 -2.3483 -1.4574
15872TIP3   OH269030   6.050   0.541   2.843 -0.1507 -0.5306 -0.1040
15872TIP3    H169031   6.081   0.629   2.864 -1.5348  0.3648 -1.5305
15872TIP3    H269032   6.048   0.495   2.927  0.9179  0.6752  0.6191
15873TIP3   OH269033   2.141   1.807  11.970  0.2434  0.6176  0.2637
15873TIP3    H169034   2.196   1.779  11.897  2.5233  1.5543  1.5394
15873TIP3    H269035   2.052   1.784  11.942  1.1157  0.0354 -2.3579
15874TIP3   OH269036   2.490   6.053  13.250  0.4421  0.1807  0.0866
15874TIP3    H169037   2.397   6.038  13.233  0.8130 -1.8449 -0.4550
15874TIP3    H269038   2.496   6.070  13.344 -0.5841  1.5405 -0.0720
15875TIP3   OH269039   6.572   1.604  14.861  0.5019  0.9450 -0.3215
15875TIP3    H169040   6.644   1.666  14.849  0.8793  0.9824  1.8144
15875TIP3    H269041   6.537   1.591  14.773  3.1374  0.8635 -1.4484
15876TIP3   OH269042   0.936   3.079  13.276  0.0812 -0.3085 -0.1825
15876TIP3    H169043   0.977   3.149  13.326 -2.8183  0.8339  0.8508
15876TIP3    H269044   0.918   3.118  13.190 -0.6791 -0.0662  0.0769
15877TIP3   OH269045   0.040   0.817   2.777  0.6737 -0.3039 -0.3665
15877TIP3    H169046   0.059   0.742   2.719  1.0229 -0.0065 -0.6416
15877TIP3    H269047  -0.050   0.841   2.754  1.3382  0.8366 -1.9764
15878TIP3   OH269048   2.531   4.578  11.917 -0.3856  1.2670 -0.1885
15878TIP3    H169049   2.564   4.666  11.896  0.3106  1.0018 -0.2027
15878TIP3    H269050   2.497   4.545  11.834  0.6912  0.9456 -0.5072
15879TIP3   OH269051   2.352   5.659   0.158  0.0670  0.4157 -0.3606
15879TIP3    H169052   2.420   5.593   0.171  1.2738  1.4238 -1.2314
15879TIP3    H269053   2.301   5.658   0.239  2.3156  0.9398  1.1640
15880TIP3   OH269054   0.442   0.826   1.537  0.1381  0.3107  0.0027
15880TIP3    H169055   0.464   0.887   1.607 -0.7603  0.4448  0.1793
15880TIP3    H269056   0.348   0.811   1.546  0.5967 -2.6777  1.2538
15881TIP3   OH269057   4.532   6.752   5.427 -0.1824 -0.1718  0.3334
15881TIP3    H169058   4.607   6.739   5.485  1.0505  0.1816 -1.1139
15881TIP3    H269059   4.516   6.666   5.389 -1.1220 -0.4491  1.3138
15882TIP3   OH269060   4.761   6.756  12.831  0.9747 -0.4947  0.3943
15882TIP3    H169061   4.815   6.728  12.905  1.1111  0.9598  0.8827
15882TIP3    H269062   4.681   6.790  12.872  1.2488  0.7660 -0.0701
15883TIP3   OH269063   3.871   0.481   2.010 -0.2396 -0.5363 -0.0234
15883TIP3    H169064   3.843   0.534   1.936 -1.3572  1.8708  1.9678
15883TIP3    H269065   3.960   0.512   2.030 -0.2027 -0.6877  0.0498
15884TIP3   OH269066   4.733   3.581   0.222 -0.1818 -0.0292 -0.4000
15884TIP3    H169067   4.642   3.599   0.247 -0.5901  1.0086 -2.4064
15884TIP3    H269068   4.782   3.655   0.258  0.1640 -1.2863  1.8948
15885TIP3   OH269069   3.588   3.918   1.272 -0.1008  0.4719 -0.7305
15885TIP3    H169070   3.592   3.829   1.308 -0.6759  0.9738  0.6396
15885TIP3    H269071   3.661   3.922   1.209  1.6044 -0.1710  1.1062
15886TIP3   OH269072   0.603   6.052   6.077  0.0517 -0.2924  0.1416
15886TIP3    H169073   0.572   6.028   6.164 -0.4691  1.5170  0.5100
15886TIP3    H269074   0.695   6.025   6.075  0.7196  1.5021  2.0893
15887TIP3   OH269075   4.643   3.273   3.621 -0.0867  0.1313  0.2271
15887TIP3    H169076   4.582   3.200   3.621 -0.7578  0.6764  1.5530
15887TIP3    H269077   4.670   3.282   3.712  0.8815  0.8104 -0.1108
15888TIP3   OH269078   4.006   5.171   1.388 -0.4146  0.0080  0.3642
15888TIP3    H169079   4.027   5.120   1.466 -0.2006  2.4537  2.0093
15888TIP3    H269080   3.914   5.193   1.398 -0.5477 -0.2017 -0.3949
15889TIP3   OH269081   1.605   3.985  13.003  0.5514 -0.2292 -0.0261
15889TIP3    H169082   1.521   3.954  12.968  0.4397  1.4539 -1.3865
15889TIP3    H269083   1.618   4.070  12.961  2.2320  0.2167  1.3094
15890TIP3   OH269084   0.168   4.115   3.064  0.5348  0.2373  0.0073
15890TIP3    H169085   0.264   4.120   3.065  0.5748  0.0035 -1.3330
15890TIP3    H269086   0.148   4.039   3.119  1.1493 -0.0983 -0.2236
15891TIP3   OH269087   4.430   5.160  13.929  0.2509  0.2584 -0.2986
15891TIP3    H169088   4.494   5.114  13.984 -0.9464 -2.6283 -1.1685
15891TIP3    H269089   4.383   5.217  13.990 -1.7039 -3.5256  2.1362
15892TIP3   OH269090   6.425   6.332  11.354  0.0276 -0.6984 -0.1799
15892TIP3    H169091   6.440   6.241  11.379  1.7060  0.1034  2.0216
15892TIP3    H269092   6.509   6.361  11.318 -0.7065 -0.1966 -1.5311
15893TIP3   OH269093   6.179   5.489  16.147  0.2158  0.0293 -0.0520
15893TIP3    H169094   6.154   5.537  16.068 -0.3662 -1.4204 -0.7773
15893TIP3    H269095   6.275   5.486  16.143  0.2303  0.6191 -0.2915
15894TIP3   OH269096   4.817   0.617   1.733  0.7426 -0.4313  0.2212
15894TIP3    H169097   4.892   0.646   1.785  1.3700  1.6291 -1.6591
15894TIP3    H269098   4.855   0.585   1.651 -0.3200 -1.4727  0.1115
15895TIP3   OH269099   5.835   0.180  11.985 -0.0092 -0.4818 -0.8614
15895TIP3    H169100   5.771   0.191  11.915 -0.1910  1.1284 -0.4652
15895TIP3    H269101   5.795   0.220  12.062  1.0217 -0.4419 -0.3298
15896TIP3   OH269102   0.866   2.751  17.308 -0.3656 -0.4042  0.4805
15896TIP3    H169103   0.841   2.759  17.216  1.3446 -0.0672  0.0177
15896TIP3    H269104   0.885   2.840  17.336  1.3992 -0.7371  0.4588
15897TIP3   OH269105   1.036   0.900   5.786 -0.1700  0.2753 -0.1781
15897TIP3    H169106   1.074   0.986   5.805 -2.6464  1.6301 -0.8831
15897TIP3    H269107   1.106   0.851   5.742  0.6199  2.7812 -1.9144
15898TIP3   OH269108   2.294   0.967  13.755  0.6102 -0.1157  0.7580
15898TIP3    H169109   2.339   0.919  13.685  1.1933  0.5120  0.6874
15898TIP3    H269110   2.250   1.039  13.710  0.0425 -0.3695  0.9052
15899TIP3   OH269111   5.072   3.035   5.335 -0.0303 -0.0093 -0.1502
15899TIP3    H169112   5.140   2.968   5.327 -1.1080 -1.6827  2.8530
15899TIP3    H269113   5.007   3.010   5.269  0.7965 -0.2965 -0.8826
15900TIP3   OH269114   1.159   4.101   5.090  0.2768 -0.2762  0.3050
15900TIP3    H169115   1.168   4.147   5.173  0.2272  0.4053 -0.0634
15900TIP3    H269116   1.164   4.008   5.113 -0.7063 -0.1180  1.1808
15901TIP3   OH269117   3.456   3.276  13.686 -0.9630  0.2546  0.2492
15901TIP3    H169118   3.510   3.308  13.758 -0.2385  2.2896 -1.1119
15901TIP3    H269119   3.371   3.319  13.699 -0.4764  1.5607 -0.7016
15902TIP3   OH269120   4.454   0.202  11.561  0.8668 -0.5192  0.2371
15902TIP3    H169121   4.498   0.196  11.476  1.0828 -0.0420  0.3131
15902TIP3    H269122   4.508   0.262  11.612  0.6729 -0.7141  0.6765
15903TIP3   OH269123   0.780   5.522  11.543 -1.0553 -0.1381  0.3218
15903TIP3    H169124   0.857   5.466  11.553 -2.1252 -1.4210  1.7775
15903TIP3    H269125   0.724   5.475  11.481 -1.0141  0.4122 -0.1405
15904TIP3   OH269126   4.841   6.042   1.479 -0.6779 -0.0713  0.0769
15904TIP3    H169127   4.899   6.015   1.408  0.4856  0.7141  0.6820
15904TIP3    H269128   4.765   6.079   1.436 -0.2284 -0.0914 -0.7561
15905TIP3   OH269129   3.387   1.656  12.180 -0.0985  0.1578  0.2067
15905TIP3    H169130   3.426   1.655  12.267 -0.0752 -2.2792  0.2476
15905TIP3    H269131   3.416   1.574  12.140 -1.2604  0.5517 -1.5835
15906TIP3   OH269132   5.244   5.895  13.757  0.2005  0.6440  0.0976
15906TIP3    H169133   5.268   5.821  13.702 -2.3082 -1.0831  1.0884
15906TIP3    H269134   5.293   5.969  13.722  0.9327 -0.9554 -2.5430
15907TIP3   OH269135   4.915   6.352  15.827  0.4905 -0.3036  0.2419
15907TIP3    H169136   4.876   6.373  15.912 -1.1528 -0.9935 -0.3057
15907TIP3    H269137   4.893   6.427  15.772  1.0839 -0.1103  0.2552
15908TIP3   OH269138   1.084   4.024   0.883  0.1908  0.8994 -0.4704
15908TIP3    H169139   1.006   3.980   0.918 -0.9317  1.6784 -1.8893
15908TIP3    H269140   1.125   4.064   0.959  0.2551 -1.0620  0.5874
15909TIP3   OH269141   4.124   4.733   3.519  0.0270 -0.0029  0.2378
15909TIP3    H169142   4.060   4.763   3.454  0.9482  1.3889 -0.0826
15909TIP3    H269143   4.074   4.677   3.578 -1.5904  1.3713  0.2537
15910TIP3   OH269144   0.392   3.784   4.047 -0.5261  0.4325  0.0066
15910TIP3    H169145   0.409   3.692   4.066  2.5202  0.6665 -1.0024
15910TIP3    H269146   0.335   3.813   4.118 -0.7737 -1.9725  0.8939
15911TIP3   OH269147   1.054   2.006  14.083  0.2440 -0.1067 -0.5687
15911TIP3    H169148   1.109   2.070  14.038  0.3140 -0.8916 -1.6217
15911TIP3    H269149   1.066   2.026  14.176  0.9539  0.8381 -0.8481
15912TIP3   OH269150   4.388   5.608  16.629  1.0983 -0.5003 -0.3430
15912TIP3    H169151   4.334   5.537  16.592  1.1990 -0.2130 -1.0491
15912TIP3    H269152   4.384   5.678  16.564  1.2755  0.0218  0.1979
15913TIP3   OH269153   3.124   3.004  12.587 -0.3820  0.4617  0.6899
15913TIP3    H169154   3.091   3.085  12.626 -0.3178  0.4372  0.7959
15913TIP3    H269155   3.177   2.964  12.656  1.0479  1.2054  0.0888
15914TIP3   OH269156   6.428   6.690  15.231  0.3610  0.0470  0.0326
15914TIP3    H169157   6.341   6.650  15.231 -0.3455  1.5044  0.9977
15914TIP3    H269158   6.411   6.784  15.230  1.9672  0.3778 -1.6953
15915TIP3   OH269159   2.098   4.959   1.933 -0.0961 -0.3720 -0.1286
15915TIP3    H169160   2.135   4.878   1.968  1.3824  0.6604  0.8136
15915TIP3    H269161   2.080   5.013   2.011  0.8643  0.9870 -0.8103
15916TIP3   OH269162   2.869   1.418   2.954 -0.3539 -0.3892 -0.0928
15916TIP3    H169163   2.885   1.503   2.913  0.6446 -0.3300  0.3762
15916TIP3    H269164   2.939   1.362   2.920  0.0598 -0.5253  0.9378
15917TIP3   OH269165   0.124   3.178   0.356  0.5424 -0.3903 -0.0426
15917TIP3    H169166   0.161   3.129   0.429 -0.0066  0.7134  0.9987
15917TIP3    H269167   0.147   3.269   0.373 -2.1894  0.3160  0.4465
15918TIP3   OH269168   3.718   5.022   0.602  0.1441 -0.2997  0.5969
15918TIP3    H169169   3.794   5.078   0.585  0.0099  0.0757  1.1818
15918TIP3    H269170   3.755   4.934   0.614  0.5929  0.0289  1.7354
15919TIP3   OH269171   4.848   4.481   2.836 -0.1190 -0.4764 -0.4634
15919TIP3    H169172   4.808   4.489   2.750 -2.1215 -1.4091  0.3272
15919TIP3    H269173   4.835   4.390   2.861  1.7269 -0.5955  0.2501
15920TIP3   OH269174   5.908   3.393   2.662  0.1526  0.1983  0.2696
15920TIP3    H169175   5.985   3.374   2.608  0.7373 -0.6978  1.3862
15920TIP3    H269176   5.943   3.416   2.747 -0.8222 -1.0769  1.0520
15921TIP3   OH269177   4.324   5.791  12.269 -0.1042  0.2230 -0.3587
15921TIP3    H169178   4.287   5.720  12.217 -1.3725 -0.0098  0.7999
15921TIP3    H269179   4.413   5.763  12.289  0.5206  0.4560 -2.5884
15922TIP3   OH269180   4.574   1.009   0.262  0.6690 -0.3825  0.2250
15922TIP3    H169181   4.589   0.919   0.231  0.6957 -0.6817  1.0653
15922TIP3    H269182   4.655   1.055   0.241  1.1854 -0.9112  0.9821
15923TIP3   OH269183   0.388   3.570  13.365  0.4360 -0.0776  0.2858
15923TIP3    H169184   0.439   3.498  13.401 -0.8705 -0.9735  0.4140
15923TIP3    H269185   0.450   3.620  13.312  1.7518 -0.3269  1.5228
15924TIP3   OH269186   5.175   0.020  15.156  0.4848 -0.1385  0.0686
15924TIP3    H169187   5.085   0.041  15.130 -0.4568  0.3136  3.2123
15924TIP3    H269188   5.175  -0.075  15.165  1.5891 -0.6363 -3.7196
15925TIP3   OH269189   3.930   1.932   3.761 -0.3086 -0.2190  0.3596
15925TIP3    H169190   4.010   1.903   3.718 -1.1796 -0.1512 -1.3989
15925TIP3    H269191   3.935   2.027   3.759 -1.1304 -0.1728 -1.2429
15926TIP3   OH269192   3.444   3.227  12.982 -0.1333 -0.4363 -0.1094
15926TIP3    H169193   3.534   3.245  12.957 -0.1326 -1.1356 -0.6517
15926TIP3    H269194   3.418   3.302  13.034  0.5407  0.0914 -0.5166
15927TIP3   OH269195   3.201   1.530   0.510  0.7189 -0.0131 -0.3254
15927TIP3    H169196   3.162   1.551   0.426 -0.0601  0.0792  0.0470
15927TIP3    H269197   3.231   1.614   0.545 -0.4875  0.2150  0.2252
15928TIP3   OH269198   4.876   0.484   2.918 -0.2461 -0.0608 -0.1370
15928TIP3    H169199   4.902   0.576   2.919 -1.1163  0.2602 -2.2118
15928TIP3    H269200   4.940   0.441   2.860 -1.3812 -0.2133 -1.3194
15929TIP3   OH269201   3.949   0.147  15.649 -0.3409  0.1026 -0.1332
15929TIP3    H169202   3.857   0.140  15.676  0.1197 -1.2779  1.2487
15929TIP3    H269203   3.973   0.058  15.623  0.2739  0.7020 -1.7289
15930TIP3   OH269204   6.452   2.419  13.132 -0.2262 -0.2002 -0.7443
15930TIP3    H169205   6.420   2.429  13.042 -0.5901 -0.7425 -0.6776
15930TIP3    H269206   6.511   2.344  13.129  0.3760  0.2600 -0.6834
15931TIP3   OH269207   3.954   6.625  15.547 -0.5732 -0.3633 -0.1322
15931TIP3    H169208   3.879   6.647  15.492 -0.5434  1.6555  0.5586
15931TIP3    H269209   3.995   6.550  15.503 -0.8088  0.8652 -2.6107
15932TIP3   OH269210   0.785   6.534   1.048 -0.0245 -0.3009  0.5608
15932TIP3    H169211   0.870   6.534   1.093 -0.8277  0.0599  2.1390
15932TIP3    H269212   0.774   6.624   1.018 -0.3344 -0.0693  1.3437
15933TIP3   OH269213   2.081   0.577  17.005  0.0605 -0.0049 -0.5394
15933TIP3    H169214   2.097   0.570  16.911 -0.2875 -0.2481 -0.5848
15933TIP3    H269215   2.077   0.486  17.035  0.3897  0.0757 -0.2518
15934TIP3   OH269216   2.095   1.420  12.808  0.1152 -0.7674 -0.6443
15934TIP3    H169217   2.045   1.358  12.756  0.7521 -0.1931 -1.9724
15934TIP3    H269218   2.029   1.464  12.863 -0.9768  0.3439 -2.7275
15935TIP3   OH269219   3.213   2.087   4.274  0.1251  0.2940 -0.0297
15935TIP3    H169220   3.259   2.047   4.201  1.3635 -0.0999  0.9225
15935TIP3    H269221   3.257   2.172   4.286 -0.4038  0.5779 -0.0496
15936TIP3   OH269222   0.711   2.816   0.413 -0.4018  0.5954  0.0483
15936TIP3    H169223   0.786   2.836   0.358 -0.3726  0.9525  0.2175
15936TIP3    H269224   0.690   2.898   0.457 -1.5198  0.7561 -0.7461
15937TIP3   OH269225   5.056   6.519  16.170  0.1096  0.5096  0.2377
15937TIP3    H169226   5.128   6.541  16.111  0.4560  0.2892  0.5767
15937TIP3    H269227   4.987   6.485  16.112  1.4760 -2.4360  0.1620
15938TIP3   OH269228   3.516   4.271  11.754 -0.5182 -0.2609  0.0721
15938TIP3    H169229   3.430   4.304  11.727 -0.4795 -0.5211 -0.3918
15938TIP3    H269230   3.496   4.196  11.810 -0.6095  0.7218  1.3894
15939TIP3   OH269231   0.485   4.300  16.647  0.0203  0.2096 -0.0708
15939TIP3    H169232   0.550   4.370  16.655 -1.3266  1.3231  1.6028
15939TIP3    H269233   0.406   4.343  16.614  0.1138 -1.1839 -2.4139
15940TIP3   OH269234   1.802   2.354  14.816 -0.2128 -0.4729 -0.2041
15940TIP3    H169235   1.710   2.326  14.812 -0.3559  0.1321 -2.0828
15940TIP3    H269236   1.812   2.411  14.740  1.8647 -0.9373 -0.3148
15941TIP3   OH269237   0.032   5.815   3.399  0.2139 -0.8344 -0.0684
15941TIP3    H169238  -0.033   5.855   3.458  0.0112 -1.4492  0.1269
15941TIP3    H269239   0.029   5.871   3.321  1.0281  0.4422  0.7736
15942TIP3   OH269240   3.154   0.479  12.304  0.8888  0.1570  0.3208
15942TIP3    H169241   3.097   0.556  12.304  1.4269  0.5605 -0.0146
15942TIP3    H269242   3.180   0.469  12.396  2.4677  1.6266  0.0801
15943TIP3   OH269243   0.461   6.394  17.154  0.7963  0.7573  0.1745
15943TIP3    H169244   0.415   6.474  17.129  0.0215  0.0787 -0.6199
15943TIP3    H269245   0.549   6.404  17.118  0.7146  1.2652  0.1110
15944TIP3   OH269246   0.841   1.245  12.449 -0.0589 -0.0717  0.5295
15944TIP3    H169247   0.932   1.222  12.427 -1.1616 -2.5277 -2.1841
15944TIP3    H269248   0.827   1.208  12.536  1.5317  0.3544  0.9980
15945TIP3   OH269249   3.699   5.686   2.592 -0.3572  0.1300 -0.4684
15945TIP3    H169250   3.794   5.683   2.582 -0.4445 -0.9869 -1.0867
15945TIP3    H269251   3.668   5.605   2.551 -1.6404  0.8853 -1.0420
15946TIP3   OH269252   0.383   3.562   5.913  0.3759  0.2719 -0.3881
15946TIP3    H169253   0.465   3.610   5.908  0.4989  0.0884 -0.1276
15946TIP3    H269254   0.320   3.626   5.947  0.6626  0.0977  0.4842
15947TIP3   OH269255   4.281   5.643   2.653 -0.0413  0.1332 -0.7045
15947TIP3    H169256   4.351   5.709   2.652  0.4491 -0.3883 -1.1840
15947TIP3    H269257   4.256   5.633   2.561 -0.3765 -0.0877 -0.5933
15948TIP3   OH269258   4.754   0.437   5.814  0.7639 -0.0277  1.0079
15948TIP3    H169259   4.808   0.429   5.735 -0.1263  0.6722  0.3068
15948TIP3    H269260   4.742   0.346   5.844  0.5367 -0.3697 -0.0710
15949TIP3   OH269261   6.410   5.620  12.468 -0.0099 -0.0166  0.1072
15949TIP3    H169262   6.471   5.556  12.430  1.5069  2.3170 -1.7031
15949TIP3    H269263   6.435   5.625  12.560  1.4540 -0.2885 -0.2515
15950TIP3   OH269264   5.623   5.240  16.266 -0.1298 -0.3176  0.4571
15950TIP3    H169265   5.683   5.166  16.261  0.4981  0.2304 -0.3521
15950TIP3    H269266   5.553   5.220  16.203  0.5008  0.1692 -0.4166
15951TIP3   OH269267   6.598   6.090   0.459  0.2310  0.2932 -0.0365
15951TIP3    H169268   6.678   6.120   0.418  0.9149 -3.9494 -2.2950
15951TIP3    H269269   6.555   6.035   0.394 -2.9454 -0.1953  2.1763
15952TIP3   OH269270   4.461   5.329  13.703  0.4701  0.3083  0.6593
15952TIP3    H169271   4.381   5.319  13.653  0.5034 -1.6385  0.9276
15952TIP3    H269272   4.447   5.278  13.782  1.6522  0.6384  1.1079
15953TIP3   OH269273   1.556   1.544  15.479 -0.2068 -0.0757  0.3908
15953TIP3    H169274   1.618   1.551  15.551  1.9199  2.1555 -1.5001
15953TIP3    H269275   1.608   1.559  15.400 -2.5293 -1.7740 -1.6513
15954TIP3   OH269276   4.177   3.918   4.528  0.6169 -0.5942 -0.8699
15954TIP3    H169277   4.130   3.997   4.556  0.4887 -1.2733  0.9806
15954TIP3    H269278   4.267   3.947   4.516  1.4739 -0.6918  3.4158
15955TIP3   OH269279   1.340   5.982  10.623 -0.5551 -0.4219 -0.5504
15955TIP3    H169280   1.426   5.946  10.644 -0.5126  0.0092  0.0509
15955TIP3    H269281   1.352   6.077  10.627 -1.1987 -0.3605  0.1280
15956TIP3   OH269282   2.971   4.765  13.413  0.0474 -0.4533  0.0101
15956TIP3    H169283   2.886   4.722  13.401 -1.0429  0.9559  2.0545
15956TIP3    H269284   3.030   4.718  13.355 -2.2410 -1.1125 -1.9551
15957TIP3   OH269285   4.870   3.349   0.169  0.1361  0.3766 -0.2655
15957TIP3    H169286   4.875   3.305   0.254  3.5759  1.7615  0.4152
15957TIP3    H269287   4.826   3.432   0.187 -2.6818 -0.9214 -0.7349
15958TIP3   OH269288   3.714   6.213  12.048 -0.1849  1.1386 -0.3569
15958TIP3    H169289   3.777   6.251  12.109  0.5755 -0.2432 -0.2462
15958TIP3    H269290   3.749   6.126  12.028 -1.1738  1.0046 -1.6362
15959TIP3   OH269291   0.345   1.619  11.345 -0.6019 -0.4964 -0.0012
15959TIP3    H169292   0.277   1.621  11.412  0.1908  2.2439  0.8695
15959TIP3    H269293   0.306   1.664  11.270 -0.4310 -0.7120 -0.2202
15960TIP3   OH269294   2.579   3.987   0.211  0.5815 -0.3956 -0.4321
15960TIP3    H169295   2.511   4.053   0.220  2.1718  1.2289  0.1472
15960TIP3    H269296   2.532   3.908   0.185 -1.5229  0.6190  0.0902
15961TIP3   OH269297   5.669   4.426  15.931 -0.2294  0.5817  0.9262
15961TIP3    H169298   5.745   4.389  15.976  0.9911  1.2921 -0.4647
15961TIP3    H269299   5.619   4.350  15.901  0.3953  0.0891  1.1192
15962TIP3   OH269300   5.144   5.108   3.270  0.4701 -0.7209 -0.0140
15962TIP3    H169301   5.209   5.178   3.265 -0.5427  0.3980  1.6084
15962TIP3    H269302   5.153   5.074   3.359 -2.5844  0.9820  1.0992
15963TIP3   OH269303   4.136   6.652   0.935 -0.0013 -0.1155 -0.5457
15963TIP3    H169304   4.187   6.627   1.012 -1.3715 -1.0278  0.1083
15963TIP3    H269305   4.124   6.746   0.944 -0.1339 -0.2093  0.3588
15964TIP3   OH269306   6.606   5.199  14.165  0.1653 -0.7827 -0.7459
15964TIP3    H169307   6.619   5.131  14.099 -1.9136 -1.7356 -0.2699
15964TIP3    H269308   6.655   5.168  14.241 -0.1911 -1.4277 -0.7656
15965TIP3   OH269309   1.163   3.604   3.786  0.0508 -0.4743 -0.0362
15965TIP3    H169310   1.096   3.554   3.739  0.0717  1.7667 -2.6666
15965TIP3    H269311   1.230   3.539   3.808 -0.3215 -1.8394 -2.5304
15966TIP3   OH269312   0.900   3.840  14.640  0.5054 -0.3919  0.6672
15966TIP3    H169313   0.915   3.889  14.721 -0.5938  1.0075  0.0780
15966TIP3    H269314   0.854   3.761  14.668 -3.1978  1.7280  1.2083
15967TIP3   OH269315   2.589   6.109  15.553  0.1288 -0.3512  0.1712
15967TIP3    H169316   2.548   6.192  15.577  0.2390 -0.5076  0.9036
15967TIP3    H269317   2.521   6.063  15.503 -0.9287 -0.9563  2.0497
15968TIP3   OH269318   5.279   3.845  16.148 -0.0689  0.4281 -0.0757
15968TIP3    H169319   5.344   3.800  16.093 -1.0731  2.1173 -2.8755
15968TIP3    H269320   5.280   3.935  16.116 -2.6745  0.8572  0.8612
15969TIP3   OH269321   4.295   0.859  12.524 -0.3343  0.4400  0.2439
15969TIP3    H169322   4.305   0.848  12.430 -0.5210  1.8588  0.0227
15969TIP3    H269323   4.361   0.924  12.548 -0.6050  0.4535  1.0041
15970TIP3   OH269324   0.603   5.451   4.427  0.3199  0.2926 -0.5457
15970TIP3    H169325   0.598   5.544   4.450 -0.5977 -0.1978  1.3548
15970TIP3    H269326   0.643   5.409   4.503 -0.8980 -1.1165 -0.6370
15971TIP3   OH269327   0.695   0.033  15.334  0.2266  0.0315 -0.0090
15971TIP3    H169328   0.690   0.007  15.241  1.0737 -0.4877  0.0738
15971TIP3    H269329   0.605   0.033  15.364  0.0500 -1.3163 -0.4470
15972TIP3   OH269330   3.934   0.569  11.380  0.1170  0.4212  0.1802
15972TIP3    H169331   3.985   0.609  11.310  0.0776 -0.0140 -0.1017
15972TIP3    H269332   3.947   0.475  11.368  0.5561  0.3545  1.0916
15973TIP3   OH269333   0.795   3.979  16.774 -0.2456 -0.0716  0.2716
15973TIP3    H169334   0.865   4.044  16.766 -0.2285 -0.2172 -1.0123
15973TIP3    H269335   0.728   4.008  16.712  0.2915 -1.9003 -1.2593
15974TIP3   OH269336   4.696   6.704  14.773 -0.0158  0.0838  0.2372
15974TIP3    H169337   4.672   6.680  14.863  1.5757 -1.2358  0.3568
15974TIP3    H269338   4.697   6.620  14.726 -0.4622  0.7206 -0.9364
15975TIP3   OH269339   5.947   0.797  13.217  0.7670 -0.3726  0.0427
15975TIP3    H169340   5.870   0.790  13.274  0.5737  0.0078 -0.1716
15975TIP3    H269341   5.946   0.887  13.186  0.4895 -0.7661 -1.1095
15976TIP3   OH269342   2.206   5.354   4.260  0.3839 -0.3360  0.1498
15976TIP3    H169343   2.120   5.378   4.225 -0.0296  0.6669  1.7523
15976TIP3    H269344   2.194   5.264   4.291  0.4777 -0.8761 -1.2733
15977TIP3   OH269345   1.538   4.427   1.578 -0.1552 -0.3813  0.6404
15977TIP3    H169346   1.445   4.423   1.599 -0.8921 -0.8526 -2.2623
15977TIP3    H269347   1.556   4.345   1.532  1.5754 -0.0538  0.6631
15978TIP3   OH269348   2.736   0.433  16.299 -0.5117 -0.6630 -0.6340
15978TIP3    H169349   2.792   0.468  16.368  0.3780  1.5941 -2.3636
15978TIP3    H269350   2.787   0.360  16.262  0.7376  0.4675 -1.2582
15979TIP3   OH269351   5.130   0.485  15.596 -0.7551  0.4428 -0.3414
15979TIP3    H169352   5.044   0.480  15.556 -0.9787  1.6733 -0.0419
15979TIP3    H269353   5.119   0.544  15.671  0.4479  1.0028 -0.5797
15980TIP3   OH269354   3.540   5.226  16.638  0.1933  0.3008  0.4288
15980TIP3    H169355   3.612   5.168  16.665 -0.3115 -0.7755 -0.4832
15980TIP3    H269356   3.496   5.249  16.720  0.5927 -0.3591  0.8378
15981TIP3   OH269357   4.867   4.300  13.836  0.1296  0.2478 -0.0025
15981TIP3    H169358   4.845   4.249  13.914 -2.6526 -0.7317 -1.2868
15981TIP3    H269359   4.829   4.387  13.852 -0.9952 -0.1414 -0.4742
15982TIP3   OH269360   4.311   0.896   5.691  0.6418  0.4801 -0.4743
15982TIP3    H169361   4.243   0.955   5.725 -0.6898 -1.8164  1.1289
15982TIP3    H269362   4.338   0.844   5.767  1.0902 -1.5895 -1.9695
15983TIP3   OH269363   1.783   2.486  14.430  0.5273 -0.6787 -0.4331
15983TIP3    H169364   1.731   2.522  14.502 -0.6072 -1.3278 -0.8975
15983TIP3    H269365   1.773   2.549  14.359 -0.6954 -1.4076 -0.9381
15984TIP3   OH269366   2.530   0.965   4.150 -0.2085  0.0584 -0.4500
15984TIP3    H169367   2.503   1.032   4.087 -1.0954  0.0865 -0.0461
15984TIP3    H269368   2.561   0.892   4.096  0.5165  0.6748 -0.8976
15985TIP3   OH269369   1.105   0.368   4.933 -0.2536 -0.1827 -0.8537
15985TIP3    H169370   1.030   0.375   4.992  0.2157  1.1303 -0.3621
15985TIP3    H269371   1.127   0.275   4.932 -1.7428 -0.5598 -0.8479
15986TIP3   OH269372   3.617   5.985   0.695  0.4323 -0.3050 -0.2788
15986TIP3    H169373   3.703   5.967   0.731  0.4326 -0.5812 -0.4112
15986TIP3    H269374   3.556   5.945   0.757  0.4139 -0.3662 -0.3351
15987TIP3   OH269375   1.840   4.512  16.528  0.2399  0.5305  0.2128
15987TIP3    H169376   1.873   4.531  16.440 -1.0377 -1.2866 -0.7228
15987TIP3    H269377   1.832   4.416  16.530 -2.3826  0.6945  1.2765
15988TIP3   OH269378   0.074   0.078   5.510  0.3277 -0.5538 -0.1552
15988TIP3    H169379   0.047   0.031   5.431  1.8682 -0.3450 -0.8301
15988TIP3    H269380  -0.007   0.087   5.561 -0.5582 -1.3038 -1.3768
15989TIP3   OH269381   5.436   3.098   0.201 -0.2733 -0.3037 -0.2479
15989TIP3    H169382   5.502   3.091   0.269 -2.0887  1.2574  1.7854
15989TIP3    H269383   5.407   3.007   0.187 -0.0401 -0.6300  1.2414
15990TIP3   OH269384   3.288   0.368  13.060  0.1519 -0.3585 -0.1022
15990TIP3    H169385   3.322   0.313  12.989 -0.2250  0.7915 -1.2048
15990TIP3    H269386   3.208   0.406  13.025 -0.0324  0.2456  0.9373
15991TIP3   OH269387   4.581   6.641   1.457 -0.0121  0.0106  0.1839
15991TIP3    H169388   4.517   6.571   1.455  0.0918 -0.0810 -1.5744
15991TIP3    H269389   4.647   6.612   1.520 -0.7847 -0.7131  0.6733
15992TIP3   OH269390   1.869   1.375   4.634  0.0038  0.0425  0.6658
15992TIP3    H169391   1.953   1.409   4.666  0.1709  0.7999 -0.5306
15992TIP3    H269392   1.804   1.412   4.693  0.4883 -0.5127  1.5773
15993TIP3   OH269393   3.926   3.322   5.973  0.1723 -0.4236 -0.4554
15993TIP3    H169394   3.841   3.350   5.939 -1.0475 -1.9665  1.1640
15993TIP3    H269395   3.929   3.359   6.061  0.5770 -1.4955 -0.0089
15994TIP3   OH269396   3.471   2.031  16.362 -0.1493  0.0622 -0.9948
15994TIP3    H169397   3.565   2.014  16.352  0.0367  1.2056 -1.3404
15994TIP3    H269398   3.447   1.984  16.442  0.6060 -0.6386 -1.1616
15995TIP3   OH269399   3.629   5.692  16.305 -0.2690  0.0166 -0.2637
15995TIP3    H169400   3.553   5.685  16.247  0.1638  2.5935 -1.2513
15995TIP3    H269401   3.685   5.758  16.264  2.5318 -1.7430  0.4638
15996TIP3   OH269402   3.168   4.881  11.428  0.2108 -0.1093  0.5890
15996TIP3    H169403   3.248   4.830  11.440  0.6740  0.4258 -0.0859
15996TIP3    H269404   3.144   4.866  11.336 -0.1645  0.1487  0.6422
15997TIP3   OH269405   4.716   6.183   3.682 -0.7961 -0.4788 -0.2596
15997TIP3    H169406   4.642   6.214   3.630 -0.6929 -0.2757 -0.2841
15997TIP3    H269407   4.725   6.091   3.657 -0.8991 -0.4452 -0.4220
15998TIP3   OH269408   1.559   2.796  13.333  0.2847  0.1652 -0.4574
15998TIP3    H169409   1.600   2.840  13.408  1.2592 -1.1987 -0.1589
15998TIP3    H269410   1.585   2.705  13.341  1.5821  0.1728 -3.1732
15999TIP3   OH269411   4.690   2.212  16.621 -0.5132 -0.6385 -0.3931
15999TIP3    H169412   4.663   2.283  16.563  1.6395 -0.3952 -1.2031
15999TIP3    H269413   4.708   2.255  16.705 -2.3277 -0.7834  0.1100
16000TIP3   OH269414   3.579   4.868  16.982  0.0561 -0.3853  0.0829
16000TIP3    H169415   3.521   4.841  16.911 -0.2243 -0.6551  0.4169
16000TIP3    H269416   3.651   4.805  16.979 -0.5740 -1.1533  0.8324
16001TIP3   OH269417   6.305   1.482  17.205  0.5592  0.0777  0.3259
16001TIP3    H169418   6.366   1.537  17.156  0.9399  0.3602  1.1096
16001TIP3    H269419   6.246   1.544  17.247  0.6796 -0.1369  0.8098
16002TIP3   OH269420   1.164   6.008  14.582 -0.3413 -0.0582  0.2111
16002TIP3    H169421   1.233   5.956  14.542  0.5404  0.4319  1.0613
16002TIP3    H269422   1.210   6.079  14.626 -1.4193  0.5148  0.4411
16003TIP3   OH269423   3.454   1.065  15.054  0.4134  0.6596 -0.2666
16003TIP3    H169424   3.372   1.082  15.007  0.3273 -0.7554 -0.6701
16003TIP3    H269425   3.426   1.025  15.136  0.6602  1.2796  0.1276
16004TIP3   OH269426   5.424   2.067  16.402  0.0631  0.0452  1.0386
16004TIP3    H169427   5.346   2.095  16.354  0.4517 -0.1166  0.3055
16004TIP3    H269428   5.429   1.973  16.387  1.5612  0.3434 -0.6979
16005TIP3   OH269429   2.077   2.298  17.085  0.4397 -0.2209 -0.5021
16005TIP3    H169430   2.061   2.382  17.128  0.6959  0.2225 -1.2611
16005TIP3    H269431   2.013   2.294  17.015  0.9124 -0.3229 -0.9321
16006TIP3   OH269432   5.904   0.128   2.869 -0.2708 -0.4652 -0.2425
16006TIP3    H169433   5.994   0.158   2.878 -0.8981  1.2875  0.5429
16006TIP3    H269434   5.901   0.046   2.919  0.5872  0.1205  0.8032
16007TIP3   OH269435   0.990   2.174   5.218 -0.1882 -0.0453  0.3116
16007TIP3    H169436   0.984   2.221   5.301  2.4030 -1.0763  1.1718
16007TIP3    H269437   0.934   2.223   5.159 -1.0418  1.5145  2.3058
16008TIP3   OH269438   4.802   3.379  12.554  0.1900  0.7405  0.3637
16008TIP3    H169439   4.764   3.462  12.581  1.6358  0.9756  1.8480
16008TIP3    H269440   4.895   3.398  12.540  0.6757 -0.7009  1.2960
16009TIP3   OH269441   5.513   4.953   4.527  0.2776 -0.0622  0.0221
16009TIP3    H169442   5.505   4.911   4.613  0.4879 -1.7182 -0.7278
16009TIP3    H269443   5.584   4.905   4.484  1.5388  2.0206 -0.3815
16010TIP3   OH269444   2.083   1.206   2.622  0.6052  0.0579  0.0489
16010TIP3    H169445   2.130   1.227   2.542  1.1358  0.8443  0.5532
16010TIP3    H269446   2.109   1.274   2.684  1.1672 -1.2159  1.2587
16011TIP3   OH269447   1.741   1.360  11.554 -0.4776 -0.0931  0.0075
16011TIP3    H169448   1.733   1.435  11.495 -2.2281  0.9432  1.4750
16011TIP3    H269449   1.814   1.382  11.612 -0.1693 -0.1411 -0.3508
16012TIP3   OH269450   2.766   5.592  14.712 -0.3710  0.3907 -0.3374
16012TIP3    H169451   2.853   5.603  14.750 -0.1532  0.8542 -0.9529
16012TIP3    H269452   2.767   5.646  14.633 -1.0953  0.1117 -0.5490
16013TIP3   OH269453   2.979   3.795  14.651  0.0771 -0.2819 -0.0159
16013TIP3    H169454   3.027   3.753  14.722  0.7323  0.3003 -0.0973
16013TIP3    H269455   3.028   3.772  14.572  1.1494  1.5267  0.0515
16014TIP3   OH269456   5.501   2.966   3.653 -0.0400  0.0088  0.4677
16014TIP3    H169457   5.531   2.975   3.563  1.6317  2.1806  1.1659
16014TIP3    H269458   5.581   2.965   3.706 -1.0101  0.0404  2.0200
16015TIP3   OH269459   5.767   4.185  11.238 -0.1325  0.4557 -0.3503
16015TIP3    H169460   5.749   4.156  11.148  1.3365 -2.2220  0.1035
16015TIP3    H269461   5.754   4.106  11.291  2.2736  1.0867  1.3343
16016TIP3   OH269462   0.815   4.105  15.901 -0.0022  0.2969  0.3949
16016TIP3    H169463   0.809   4.010  15.907 -2.9489  0.4008  0.4644
16016TIP3    H269464   0.865   4.121  15.822  0.2846 -1.3122  0.2255
16017TIP3   OH269465   4.095   2.797  14.095 -0.1785 -0.1357  0.2212
16017TIP3    H169466   4.074   2.841  14.177  1.1365 -0.4705  0.7590
16017TIP3    H269467   4.037   2.721  14.094 -2.3406  1.4134 -0.6322
16018TIP3   OH269468   2.843   3.183  10.879  0.2126 -0.4736  0.0556
16018TIP3    H169469   2.909   3.252  10.868 -0.4616 -0.1036 -2.0570
16018TIP3    H269470   2.808   3.198  10.967 -0.0329  2.0143 -0.4012
16019TIP3   OH269471   2.139   5.692  12.231  0.2919 -0.0607 -0.3721
16019TIP3    H169472   2.120   5.645  12.150 -0.5767  0.7828 -0.6822
16019TIP3    H269473   2.229   5.725  12.220 -0.7826  2.5956 -2.3442
16020TIP3   OH269474   0.145   6.509  14.700  0.0159 -1.1906  0.0450
16020TIP3    H169475   0.213   6.462  14.653 -0.1118 -0.6528 -0.6929
16020TIP3    H269476   0.069   6.451  14.699 -0.5620 -0.4761 -2.0139
16021TIP3   OH269477   5.615   5.932  17.240  0.1455 -0.6003  0.1688
16021TIP3    H169478   5.663   5.911  17.321  1.0038 -2.5563 -0.7806
16021TIP3    H269479   5.564   6.010  17.262 -0.1580 -1.4391  2.8139
16022TIP3   OH269480   2.721   0.185  12.804  0.1814  0.7267 -0.1359
16022TIP3    H169481   2.709   0.098  12.841 -1.1829  2.0212  2.7416
16022TIP3    H269482   2.816   0.196  12.798  0.4175 -0.1791  1.4864
16023TIP3   OH269483   2.686   4.023   1.047  0.2766 -0.1299 -0.1898
16023TIP3    H169484   2.781   4.018   1.052  0.3362  1.1170  0.0923
16023TIP3    H269485   2.668   4.060   0.960 -0.0469 -2.2361 -1.0839
16024TIP3   OH269486   2.464   1.550   2.989  0.0490  0.1099  0.2164
16024TIP3    H169487   2.475   1.631   3.039 -0.9770  0.6805 -0.4581
16024TIP3    H269488   2.537   1.495   3.016  0.3663  0.9955  1.2038
16025TIP3   OH269489   6.445   1.960  15.093  0.3716  0.0955  0.3087
16025TIP3    H169490   6.409   1.895  15.033 -1.4963  0.7600  0.6289
16025TIP3    H269491   6.458   2.038  15.039 -1.8263  0.8635  0.8097
16026TIP3   OH269492   0.605   0.232  13.598 -0.4207  0.5087 -0.0151
16026TIP3    H169493   0.639   0.168  13.659  0.3376  0.2299 -0.7111
16026TIP3    H269494   0.524   0.264  13.638 -0.1916 -0.0248  0.8824
16027TIP3   OH269495   6.507   3.477   1.665 -0.1359  0.4366  0.3692
16027TIP3    H169496   6.434   3.504   1.609  0.1681 -0.5028 -0.5277
16027TIP3    H269497   6.585   3.507   1.619  0.0679  0.9185  1.0234
16028TIP3   OH269498   1.062   5.981   2.247  0.3055  0.1426  0.1940
16028TIP3    H169499   1.048   6.015   2.335 -0.8582 -1.4337  0.6728
16028TIP3    H269500   1.154   5.957   2.244  0.3973  0.3965  0.9208
16029TIP3   OH269501   5.345   4.129   5.023 -0.4120  0.2134 -0.7108
16029TIP3    H169502   5.302   4.142   4.939  0.5249  0.0433 -1.2305
16029TIP3    H269503   5.337   4.035   5.040 -0.3578  0.2021 -0.7476
16030TIP3   OH269504   6.472   5.871   1.103 -0.3714  0.3923 -0.2564
16030TIP3    H169505   6.411   5.844   1.171 -0.9157  2.2062  0.0408
16030TIP3    H269506   6.556   5.836   1.131 -0.8041  0.1250  0.7454
16031TIP3   OH269507   5.671   4.882  16.023 -0.6628 -0.3666 -0.2568
16031TIP3    H169508   5.724   4.953  16.061  1.8481 -2.3424  0.1628
16031TIP3    H269509   5.594   4.877  16.080 -0.0134  0.8514  0.7896
16032TIP3   OH269510   5.725   5.088  14.155  0.0818 -0.2017  0.7830
16032TIP3    H169511   5.634   5.075  14.127 -0.0547  1.2046  0.5117
16032TIP3    H269512   5.770   5.007  14.129 -1.0855 -0.9185  0.9368
16033TIP3   OH269513   4.192   6.635  11.478 -0.1938 -0.2098  0.0777
16033TIP3    H169514   4.280   6.646  11.515 -0.7055  1.7196  0.8025
16033TIP3    H269515   4.169   6.545  11.499  1.4421 -0.6286  0.2309
16034TIP3   OH269516   3.860   0.100   5.779  0.0588 -0.2918  0.6937
16034TIP3    H169517   3.880   0.156   5.854  1.6588  1.0526 -0.6643
16034TIP3    H269518   3.945   0.077   5.742 -0.6735  0.5246 -1.7138
16035TIP3   OH269519   2.763   0.126   1.428 -0.7233 -0.1579 -0.3879
16035TIP3    H169520   2.692   0.075   1.468 -0.0670  0.2516  1.3980
16035TIP3    H269521   2.769   0.204   1.482  2.0306 -0.8427  0.4521
16036TIP3   OH269522   3.042   2.784  10.979  0.0018  0.5219  0.2536
16036TIP3    H169523   3.110   2.754  10.919  0.0480  3.2693 -1.2370
16036TIP3    H269524   2.969   2.725  10.963  0.6475  0.0516 -1.1876
16037TIP3   OH269525   0.611   1.170  14.169  0.0036 -0.5510 -0.6399
16037TIP3    H169526   0.641   1.258  14.147 -0.8684 -0.7623 -3.0539
16037TIP3    H269527   0.690   1.116  14.165  0.5216  0.0799  0.7439
16038TIP3   OH269528   3.531   2.774   5.427 -0.0710  0.4677 -0.3958
16038TIP3    H169529   3.566   2.712   5.491  1.7281  1.9784  0.1455
16038TIP3    H269530   3.570   2.747   5.344 -2.7156 -1.7431 -1.0881
16039TIP3   OH269531   4.750   3.828  12.741  0.2542 -0.0778 -0.1560
16039TIP3    H169532   4.664   3.853  12.775  0.2418 -1.1196  0.6275
16039TIP3    H269533   4.793   3.912  12.721 -0.1047  0.5618  1.5580
16040TIP3   OH269534   2.977   1.527  16.886  0.1285 -0.3447 -0.2575
16040TIP3    H169535   2.987   1.514  16.980  0.1946  0.8885 -0.0719
16040TIP3    H269536   2.989   1.621  16.874  5.4360 -0.9430 -2.1157
16041TIP3   OH269537   1.953   5.569  12.021 -0.2751  0.7019 -0.1592
16041TIP3    H169538   1.952   5.520  12.103  0.9869  2.2294  0.8292
16041TIP3    H269539   2.024   5.529  11.971 -0.6551  0.1519 -0.2636
16042TIP3   OH269540   1.740   0.599   0.118  0.0637  0.5616 -0.0211
16042TIP3    H169541   1.824   0.596   0.163  0.2370  1.0442 -0.3042
16042TIP3    H269542   1.758   0.568   0.030 -0.6865 -2.4673  0.7979
16043TIP3   OH269543   2.229   2.008   5.160 -0.3951  0.2655 -0.7007
16043TIP3    H169544   2.238   1.913   5.168 -0.5199  0.2614 -0.6067
16043TIP3    H269545   2.266   2.042   5.241  0.5055  0.3490 -1.1279
16044TIP3   OH269546   2.141   3.359   0.031 -0.0921 -0.0064  0.2167
16044TIP3    H169547   2.196   3.311  -0.030 -0.8754 -1.7154  0.7904
16044TIP3    H269548   2.194   3.370   0.109 -0.0275 -0.2682  0.2096
16045TIP3   OH269549   5.504   3.426  10.269  0.1348  0.8624 -0.3958
16045TIP3    H169550   5.530   3.341  10.305 -1.0700 -0.2972 -2.1133
16045TIP3    H269551   5.425   3.449  10.318  1.2250  1.7094  1.0277
16046TIP3   OH269552   1.668   1.216  15.579  0.0369  0.7335 -0.6245
16046TIP3    H169553   1.748   1.260  15.609 -0.3434  1.2664 -0.3860
16046TIP3    H269554   1.616   1.204  15.658 -0.6065  1.3969 -0.9347
16047TIP3   OH269555   0.581   4.361   0.299  0.1269  0.5811  0.4467
16047TIP3    H169556   0.559   4.270   0.277 -1.7938  1.5020 -1.8584
16047TIP3    H269557   0.565   4.367   0.393 -2.3615 -0.8389  0.2121
16048TIP3   OH269558   2.879   0.070  12.330  0.6098 -0.0331 -0.4162
16048TIP3    H169559   2.858   0.145  12.385 -0.3647 -1.9422  1.9948
16048TIP3    H269560   2.809   0.067  12.265 -0.7049 -0.1829  0.9545
16049TIP3   OH269561   1.401   5.988  10.940  0.5396  0.3296 -0.5332
16049TIP3    H169562   1.331   6.054  10.935 -0.0420 -0.3512 -1.6968
16049TIP3    H269563   1.431   5.978  10.850  2.8594  1.3210  0.0441
16050TIP3   OH269564   3.554   6.259   4.121 -0.6161  0.2697  0.6958
16050TIP3    H169565   3.648   6.279   4.120 -0.5055  0.2637  3.7500
16050TIP3    H269566   3.516   6.324   4.179 -2.0481 -1.3552  1.6860
16051TIP3   OH269567   2.200   0.280  14.285  0.0397 -0.1618 -0.0526
16051TIP3    H169568   2.130   0.343  14.299  1.8219  1.5342  2.0620
16051TIP3    H269569   2.234   0.262  14.373  1.5487 -1.7647 -0.9011
16052TIP3   OH269570   5.037   2.037   0.023  0.5461  0.2373  0.1696
16052TIP3    H169571   5.069   2.121  -0.010  0.7047  0.4769  0.9268
16052TIP3    H269572   4.952   2.057   0.062 -0.2470 -0.2751 -1.2135
16053TIP3   OH269573   3.067   4.042  14.358  0.1633 -0.3550 -0.2728
16053TIP3    H169574   2.987   4.000  14.324 -0.6256 -1.1787  2.3963
16053TIP3    H269575   3.104   4.087  14.282 -0.9331 -2.8443 -2.4440
16054TIP3   OH269576   3.399   6.312   2.847  0.6893 -0.0067 -0.2021
16054TIP3    H169577   3.434   6.286   2.762 -0.2976 -1.2812 -0.2560
16054TIP3    H269578   3.427   6.241   2.906  1.9688  1.2078  0.7174
16055TIP3   OH269579   3.854   6.262   0.240 -0.1731  0.6217 -0.4748
16055TIP3    H169580   3.784   6.325   0.256 -0.7702  0.6141 -2.6764
16055TIP3    H269581   3.934   6.308   0.264 -0.6851  1.9014 -1.1465
16056TIP3   OH269582   2.945   2.026   4.296 -0.5439 -0.0671 -0.0419
16056TIP3    H169583   2.924   2.115   4.269 -1.1600 -0.0340  0.5165
16056TIP3    H269584   3.038   2.029   4.317  0.2075 -0.3230 -2.9566
16057TIP3   OH269585   2.395   4.703  14.245 -0.5296  0.7660  0.1076
16057TIP3    H169586   2.378   4.654  14.165 -0.1204  1.8839 -0.6778
16057TIP3    H269587   2.371   4.642  14.315  1.7437 -1.3229 -0.7483
16058TIP3   OH269588   3.701   3.099   3.017 -0.4843 -0.3781  0.2967
16058TIP3    H169589   3.766   3.093   2.946  0.8942 -0.2662  1.5039
16058TIP3    H269590   3.627   3.047   2.985 -0.1401  0.1145 -1.4514
16059TIP3   OH269591   2.559   2.689  14.036 -0.2945  0.3923  0.5712
16059TIP3    H169592   2.626   2.752  14.064 -0.0196  0.3840 -0.0466
16059TIP3    H269593   2.476   2.728  14.064 -0.1290  1.0466  0.1860
16060TIP3   OH269594   6.707   6.431  17.315  0.4565 -0.7341  0.2081
16060TIP3    H169595   6.632   6.472  17.272  0.3533 -1.1085  0.0283
16060TIP3    H269596   6.757   6.391  17.244  0.9178 -0.3443  0.3090
16061TIP3   OH269597   1.202   3.784   5.079 -0.1293 -0.3923  0.3605
16061TIP3    H169598   1.186   3.691   5.097  3.4061 -0.7410  2.5542
16061TIP3    H269599   1.277   3.784   5.019 -0.6616  1.0923 -0.3583
16062TIP3   OH269600   0.556   1.102  12.925  0.2455  0.2937  0.3658
16062TIP3    H169601   0.562   1.012  12.893  2.3572  0.9853 -1.4186
16062TIP3    H269602   0.627   1.108  12.990  1.2829  1.1131 -0.8095
16063TIP3   OH269603   5.768   4.249   2.418 -0.3540  0.6229  0.4034
16063TIP3    H169604   5.839   4.313   2.411  0.9016 -0.8062 -0.4623
16063TIP3    H269605   5.813   4.164   2.428 -1.9553 -0.2355  0.6559
16064TIP3   OH269606   0.834   1.108   2.087  1.0780 -0.0418  0.2330
16064TIP3    H169607   0.889   1.182   2.060  1.5934 -0.3300  0.4795
16064TIP3    H269608   0.832   1.112   2.183  1.5303 -0.6446  0.2727
16065TIP3   OH269609   6.348   0.199   3.262  0.1350  0.5721  0.0568
16065TIP3    H169610   6.393   0.137   3.320  0.8835  1.1561  0.1153
16065TIP3    H269611   6.280   0.237   3.316 -2.0712 -2.0180 -0.6592
16066TIP3   OH269612   4.502   0.721   3.445 -0.1094 -0.0322  0.1455
16066TIP3    H169613   4.462   0.745   3.529  0.9752  1.7813  0.2085
16066TIP3    H269614   4.449   0.648   3.413 -2.6278  1.3642  0.8512
16067TIP3   OH269615   2.502   5.455  14.298 -0.0778  0.7946 -0.1734
16067TIP3    H169616   2.432   5.415  14.247  1.0505 -2.9724  0.9328
16067TIP3    H269617   2.457   5.493  14.374 -1.0364 -1.8523  0.7021
16068TIP3   OH269618   2.093   3.861   3.806 -0.1341 -0.2289  0.1221
16068TIP3    H169619   2.061   3.862   3.716 -0.6991  2.1641  0.2794
16068TIP3    H269620   2.020   3.828   3.858 -0.0918 -0.8451 -0.2082
16069TIP3   OH269621   6.016   5.317  14.863  0.5844 -0.0091 -0.1907
16069TIP3    H169622   5.966   5.399  14.858  0.1106 -0.2234  0.6980
16069TIP3    H269623   6.074   5.329  14.938  1.0487 -0.2071 -0.5131
16070TIP3   OH269624   4.118   6.303   5.777 -0.1266 -0.2026  0.0050
16070TIP3    H169625   4.169   6.234   5.735  0.9075  0.8095 -0.4407
16070TIP3    H269626   4.051   6.256   5.827 -0.0076 -1.4891 -1.0051
16071TIP3   OH269627   5.098   3.201  11.447 -0.0536  0.1487 -0.1910
16071TIP3    H169628   5.056   3.268  11.393  1.4855  0.8529 -0.5966
16071TIP3    H269629   5.110   3.242  11.532 -0.0702  0.0180 -0.1257
16072TIP3   OH269630   4.552   6.044  14.100 -0.3721 -0.2479 -0.0170
16072TIP3    H169631   4.631   6.068  14.051  0.1578 -2.0193 -0.0995
16072TIP3    H269632   4.540   5.950  14.082 -1.9584 -0.2242  0.7581
16073TIP3   OH269633   1.403   2.816   1.366 -0.5188 -0.1410 -0.5599
16073TIP3    H169634   1.387   2.733   1.411 -0.9786 -1.1312 -2.4499
16073TIP3    H269635   1.340   2.818   1.294 -0.4140  1.7958 -0.6607
16074TIP3   OH269636   3.209   4.737   3.535 -0.7647 -0.3149 -0.3553
16074TIP3    H169637   3.278   4.799   3.557 -0.4996 -1.0732  1.0124
16074TIP3    H269638   3.226   4.713   3.444 -1.7647  2.7383 -1.4635
16075TIP3   OH269639   6.731   5.302   0.090  0.4272 -0.7627 -0.3871
16075TIP3    H169640   6.787   5.230   0.062  1.9753  0.4714 -0.5834
16075TIP3    H269641   6.782   5.349   0.156 -1.1306 -0.6445  0.8007
16076TIP3   OH269642   6.031   2.065   0.258  0.0469  0.2062  1.0804
16076TIP3    H169643   6.016   2.140   0.201 -0.1925  0.9504  2.1094
16076TIP3    H269644   5.963   2.002   0.232  0.0621  0.4478  0.4257
16077TIP3   OH269645   5.657   0.549   5.183  0.1232 -0.2042  0.2453
16077TIP3    H169646   5.622   0.626   5.228 -2.1508 -1.8765  1.5732
16077TIP3    H269647   5.624   0.557   5.094 -0.7685 -0.0084  0.5799
16078TIP3   OH269648   2.935   0.903   5.888  0.1166 -0.3430  0.6648
16078TIP3    H169649   2.916   0.819   5.931 -2.0130 -1.1002 -1.5117
16078TIP3    H269650   2.865   0.961   5.919 -1.3878 -0.8732 -1.5026
16079TIP3   OH269651   0.785   2.575   6.653 -0.0203  0.0340  0.2897
16079TIP3    H169652   0.823   2.494   6.618 -1.3313  0.5085 -2.5068
16079TIP3    H269653   0.695   2.575   6.621  0.1225  2.8767 -0.3432
16080TIP3   OH269654   3.060   5.386   3.013  0.6226  0.2746 -0.6700
16080TIP3    H169655   3.055   5.481   3.005  1.8632  0.2451 -2.4449
16080TIP3    H269656   3.050   5.369   3.107 -1.2964  1.9984 -0.4904
16081TIP3   OH269657   5.363   1.032   1.673  0.0965  0.2427  0.4012
16081TIP3    H169658   5.377   1.026   1.579  2.3686  0.5892  0.6482
16081TIP3    H269659   5.271   1.009   1.686 -0.4334  0.8322 -1.9373
16082TIP3   OH269660   3.937   3.497  16.256 -0.4170  0.0484  0.1970
16082TIP3    H169661   3.860   3.443  16.273  0.4103 -1.1792  0.1451
16082TIP3    H269662   3.994   3.442  16.202  0.2335  1.1660 -0.2944
16083TIP3   OH269663   0.335   3.810  13.555 -0.2343  0.3615  0.0293
16083TIP3    H169664   0.285   3.732  13.529 -0.9987  0.8297  0.0571
16083TIP3    H269665   0.418   3.775  13.588 -0.9499 -0.5221  0.9771
16084TIP3   OH269666   4.251   2.879  14.601 -0.4982  0.7142 -0.1670
16084TIP3    H169667   4.257   2.908  14.510  1.1684  0.4423 -0.1756
16084TIP3    H269668   4.196   2.802  14.598  1.0030 -0.3793 -1.2690
16085TIP3   OH269669   1.630   3.081  15.370 -0.3434 -0.2074 -0.1186
16085TIP3    H169670   1.593   3.154  15.321  1.2413  0.4113 -0.4546
16085TIP3    H269671   1.657   3.119  15.454 -3.4484 -1.3451  1.5565
16086TIP3   OH269672   3.518   5.706  13.961  0.0863 -0.0439 -0.1834
16086TIP3    H169673   3.610   5.683  13.953 -0.0998 -0.8608 -0.1318
16086TIP3    H269674   3.476   5.625  13.993 -0.0383  1.3456  3.8125
16087TIP3   OH269675   4.044   6.099  15.981 -0.2767  0.3421  0.3222
16087TIP3    H169676   4.069   6.113  16.072  0.4406 -0.5041  0.2670
16087TIP3    H269677   3.959   6.143  15.972  0.5838  2.1776  0.8434
16088TIP3   OH269678   1.253   4.541  11.782 -0.2675  0.2514 -0.2838
16088TIP3    H169679   1.274   4.634  11.796 -3.9096  1.0886  0.7941
16088TIP3    H269680   1.235   4.534  11.689  0.6150  0.4282 -0.4829
16089TIP3   OH269681   3.730   3.893  14.327  0.2901 -0.1520  0.1424
16089TIP3    H169682   3.769   3.887  14.240  0.4911  0.6920  0.1636
16089TIP3    H269683   3.804   3.907  14.386 -0.0284  2.6410  0.0577
16090TIP3   OH269684   5.918   1.922  11.764  0.1708  0.2949 -0.1086
16090TIP3    H169685   5.870   1.976  11.701  0.1750  1.5699  0.9276
16090TIP3    H269686   5.926   1.978  11.842 -2.0743 -2.0729  2.0079
16091TIP3   OH269687   2.775   5.579   3.103  0.4160  0.2700 -0.0533
16091TIP3    H169688   2.850   5.553   3.050  0.0314 -1.4506  0.1669
16091TIP3    H269689   2.813   5.616   3.183  1.0133  0.5737 -0.4753
16092TIP3   OH269690   5.865   6.398   5.224 -0.3307 -0.9935  0.2561
16092TIP3    H169691   5.931   6.437   5.166 -0.8881  0.0957  0.3203
16092TIP3    H269692   5.906   6.401   5.311  0.2011 -1.9141  0.0487
16093TIP3   OH269693   5.432   5.123   2.396  0.2356  0.9390  0.2039
16093TIP3    H169694   5.357   5.165   2.354  0.9764 -0.3196 -2.6371
16093TIP3    H269695   5.396   5.046   2.439 -0.1113 -0.2403 -2.0195
16094TIP3   OH269696   0.780   5.737  17.236 -0.3921  0.0411  0.1662
16094TIP3    H169697   0.770   5.666  17.300 -1.0824 -0.9171 -0.9762
16094TIP3    H269698   0.709   5.797  17.258 -2.2394 -1.5252 -1.2211
16095TIP3   OH269699   3.726   2.360  13.472  0.4691  0.5125  0.0653
16095TIP3    H169700   3.791   2.413  13.517  0.6411  0.5899 -0.2748
16095TIP3    H269701   3.756   2.356  13.382  0.3800 -0.0440  0.0582
16096TIP3   OH269702   2.270   3.624   4.250  0.1373 -0.5335  0.0857
16096TIP3    H169703   2.273   3.619   4.345  0.3095 -1.5835  0.0331
16096TIP3    H269704   2.241   3.537   4.221  0.8832 -0.5011 -0.8426
16097TIP3   OH269705   2.806   4.500   3.542 -0.4015 -0.2517  0.1350
16097TIP3    H169706   2.787   4.407   3.555 -0.4632 -0.0960  1.2617
16097TIP3    H269707   2.828   4.507   3.449 -2.1045 -1.0801 -0.3726
16098TIP3   OH269708   3.392   4.700   3.319 -0.2518  0.1592  0.3098
16098TIP3    H169709   3.386   4.662   3.232  2.2584  2.0153 -0.7786
16098TIP3    H269710   3.409   4.793   3.304  3.2846  0.0902  2.6475
16099TIP3   OH269711   4.847   4.126   3.247 -0.1868 -0.3247 -0.2918
16099TIP3    H169712   4.800   4.065   3.190 -0.0754 -0.8877  0.2036
16099TIP3    H269713   4.790   4.203   3.251 -1.7108 -1.4326  1.2243
16100TIP3   OH269714   5.212   1.846  17.372 -0.3805  0.0922  0.7010
16100TIP3    H169715   5.138   1.904  17.394  0.6610  1.5400  0.5206
16100TIP3    H269716   5.280   1.906  17.341 -0.0124 -1.4080 -1.6493
16101TIP3   OH269717   5.089   6.139   2.937  0.4110 -0.4659 -0.1823
16101TIP3    H169718   5.142   6.091   2.874 -0.5353 -1.8899  0.0451
16101TIP3    H269719   5.006   6.091   2.940 -1.2811  2.1856 -1.1935
16102TIP3   OH269720   5.850   4.860   5.325 -0.0757  0.3471 -0.4261
16102TIP3    H169721   5.821   4.933   5.271  0.4247 -0.6947 -2.1655
16102TIP3    H269722   5.900   4.804   5.266  0.3550 -0.9425  1.0813
16103TIP3   OH269723   1.738   2.364   4.402  0.3765 -0.1212  0.4601
16103TIP3    H169724   1.768   2.407   4.321  1.2576  1.3602  1.5262
16103TIP3    H269725   1.775   2.276   4.396 -0.1502 -0.2761 -1.0529
16104TIP3   OH269726   4.196   6.017   5.740 -0.1505 -0.0310 -0.1466
16104TIP3    H169727   4.176   5.927   5.766 -0.2494 -0.9031 -2.9794
16104TIP3    H269728   4.291   6.019   5.731 -0.2015 -0.0133 -0.6704
16105TIP3   OH269729   0.440   1.517  16.330  0.4002 -0.0772  0.2734
16105TIP3    H169730   0.410   1.475  16.249 -1.9799  0.2472  0.9039
16105TIP3    H269731   0.433   1.448  16.396 -2.8994  0.9126  1.1850
16106TIP3   OH269732   6.032   6.453   5.442  0.2177 -0.5763  0.1059
16106TIP3    H169733   6.091   6.432   5.514  0.1976 -0.6556  0.0991
16106TIP3    H269734   6.021   6.548   5.447 -0.1013 -0.6287  0.4532
16107TIP3   OH269735   3.819   5.344  13.252  0.0203 -0.0392 -0.0111
16107TIP3    H169736   3.851   5.278  13.190 -0.2996  0.1711 -0.4083
16107TIP3    H269737   3.859   5.425  13.224  0.5448 -0.0899  0.5812
16108TIP3   OH269738   4.854   5.117  14.414 -0.0642  0.0629 -0.3743
16108TIP3    H169739   4.891   5.201  14.439 -0.4539 -0.0886  0.7415
16108TIP3    H269740   4.760   5.134  14.403 -0.0497 -0.0939 -0.7711
16109TIP3   OH269741   5.505   3.337   0.580  0.5581 -0.3092  0.1114
16109TIP3    H169742   5.600   3.328   0.572  0.4945  0.6478 -3.5009
16109TIP3    H269743   5.471   3.304   0.497 -2.3298 -0.6488  1.3122
16110TIP3   OH269744   3.853   0.429   1.711  0.1796  0.5951 -0.1732
16110TIP3    H169745   3.879   0.482   1.636  0.2089 -0.6663 -1.0850
16110TIP3    H269746   3.845   0.340   1.676 -0.0808  0.0278  1.2597
16111TIP3   OH269747   5.293   2.075   4.275 -0.0320 -0.0923  0.1166
16111TIP3    H169748   5.270   2.150   4.329  1.0985  0.0019  0.4962
16111TIP3    H269749   5.375   2.100   4.232 -0.8724 -0.1933 -1.6139
16112TIP3   OH269750   2.634   4.512  11.015  0.2338 -0.0949  1.0828
16112TIP3    H169751   2.568   4.444  11.002 -0.1676  0.5530 -0.5081
16112TIP3    H269752   2.691   4.506  10.938  0.7919  0.6967  1.4228
16113TIP3   OH269753   0.200   3.206  12.844  0.1678  0.1329 -0.5861
16113TIP3    H169754   0.260   3.245  12.781  0.2953 -0.8912 -1.1178
16113TIP3    H269755   0.113   3.217  12.806  0.2120 -0.1797 -0.7767
16114TIP3   OH269756   0.685   4.002   0.202  0.2981  1.1183 -0.1569
16114TIP3    H169757   0.725   4.047   0.277 -1.3157  0.2488  1.3075
16114TIP3    H269758   0.743   3.929   0.184  1.7643  2.4472 -1.1256
16115TIP3   OH269759   2.643   3.373  12.062  0.4580  0.4831  0.0829
16115TIP3    H169760   2.687   3.434  12.122 -0.4606 -0.5064  1.8535
16115TIP3    H269761   2.550   3.382  12.083 -0.3518  2.4966 -3.5289
16116TIP3   OH269762   2.614   4.069   3.583  0.2873 -0.0657 -0.1531
16116TIP3    H169763   2.551   4.128   3.623  1.7423 -0.4427  2.9636
16116TIP3    H269764   2.669   4.125   3.528 -0.7530  0.7617 -0.3733
16117TIP3   OH269765   6.675   1.699  12.531  0.4437  0.0522 -0.0260
16117TIP3    H169766   6.591   1.728  12.494  0.7757 -0.5990 -1.3439
16117TIP3    H269767   6.732   1.686  12.455  2.1995  1.7878  0.9179
16118TIP3   OH269768   0.409   2.373   6.329 -0.0549  0.6647 -0.5445
16118TIP3    H169769   0.355   2.452   6.329 -0.3816  0.4787  1.4704
16118TIP3    H269770   0.349   2.302   6.350  0.5623  0.1163 -0.5834
16119TIP3   OH269771   1.196   1.984   3.072 -0.5252 -0.2062  0.2230
16119TIP3    H169772   1.164   1.959   2.986 -1.0121  0.8072  0.0978
16119TIP3    H269773   1.289   1.964   3.070 -0.4337  0.2688 -0.7162
16120TIP3   OH269774   6.120   3.453  14.389  0.4819  0.5214  0.4035
16120TIP3    H169775   6.196   3.473  14.333 -1.1903  2.9487 -1.2018
16120TIP3    H269776   6.087   3.539  14.414 -2.5483 -0.3965 -0.1255
16121TIP3   OH269777   3.009   1.654   1.910 -0.3040  0.1397  0.6146
16121TIP3    H169778   2.958   1.717   1.859  0.7006  1.2264  0.9018
16121TIP3    H269779   3.038   1.590   1.845 -2.6300 -0.9731  0.5671
16122TIP3   OH269780   1.630   2.552  14.656  0.4727 -0.0670 -0.2491
16122TIP3    H169781   1.543   2.514  14.657  0.0060  0.9777  0.8582
16122TIP3    H269782   1.616   2.646  14.642  1.4231  0.0888 -0.2468
16123TIP3   OH269783   6.286   6.147   0.171  0.7046  0.3276  0.0361
16123TIP3    H169784   6.373   6.114   0.147  0.1928 -0.9937 -0.1000
16123TIP3    H269785   6.302   6.208   0.242  1.5740 -1.9144  1.8976
16124TIP3   OH269786   3.058   5.131   3.205 -0.1120 -0.1410 -0.2068
16124TIP3    H169787   2.964   5.120   3.195 -0.0953  0.2895 -0.9633
16124TIP3    H269788   3.096   5.051   3.168 -0.1847 -0.5097  0.4975
16125TIP3   OH269789   3.452   2.148   5.527  0.4998 -0.0749  0.7545
16125TIP3    H169790   3.493   2.063   5.514 -0.2526 -0.3281 -0.1620
16125TIP3    H269791   3.375   2.146   5.469 -0.3231  0.6863  1.7675
16126TIP3   OH269792   5.603   5.454   2.261 -0.4752 -0.2950  0.2576
16126TIP3    H169793   5.681   5.503   2.235 -0.0650 -0.9977  0.1363
16126TIP3    H269794   5.625   5.420   2.348 -1.4447  1.1900  1.1258
16127TIP3   OH269795   2.903   2.036  16.088 -0.4167  0.1260  0.2579
16127TIP3    H169796   2.907   2.117  16.139  0.1283 -0.0933  0.5734
16127TIP3    H269797   2.873   1.969  16.150 -1.9288  0.2875 -0.2696
16128TIP3   OH269798   3.082   2.981   0.530  0.3521  0.1882  0.5908
16128TIP3    H169799   3.102   2.888   0.524  0.6121  0.2687  0.1291
16128TIP3    H269800   3.050   2.993   0.619  0.2692 -0.3505  0.6380
16129TIP3   OH269801   5.769   3.641  15.179 -0.3333  0.0844  0.8851
16129TIP3    H169802   5.781   3.634  15.273  3.0103  0.5741  0.6506
16129TIP3    H269803   5.830   3.577  15.142  0.1215  1.4619 -0.9106
16130TIP3   OH269804   4.281   6.464   2.757 -0.2628  1.0834  0.4061
16130TIP3    H169805   4.360   6.454   2.704 -0.3824 -0.2971  0.4737
16130TIP3    H269806   4.311   6.461   2.847 -0.5496 -1.3357  0.4784
16131TIP3   OH269807   5.218   2.157   3.184  0.4126  0.0811  0.0958
16131TIP3    H169808   5.261   2.229   3.138  0.0950 -0.3265 -0.8758
16131TIP3    H269809   5.286   2.121   3.241 -0.1753  2.9413  2.8682
16132TIP3   OH269810   5.255   4.554  12.805  0.0964  0.1902 -0.1803
16132TIP3    H169811   5.236   4.644  12.831 -0.3774 -0.1010  0.5267
16132TIP3    H269812   5.263   4.507  12.888 -0.1205 -0.5039 -0.5461
16133TIP3   OH269813   1.933   5.118   0.360  0.1786 -0.2082  0.8236
16133TIP3    H169814   2.025   5.103   0.337 -0.4998 -2.9589 -0.5558
16133TIP3    H269815   1.890   5.034   0.343 -2.5300  0.8480  1.8735
16134TIP3   OH269816   2.732   5.551  13.429 -0.1382 -0.1118 -0.2051
16134TIP3    H169817   2.676   5.516  13.498 -0.2693  0.1383 -0.1837
16134TIP3    H269818   2.739   5.480  13.365  0.4479 -0.5455  0.3382
16135TIP3   OH269819   5.923   6.057  15.697  0.4353  0.0029 -0.4621
16135TIP3    H169820   5.909   6.002  15.619  0.0932  0.8925 -1.0440
16135TIP3    H269821   5.978   6.129  15.666  0.0540  0.5236  0.0458
16136TIP3   OH269822   0.698   6.410   3.272 -0.4745 -0.5604 -0.1752
16136TIP3    H169823   0.753   6.335   3.298  0.2252 -0.9839 -2.6041
16136TIP3    H269824   0.756   6.485   3.279 -0.1384 -0.7405 -0.8816
16137TIP3   OH269825   1.407   4.034  16.028  0.1700 -0.1858  0.1436
16137TIP3    H169826   1.314   4.009  16.025  0.2404 -0.3833 -1.1502
16137TIP3    H269827   1.435   4.012  16.116 -0.9318 -0.4454  0.4485
16138TIP3   OH269828   4.556   6.675   2.365  0.4053 -0.1750 -0.3670
16138TIP3    H169829   4.573   6.609   2.432 -0.9765  0.1475  0.3321
16138TIP3    H269830   4.468   6.654   2.332  0.4959  0.5219 -1.0756
16139TIP3   OH269831   1.092   3.545  12.410  0.1074  0.4432  0.5930
16139TIP3    H169832   1.105   3.526  12.317 -0.9937  1.3200  0.2449
16139TIP3    H269833   1.165   3.601  12.434  0.7539 -0.3100  0.4379
16140TIP3   OH269834   0.147   6.099  16.936  0.8651  0.1847 -0.0823
16140TIP3    H169835   0.179   6.180  16.897  1.4218  0.4563  0.8892
16140TIP3    H269836   0.121   6.044  16.862 -0.3282  1.5694 -0.7382
16141TIP3   OH269837   0.202   2.083   3.237  0.6953 -0.2256  0.3623
16141TIP3    H169838   0.207   1.991   3.263 -1.8126 -0.6600 -0.4165
16141TIP3    H269839   0.208   2.132   3.320 -0.5132 -1.2311  1.0750
16142TIP3   OH269840   1.825   1.297   1.974  0.0184 -1.0931  0.3255
16142TIP3    H169841   1.757   1.365   1.963  1.5754  0.4662 -0.0964
16142TIP3    H269842   1.869   1.321   2.056  0.3553 -1.8457  0.3721
16143TIP3   OH269843   2.370   5.492  12.213 -0.2423 -0.3757  0.3179
16143TIP3    H169844   2.305   5.484  12.283 -1.8838 -2.5527 -1.3170
16143TIP3    H269845   2.426   5.415  12.223 -0.8882 -1.0582 -1.0792
16144TIP3   OH269846   1.891   3.400   1.247 -0.8091  0.2095 -0.4124
16144TIP3    H169847   1.972   3.445   1.222 -0.5646 -0.8800 -1.6625
16144TIP3    H269848   1.920   3.325   1.298 -1.1434  0.6815  0.4965
16145TIP3   OH269849   3.550   1.691   2.687 -0.0130 -0.2740  0.1093
16145TIP3    H169850   3.463   1.712   2.655 -0.1045  0.2584  0.6953
16145TIP3    H269851   3.573   1.763   2.746  1.4287  0.3763 -1.1566
16146TIP3   OH269852   4.655   0.234  16.857  0.1523 -0.6176 -0.1546
16146TIP3    H169853   4.612   0.241  16.772 -0.6775  1.0913  0.3635
16146TIP3    H269854   4.737   0.281  16.847 -0.5333  0.7335  0.3153
16147TIP3   OH269855   3.521   6.215  13.872  0.5274  0.3392 -0.1721
16147TIP3    H169856   3.598   6.222  13.928  0.7712  2.8769 -0.7236
16147TIP3    H269857   3.449   6.197  13.933  1.3239 -0.7563  0.4864
16148TIP3   OH269858   3.967   3.600  12.265 -0.5684 -0.2575  0.7021
16148TIP3    H169859   4.044   3.617  12.211 -0.3142 -3.0404 -0.0062
16148TIP3    H269860   3.956   3.679  12.317  0.8307  1.4837 -1.4424
16149TIP3   OH269861   3.546   5.028   2.591 -1.0177  0.1909  0.0693
16149TIP3    H169862   3.475   4.964   2.598  1.0288 -2.3003 -0.4954
16149TIP3    H269863   3.574   5.024   2.499  0.3884  0.4768  0.4578
16150TIP3   OH269864   5.307   1.070   2.370  0.6211 -0.5224  0.1995
16150TIP3    H169865   5.281   1.004   2.434  1.5648 -0.2209  0.9142
16150TIP3    H269866   5.265   1.151   2.400  1.1371 -0.3615  0.4923
16151TIP3   OH269867   3.618   5.250   3.559 -0.1605 -0.4582  0.2963
16151TIP3    H169868   3.669   5.331   3.557 -1.0007  0.1387  1.5485
16151TIP3    H269869   3.684   5.180   3.562  0.5887  0.0990 -1.6634
16152TIP3   OH269870   4.797   2.865   1.362 -0.8858 -0.0716  0.5002
16152TIP3    H169871   4.720   2.883   1.416 -0.2147  3.3556  0.5486
16152TIP3    H269872   4.766   2.874   1.272 -0.7420  0.4372  0.4986
16153TIP3   OH269873   2.892   1.423   0.629 -0.1179 -0.2925 -0.5351
16153TIP3    H169874   2.976   1.380   0.610  0.6665  1.6827 -1.9324
16153TIP3    H269875   2.916   1.510   0.661 -1.6537 -0.6214  1.7349
16154TIP3   OH269876   1.256   5.902   1.075 -0.0821 -0.5246 -0.3562
16154TIP3    H169877   1.331   5.950   1.108 -0.5066 -0.5187  0.6456
16154TIP3    H269878   1.201   5.968   1.033  0.2424 -0.4556 -0.6783
16155TIP3   OH269879   1.301   0.006   2.774 -0.7309 -0.4240  0.1867
16155TIP3    H169880   1.314   0.062   2.850 -2.1136  0.4411 -0.1686
16155TIP3    H269881   1.229  -0.053   2.800 -1.2239 -0.1108 -0.4451
16156TIP3   OH269882   3.543   0.793  17.211 -0.2126  0.4384 -0.1639
16156TIP3    H169883   3.465   0.743  17.188 -0.0169  0.2021 -0.3221
16156TIP3    H269884   3.556   0.853  17.137 -0.5710  0.8810  0.1234
16157TIP3   OH269885   4.440   5.421   6.157 -0.1748  0.3509  0.2575
16157TIP3    H169886   4.459   5.445   6.066  0.1033  0.1389  0.2587
16157TIP3    H269887   4.425   5.504   6.201 -0.1513  0.4644  0.0526
16158TIP3   OH269888   6.062   6.521  11.464 -0.0960  0.6537 -0.6404
16158TIP3    H169889   6.136   6.574  11.495  0.1605  1.0331 -1.8221
16158TIP3    H269890   5.984   6.569  11.494  0.1046  0.0544  0.9369
16159TIP3   OH269891   5.270   0.101  13.016 -0.2240  0.2964  0.0955
16159TIP3    H169892   5.224   0.164  12.961 -0.3460 -1.0094 -1.3922
16159TIP3    H269893   5.336   0.062  12.958  1.1551  0.4153  1.5104
16160TIP3   OH269894   3.498   3.398   0.426 -0.1024  0.4787  0.3427
16160TIP3    H169895   3.463   3.447   0.500 -0.9719  1.0657 -0.4333
16160TIP3    H269896   3.473   3.307   0.443 -0.1792  0.5895  0.8262
16161TIP3   OH269897   4.421   2.130  13.793  0.2860 -0.1063 -0.3100
16161TIP3    H169898   4.380   2.152  13.877 -2.3076  0.1480 -1.5413
16161TIP3    H269899   4.428   2.214  13.748  0.7583 -0.3747 -0.7424
16162TIP3   OH269900   1.177   3.397   0.135  0.2591  0.0452  0.4240
16162TIP3    H169901   1.228   3.473   0.163 -1.2106  0.8414  1.0523
16162TIP3    H269902   1.160   3.348   0.216 -0.6442  0.2188  0.3408
16163TIP3   OH269903   3.145   4.129   3.365  1.1622  0.2007 -0.1061
16163TIP3    H169904   3.136   4.219   3.334  0.1077  0.9809  2.2431
16163TIP3    H269905   3.100   4.128   3.449  1.7322 -2.3750  0.2481
16164TIP3   OH269906   2.878   0.955  11.278  0.1188 -0.4993  0.0841
16164TIP3    H169907   2.878   0.880  11.219 -0.6248 -1.3770  1.1667
16164TIP3    H269908   2.850   0.920  11.362 -2.9275  1.4171  0.0445
16165TIP3   OH269909   6.699   0.535   7.082  0.4369  0.0856  0.6734
16165TIP3    H169910   6.607   0.556   7.101  0.4277  0.5248  0.1703
16165TIP3    H269911   6.713   0.568   6.993  1.3055  0.7133  1.0387
16166TIP3   OH269912   4.733   3.581   2.532  0.7025 -0.5577  0.3744
16166TIP3    H169913   4.697   3.646   2.471  2.3830 -0.7553 -0.8935
16166TIP3    H269914   4.768   3.512   2.475  0.9919 -1.4683  1.6289
16167TIP3   OH269915   1.182   2.643  16.464  0.6301  0.4194  0.7856
16167TIP3    H169916   1.209   2.673  16.378  0.6651 -0.5099  0.4662
16167TIP3    H269917   1.260   2.602  16.502 -0.2211 -2.2950 -0.1519
16168TIP3   OH269918   4.962   2.776  14.489  0.4514 -0.5228 -0.1169
16168TIP3    H169919   4.944   2.736  14.575  1.6988 -1.3565 -0.2187
16168TIP3    H269920   4.957   2.703  14.427 -1.6484  0.2639 -0.9908
16169TIP3   OH269921   4.071   1.996   4.834  0.4723  0.3316 -0.6037
16169TIP3    H169922   4.110   1.975   4.750  2.9400  0.4151  0.4326
16169TIP3    H269923   4.050   2.090   4.828  0.8509  0.3886 -1.0322
16170TIP3   OH269924   5.476   1.187  12.663  0.2347 -0.1618  0.7197
16170TIP3    H169925   5.521   1.209  12.744 -1.6125  1.5574  1.3427
16170TIP3    H269926   5.452   1.095  12.673 -0.3593  0.1409  2.3234
16171TIP3   OH269927   0.761   5.680   5.454 -0.4148 -0.3489 -0.2150
16171TIP3    H169928   0.671   5.691   5.484 -0.0148  1.4903  0.4365
16171TIP3    H269929   0.765   5.727   5.371  0.3419  1.1997  0.6418
16172TIP3   OH269930   2.897   2.182   2.717  0.0641  0.1260  0.1472
16172TIP3    H169931   2.863   2.200   2.629 -2.6645  0.2415  1.1163
16172TIP3    H269932   2.919   2.268   2.752 -0.5173  0.2652  0.1783
16173TIP3   OH269933   2.084   6.524  16.102 -0.0382 -0.3461 -0.1967
16173TIP3    H169934   2.173   6.546  16.073 -0.0249  0.0445  0.1326
16173TIP3    H269935   2.096   6.485  16.189 -0.3832  2.5009  1.2637
16174TIP3   OH269936   0.328   5.603   5.770  0.9711 -0.4402 -0.1753
16174TIP3    H169937   0.251   5.657   5.783  2.0972  1.1831  0.0591
16174TIP3    H269938   0.399   5.651   5.814  2.4815 -0.9247 -1.9398
16175TIP3   OH269939   4.664   4.043  16.521  0.1941 -0.3389  0.9942
16175TIP3    H169940   4.714   3.998  16.589 -0.8375 -0.8067  1.4545
16175TIP3    H269941   4.627   3.972  16.468  0.7885  0.0177  0.0825
16176TIP3   OH269942   2.391   2.421   0.551  0.2224 -0.5257 -0.0948
16176TIP3    H169943   2.332   2.395   0.480  0.0174 -2.0768  0.5945
16176TIP3    H269944   2.388   2.348   0.612 -0.1380  1.0512  1.8813
16177TIP3   OH269945   3.226   6.699  12.831 -0.5393  0.5243 -0.3669
16177TIP3    H169946   3.144   6.712  12.785 -1.4463  1.6348  1.4453
16177TIP3    H269947   3.217   6.612  12.871 -1.2942  1.0588  0.6631
16178TIP3   OH269948   1.437   4.505   4.163  0.2327  0.3777 -0.5040
16178TIP3    H169949   1.412   4.452   4.087  0.8511 -0.4769 -0.1220
16178TIP3    H269950   1.522   4.470   4.190 -0.7026 -0.4253  1.5753
16179TIP3   OH269951   6.690   3.183   5.047  0.1154  0.3918  0.8178
16179TIP3    H169952   6.594   3.189   5.047  0.0636 -0.3239  0.3025
16179TIP3    H269953   6.708   3.092   5.025  0.9438  1.0736 -1.6089
16180TIP3   OH269954   0.935   6.707   0.234  0.0274 -0.0158  0.1303
16180TIP3    H169955   1.007   6.655   0.199 -0.9718 -0.5562 -1.2258
16180TIP3    H269956   0.892   6.744   0.157 -0.9446  0.5645  0.9179
16181TIP3   OH269957   0.783   4.767   3.279  0.5316 -0.1875  0.1517
16181TIP3    H169958   0.771   4.848   3.229  1.6722 -0.1610 -0.0956
16181TIP3    H269959   0.751   4.788   3.366  0.2715  0.3475 -0.0692
16182TIP3   OH269960   3.535   2.566  11.334  0.4777 -0.1901 -0.0952
16182TIP3    H169961   3.604   2.601  11.277 -0.1462  1.0584 -0.1138
16182TIP3    H269962   3.491   2.500  11.280 -0.4345  1.3228 -1.2977
16183TIP3   OH269963   3.773   6.131  16.063  0.4969  0.6496 -0.0564
16183TIP3    H169964   3.762   6.152  16.155 -2.1986  0.5304 -0.2582
16183TIP3    H269965   3.744   6.210  16.017 -1.0998 -0.2813 -0.7544
16184TIP3   OH269966   3.535   4.386   5.859  0.1680  0.1407 -0.0880
16184TIP3    H169967   3.607   4.324   5.850  0.0095 -0.0191 -0.2464
16184TIP3    H269968   3.531   4.404   5.953 -1.7382 -2.4268  0.4330
16185TIP3   OH269969   1.138   3.301   3.453 -0.0691  0.0672 -0.7431
16185TIP3    H169970   1.164   3.217   3.490  1.2479  0.8405  0.1708
16185TIP3    H269971   1.052   3.318   3.491  1.4908  1.1439  2.7084
16186TIP3   OH269972   2.148   6.260  14.103  0.6218 -0.1563  0.5251
16186TIP3    H169973   2.233   6.226  14.074 -0.0299 -0.4830 -1.0500
16186TIP3    H269974   2.151   6.353  14.079  0.6920 -0.0691  0.8645
16187TIP3   OH269975   2.883   3.314  11.901  0.5644  0.1189 -0.1160
16187TIP3    H169976   2.821   3.265  11.954  1.0996 -0.7319 -0.2673
16187TIP3    H269977   2.886   3.268  11.817  0.2860  1.0215 -0.6380
16188TIP3   OH269978   0.435   0.226  12.076 -0.1946  0.4530  0.3351
16188TIP3    H169979   0.397   0.273  12.150  0.6534  3.4219 -0.9922
16188TIP3    H269980   0.515   0.187  12.111 -0.8302  0.0799  1.4291
16189TIP3   OH269981   5.518   2.562  11.972  0.7706  0.4281 -0.6506
16189TIP3    H169982   5.589   2.574  12.035  0.6967  1.2147 -0.6992
16189TIP3    H269983   5.558   2.585  11.887  0.2434  1.7470 -0.5668
16190TIP3   OH269984   3.461   2.395  15.178 -0.1124  0.3008 -0.0534
16190TIP3    H169985   3.488   2.484  15.153 -1.0109  1.1854  1.8605
16190TIP3    H269986   3.529   2.366  15.239  0.3979 -0.5179 -0.9953
16191TIP3   OH269987   4.106   2.174   0.599  0.0658 -0.8554  0.9433
16191TIP3    H169988   4.032   2.232   0.617  1.0200  0.7461 -0.1377
16191TIP3    H269989   4.147   2.161   0.685  0.7272  1.3518  1.0247
16192TIP3   OH269990   1.251   4.976  14.081 -0.1277 -0.0290 -0.1457
16192TIP3    H169991   1.282   4.910  14.019 -1.7055 -0.6435 -0.3231
16192TIP3    H269992   1.173   4.937  14.120 -0.9879  1.6703 -0.1232
16193TIP3   OH269993   0.555   4.995   6.218  0.2161  0.3874  0.3447
16193TIP3    H169994   0.626   4.931   6.204  0.7014  0.6526  1.4639
16193TIP3    H269995   0.477   4.941   6.232  0.2546  0.0831 -0.5640
16194TIP3   OH269996   5.753   2.611  12.116  0.2322 -0.4346 -0.5394
16194TIP3    H169997   5.700   2.618  12.196 -0.5000 -0.1942 -1.0394
16194TIP3    H269998   5.844   2.617  12.147 -0.0654  0.9880  0.1527
16195TIP3   OH269999   1.291   0.604   0.955 -0.3705 -0.2041 -0.2170
16195TIP3    H170000   1.384   0.616   0.934 -0.4061 -0.6055 -0.6151
16195TIP3    H270001   1.261   0.540   0.892 -1.0323  0.2600 -0.3808
16196TIP3   OH270002   2.458   5.769   1.220 -0.0860 -0.5453 -0.4465
16196TIP3    H170003   2.393   5.707   1.254 -1.0515  0.0811 -1.0838
16196TIP3    H270004   2.514   5.717   1.164  1.0764 -1.4475  1.4641
16197TIP3   OH270005   6.046   0.329   5.616  0.2143  0.2900  0.3323
16197TIP3    H170006   6.097   0.254   5.646 -0.2251  0.0493  0.4909
16197TIP3    H270007   5.988   0.349   5.689  0.4487  0.8960  0.3535
16198TIP3   OH270008   4.900   3.659  16.381  0.2801 -0.5200 -0.1542
16198TIP3    H170009   4.942   3.578  16.409  3.6940  0.8276 -0.8487
16198TIP3    H270010   4.943   3.681  16.298 -1.9052  1.0452 -0.9625
16199TIP3   OH270011   6.438   5.826  16.177  0.5052  0.2592  0.0456
16199TIP3    H170012   6.400   5.739  16.188 -0.8688  0.7065 -0.8538
16199TIP3    H270013   6.372   5.886  16.212  1.4617  0.9565  0.7145
16200TIP3   OH270014   1.675   3.475   4.011  0.5150 -0.4708  0.3767
16200TIP3    H170015   1.623   3.434   4.080  0.0916 -0.4165  0.0957
16200TIP3    H270016   1.761   3.490   4.051 -0.5667  2.4129  1.9930
16201TIP3   OH270017   3.356   2.583  16.684 -0.2601  0.6162 -0.1821
16201TIP3    H170018   3.269   2.583  16.644 -0.2420 -0.7491 -0.2721
16201TIP3    H270019   3.415   2.556  16.614  0.5961  3.4603 -0.7191
16202TIP3   OH270020   0.863   1.145   2.389 -0.3402  0.1029  0.0079
16202TIP3    H170021   0.792   1.186   2.438 -0.8231 -1.3437  0.5878
16202TIP3    H270022   0.937   1.145   2.448 -0.6731 -0.8588  0.4471
16203TIP3   OH270023   2.683   4.096  15.480  0.6201  0.1879  0.2284
16203TIP3    H170024   2.610   4.072  15.537  0.4395 -1.7061 -0.7418
16203TIP3    H270025   2.754   4.117  15.541 -0.4053  1.0375  1.1655
16204TIP3   OH270026   1.405   4.746  17.224 -0.1810  0.7158 -0.2011
16204TIP3    H170027   1.442   4.658  17.233 -0.8499  0.2831 -1.4352
16204TIP3    H270028   1.449   4.797  17.292  0.3371 -0.5256  0.4400
16205TIP3   OH270029   5.231   2.947   0.345  0.5065  0.3923  0.0485
16205TIP3    H170030   5.231   3.043   0.339 -0.3463  0.3678 -0.5603
16205TIP3    H270031   5.306   2.926   0.400  2.1550  1.2969 -1.7353
16206TIP3   OH270032   1.751   4.442   4.408 -0.4428  0.0674  0.4996
16206TIP3    H170033   1.808   4.490   4.468  0.6670  0.9088 -1.1695
16206TIP3    H270034   1.801   4.363   4.386 -0.1967  0.4896 -0.4672
16207TIP3   OH270035   4.960   2.372   4.564  0.2141 -0.0503 -0.4533
16207TIP3    H170036   4.908   2.294   4.545 -0.4442 -0.2467  1.8945
16207TIP3    H270037   4.925   2.439   4.504 -2.8508 -0.1656  1.0268
16208TIP3   OH270038   4.095   1.228  15.343 -0.3282 -0.4455 -0.4917
16208TIP3    H170039   4.151   1.150  15.342  1.9158  1.0390  0.4858
16208TIP3    H270040   4.044   1.220  15.423 -0.0152 -0.8673 -0.3314
16209TIP3   OH270041   3.391   1.448  15.195 -0.2706 -0.3822  0.2015
16209TIP3    H170042   3.420   1.412  15.110  0.1291 -1.6600  0.8491
16209TIP3    H270043   3.403   1.542  15.186 -1.0251 -0.4027 -1.4625
16210TIP3   OH270044   1.369   0.386  11.282 -0.2121 -0.5498  0.3856
16210TIP3    H170045   1.312   0.460  11.305 -0.1418 -0.2499 -0.3692
16210TIP3    H270046   1.312   0.310  11.285 -0.9656 -0.1201 -1.4402
16211TIP3   OH270047   2.015   5.940  14.908  0.2312  0.2570  0.4757
16211TIP3    H170048   2.061   5.900  14.834  0.0559 -0.7771  0.8945
16211TIP3    H270049   2.057   6.025  14.920  0.2564  0.4503 -0.8093
16212TIP3   OH270050   5.582   3.412  11.239  0.4938  0.6158  0.1438
16212TIP3    H170051   5.564   3.356  11.314  2.5476 -0.0989  0.1816
16212TIP3    H270052   5.561   3.501  11.269  2.8514  0.5686  2.2319
16213TIP3   OH270053   6.127   5.762   1.079  0.0874 -0.0437 -0.1088
16213TIP3    H170054   6.125   5.669   1.056  0.8965 -0.5051  1.5055
16213TIP3    H270055   6.041   5.779   1.117 -0.3499  0.0969 -1.1226
16214TIP3   OH270056   0.491   4.242   1.009 -0.0422  0.9001 -0.0700
16214TIP3    H170057   0.484   4.335   1.032  1.0413  0.6995  1.2073
16214TIP3    H270058   0.501   4.198   1.093 -1.3005 -0.4682 -0.6019
16215TIP3   OH270059   3.987   2.244   4.813  0.7224 -0.1815 -0.2803
16215TIP3    H170060   3.986   2.247   4.909  0.2958 -2.0528 -0.1832
16215TIP3    H270061   3.989   2.335   4.786 -0.2204  0.4143  1.5069
16216TIP3   OH270062   5.253   0.769   4.287  0.1890 -0.2958 -1.0417
16216TIP3    H170063   5.332   0.763   4.233  0.7478 -0.8085 -0.2002
16216TIP3    H270064   5.218   0.680   4.288  1.9012 -1.0774  1.8853
16217TIP3   OH270065   3.411   2.549  13.564 -0.3725  0.5627  0.0008
16217TIP3    H170066   3.502   2.575  13.552  0.1073 -1.6450 -1.9054
16217TIP3    H270067   3.399   2.546  13.659  1.5409  0.8201  0.2962
16218TIP3   OH270068   0.397   1.812   5.599 -0.1691 -0.3000 -0.0542
16218TIP3    H170069   0.470   1.786   5.542  0.8132  0.1495  0.9556
16218TIP3    H270070   0.363   1.892   5.559  1.0843  0.5099  0.4344
16219TIP3   OH270071   4.213   3.927   1.765  0.6454 -0.2075 -0.2588
16219TIP3    H170072   4.183   3.953   1.853  1.9408 -1.6612  0.6647
16219TIP3    H270073   4.293   3.977   1.752  0.3337  0.1764 -0.7287
16220TIP3   OH270074   3.515   5.424   4.416  0.6473 -0.7000 -0.0068
16220TIP3    H170075   3.534   5.508   4.375  1.0522 -0.9120 -0.2584
16220TIP3    H270076   3.594   5.372   4.402 -0.2648 -1.7464 -1.4565
16221TIP3   OH270077   3.207   0.993   3.550  0.0956 -0.2579  0.1545
16221TIP3    H170078   3.196   1.053   3.624 -0.9726 -0.3890  0.1090
16221TIP3    H270079   3.216   0.907   3.590 -1.6699 -0.4930  0.1212
16222TIP3   OH270080   6.508   2.840   2.313 -0.0175 -0.1094  0.0869
16222TIP3    H170081   6.433   2.788   2.342 -0.1311 -0.5012 -0.8832
16222TIP3    H270082   6.561   2.852   2.392 -0.3321 -1.1250  0.4703
16223TIP3   OH270083   5.317   3.514  10.420 -0.0586  0.2105 -0.0743
16223TIP3    H170084   5.314   3.510  10.516  0.7760  0.7144 -0.0118
16223TIP3    H270085   5.269   3.593  10.398  1.9396  1.5557  0.1245
16224TIP3   OH270086   3.386   3.834  11.809  0.4896  0.0943 -0.3073
16224TIP3    H170087   3.399   3.886  11.730 -1.0305  0.3685 -0.4147
16224TIP3    H270088   3.358   3.748  11.776  0.1369  0.1212 -0.0890
16225TIP3   OH270089   3.872   2.454   4.389  0.0812  1.0998 -0.5398
16225TIP3    H170090   3.839   2.366   4.369 -1.2313  1.3316  0.5387
16225TIP3    H270091   3.958   2.456   4.347  1.6269 -1.8639  2.0685
16226TIP3   OH270092   3.659   0.178   3.021  0.4799 -0.1932  0.8232
16226TIP3    H170093   3.655   0.117   2.947  0.9853 -0.5433  1.0773
16226TIP3    H270094   3.569   0.210   3.032  0.4928  0.2392 -0.2504
16227TIP3   OH270095   0.254   4.714   3.346  0.1059 -0.2254  0.0989
16227TIP3    H170096   0.180   4.720   3.286  0.5837 -1.7851 -0.7044
16227TIP3    H270097   0.228   4.768   3.421 -0.6988  1.4051 -1.2748
16228TIP3   OH270098   3.638   1.627   6.309  0.2918  0.3079 -0.3290
16228TIP3    H170099   3.723   1.613   6.352 -0.4633  0.3643  1.2381
16228TIP3    H270100   3.574   1.586   6.367 -0.9990  2.3056 -0.2231
16229TIP3   OH270101   3.882   5.997   3.288 -0.3418 -0.1742 -0.5081
16229TIP3    H170102   3.797   5.969   3.322 -0.0520 -0.4106  0.0247
16229TIP3    H270103   3.905   6.073   3.341 -0.1559 -0.1937 -0.5626
16230TIP3   OH270104   2.333   4.086  14.858  0.2142 -0.2615  0.6516
16230TIP3    H170105   2.301   4.023  14.923 -1.2761 -0.0078  0.2026
16230TIP3    H270106   2.254   4.129  14.826  0.8746 -0.6054 -1.5745
16231TIP3   OH270107   3.858   2.342   5.883  0.3900 -0.8501 -0.3573
16231TIP3    H170108   3.900   2.354   5.797 -0.6077  0.3335 -0.7146
16231TIP3    H270109   3.776   2.391   5.876  1.1733  0.9749  1.9188
16232TIP3   OH270110   4.001   3.146  15.963  0.2841  0.2487  0.1015
16232TIP3    H170111   3.924   3.111  16.010  0.3406  0.5032  0.3839
16232TIP3    H270112   4.046   3.068  15.931 -1.8348  0.1088 -2.9460
16233TIP3   OH270113   1.078   5.980  12.963  0.7563  0.5485 -0.1700
16233TIP3    H170114   0.989   5.993  12.931  0.5612  1.5548  0.7194
16233TIP3    H270115   1.134   6.000  12.888  0.2416 -1.0800 -1.0372
16234TIP3   OH270116   2.404   3.526  13.741 -0.2762 -0.6056  0.0435
16234TIP3    H170117   2.387   3.594  13.806  0.6236  0.3850 -0.7374
16234TIP3    H270118   2.479   3.478  13.777 -1.7343 -2.1269  1.2698
16235TIP3   OH270119   2.371   3.797   5.282  0.4765  0.0703  0.3587
16235TIP3    H170120   2.449   3.851   5.268  0.5907 -0.1313  0.2073
16235TIP3    H270121   2.395   3.738   5.354  0.2650  0.3880  0.6890
16236TIP3   OH270122   2.041   6.515   1.003 -0.1526 -0.1291 -0.1012
16236TIP3    H170123   1.989   6.444   0.966  1.5606 -0.6268 -1.6741
16236TIP3    H270124   2.076   6.562   0.927  0.4790  1.1119  0.9135
16237TIP3   OH270125   2.275   1.687  17.311  0.4496 -0.0166  0.0393
16237TIP3    H170126   2.315   1.696  17.397  0.0880  1.0800  0.1137
16237TIP3    H270127   2.205   1.752  17.310 -0.9271 -1.4264 -0.3239
16238TIP3   OH270128   6.506   3.995  15.270  0.4958 -0.0455  0.4601
16238TIP3    H170129   6.511   3.945  15.352  0.2366 -0.9793 -0.0783
16238TIP3    H270130   6.413   3.993  15.247  0.2520  1.8824  1.1355
16239TIP3   OH270131   6.631   5.376  10.817 -0.4261 -0.1473 -0.3636
16239TIP3    H170132   6.611   5.383  10.724 -0.5179 -0.9235 -0.4070
16239TIP3    H270133   6.717   5.416  10.826 -0.6531  0.4260 -0.6893
16240TIP3   OH270134   3.015   5.211  15.099  0.2429 -0.7419 -0.0539
16240TIP3    H170135   3.102   5.242  15.076  0.3449 -2.0606 -1.6675
16240TIP3    H270136   3.016   5.204  15.194  0.6862  2.5893  0.2967
16241TIP3   OH270137   0.614   1.612  12.674  0.0581 -0.0878 -0.2083
16241TIP3    H170138   0.615   1.516  12.679  0.6191 -0.1285 -0.8755
16241TIP3    H270139   0.646   1.631  12.586 -0.1830  0.7145 -0.1278
16242TIP3   OH270140   0.181   0.979  16.270 -0.2612  0.5735 -0.5141
16242TIP3    H170141   0.145   0.950  16.186 -0.1582  0.1702 -0.4184
16242TIP3    H270142   0.107   1.017  16.316 -0.9377 -1.6264  0.3190
16243TIP3   OH270143   3.562   4.122   5.591  0.1597 -0.4163 -0.6148
16243TIP3    H170144   3.603   4.102   5.507 -0.0957 -1.4787 -0.4976
16243TIP3    H270145   3.535   4.037   5.626 -0.8764  0.1192 -0.0415
16244TIP3   OH270146   3.648   2.875   4.547  0.4490  0.6061 -0.4438
16244TIP3    H170147   3.737   2.910   4.558  0.4945  0.3939 -0.1382
16244TIP3    H270148   3.657   2.808   4.480  1.0105 -1.1936  1.3417
16245TIP3   OH270149   1.692   3.587   4.454 -0.4800 -0.8048 -0.4003
16245TIP3    H170150   1.672   3.676   4.427  1.4244 -0.1904  0.0447
16245TIP3    H270151   1.624   3.533   4.413 -1.6472  0.8273 -0.6988
16246TIP3   OH270152   0.648   1.029  15.928  0.3982 -0.3529  0.6159
16246TIP3    H170153   0.719   0.974  15.963  1.5171  0.9046  0.4261
16246TIP3    H270154   0.615   0.980  15.853  2.6056 -0.0145 -0.6728
16247TIP3   OH270155   3.096   1.727   3.319 -0.2984 -0.3027  0.4613
16247TIP3    H170156   3.022   1.671   3.343 -1.2062  0.6409 -0.0668
16247TIP3    H270157   3.159   1.667   3.279 -1.3254 -0.9355 -0.2590
16248TIP3   OH270158   0.997   0.323   3.187  0.3626  0.0189  0.0546
16248TIP3    H170159   0.904   0.302   3.196  0.8199 -3.4401 -1.6717
16248TIP3    H270160   1.039   0.275   3.258  0.8964  1.5082  0.7842
16249TIP3   OH270161   0.383   1.467   4.126  0.1593 -0.0062  0.5310
16249TIP3    H170162   0.473   1.456   4.157  0.3536 -0.5466 -0.1949
16249TIP3    H270163   0.330   1.469   4.206  0.8603  0.8055  0.9856
16250TIP3   OH270164   4.479   5.910   3.334 -0.0068  0.6014 -0.3516
16250TIP3    H170165   4.552   5.855   3.305  1.5943  1.9520  0.9537
16250TIP3    H270166   4.421   5.849   3.380  1.0809 -0.2358 -0.0429
16251TIP3   OH270167   4.037   4.231  12.429 -0.5271  0.4279  0.2302
16251TIP3    H170168   4.100   4.159  12.428 -0.7666  0.2155  0.3295
16251TIP3    H270169   4.039   4.265  12.340  1.6040  2.0824  0.8439
16252TIP3   OH270170   4.722   0.220  15.149  0.1537 -0.1412  0.1494
16252TIP3    H170171   4.775   0.145  15.174  1.0801  0.2145 -0.6768
16252TIP3    H270172   4.739   0.231  15.055  0.3203  1.3111  0.3167
16253TIP3   OH270173   2.281   3.955   4.621  0.2316 -0.4596 -0.1154
16253TIP3    H170174   2.346   4.017   4.589  0.9061 -0.2985  1.4565
16253TIP3    H270175   2.223   4.009   4.675  0.0578 -0.9737  0.2098
16254TIP3   OH270176   4.340   1.151   4.752  0.5169 -0.0485  0.1225
16254TIP3    H170177   4.325   1.246   4.755 -0.7147 -0.1595 -1.3610
16254TIP3    H270178   4.277   1.119   4.687  1.3085 -1.8106  0.1787
16255TIP3   OH270179   5.593   2.808   1.164  0.2098  0.2528 -0.3037
16255TIP3    H170180   5.580   2.750   1.238  0.7463  1.0758  0.4659
16255TIP3    H270181   5.685   2.795   1.139  0.2329  0.5053 -0.3553
16256TIP3   OH270182   4.379   4.693  15.151  0.3720 -0.0440 -0.0202
16256TIP3    H170183   4.375   4.710  15.245 -1.2291 -1.6479  0.2642
16256TIP3    H270184   4.409   4.775  15.112  3.4801 -0.0692  2.0470
16257TIP3   OH270185   1.436   5.034   0.039  0.2750  0.3695  0.6268
16257TIP3    H170186   1.410   4.950   0.078  2.5478  0.2498  2.0958
16257TIP3    H270187   1.492   5.010  -0.035  0.7040  0.5830  0.8795
16258TIP3   OH270188   4.277   3.639  17.316  0.0393 -0.1489 -0.5857
16258TIP3    H170189   4.219   3.627  17.391 -4.3299  1.2691 -3.3252
16258TIP3    H270190   4.331   3.714  17.338  0.7964 -1.3500  2.0156
16259TIP3   OH270191   5.260   3.123  10.778  0.0507  1.0181 -0.9213
16259TIP3    H170192   5.262   3.201  10.833 -0.7574  0.9494 -0.7879
16259TIP3    H270193   5.195   3.143  10.710 -0.5986  0.2459 -0.5481
16260TIP3   OH270194   5.356   5.454  11.100  0.1438 -0.0739  0.2145
16260TIP3    H170195   5.355   5.504  11.019 -0.0887 -0.9585 -0.3436
16260TIP3    H270196   5.264   5.429  11.114  0.2769 -0.4817  0.3928
16261TIP3   OH270197   5.150   1.902   1.689 -0.0173 -0.0243  0.1278
16261TIP3    H170198   5.239   1.913   1.722  0.3814 -2.9774  0.3463
16261TIP3    H270199   5.162   1.868   1.600 -1.0207  2.0161 -0.8606
16262TIP3   OH270200   2.392   4.931  16.368 -0.4494 -0.0202  0.0974
16262TIP3    H170201   2.321   4.896  16.316 -1.6070  1.1107  0.8647
16262TIP3    H270202   2.357   4.936  16.457  0.2700  1.3421  0.3370
16263TIP3   OH270203   6.625   6.212   5.582 -0.0711 -0.0017 -0.4265
16263TIP3    H170204   6.562   6.192   5.652  1.7576 -0.4405  1.1896
16263TIP3    H270205   6.632   6.307   5.582 -0.3255  0.0178 -0.2303
16264TIP3   OH270206   2.318   5.531  15.108  0.3943 -0.4707  0.7678
16264TIP3    H170207   2.404   5.510  15.145  0.4428  2.8381  3.0131
16264TIP3    H270208   2.256   5.494  15.171  0.3207  0.0955  1.0413
16265TIP3   OH270209   2.260   0.252   3.111 -0.2423 -0.0784 -0.0959
16265TIP3    H170210   2.209   0.279   3.187 -0.7006  1.5306 -0.9434
16265TIP3    H270211   2.311   0.329   3.087 -0.4976 -0.3876 -1.7330
16266TIP3   OH270212   4.183   0.360   5.040 -0.1890  0.0929  0.2208
16266TIP3    H170213   4.190   0.337   5.132 -0.4930 -0.3035  0.1502
16266TIP3    H270214   4.254   0.310   4.998 -0.0613  0.2602  0.2344
16267TIP3   OH270215   5.303   2.577  14.453  0.1863  0.1592  0.4818
16267TIP3    H170216   5.256   2.539  14.380 -1.5723  0.1927  1.5470
16267TIP3    H270217   5.356   2.505  14.487  0.2244 -0.1301 -0.1778
16268TIP3   OH270218   3.458   4.519   3.523  0.4105 -0.3832 -0.4453
16268TIP3    H170219   3.445   4.545   3.431  2.6974  1.1865 -0.4288
16268TIP3    H270220   3.489   4.599   3.566 -0.5897 -1.0878  1.7252
16269TIP3   OH270221   1.470   0.862  14.436  0.3163  0.7389 -0.3237
16269TIP3    H170222   1.493   0.821  14.353 -0.0192 -1.6671  0.6813
16269TIP3    H270223   1.394   0.916  14.417 -0.9516 -1.2703 -1.2804
16270TIP3   OH270224   3.720   3.843  11.842  0.1082 -0.8465  0.2346
16270TIP3    H170225   3.670   3.762  11.830  0.9731 -1.5529  1.1138
16270TIP3    H270226   3.811   3.813  11.849  0.3953  0.1619  0.9672
16271TIP3   OH270227   5.595   0.850   0.687 -0.7145 -0.2476 -0.2094
16271TIP3    H170228   5.630   0.814   0.606 -0.1964  1.2025 -0.6634
16271TIP3    H270229   5.500   0.844   0.677 -0.7179 -3.4103  0.6621
16272TIP3   OH270230   4.562   6.613  14.029  0.5513  0.4394  0.4888
16272TIP3    H170231   4.565   6.588  13.937 -3.7750  0.9203 -0.0079
16272TIP3    H270232   4.536   6.532  14.075  0.2789  0.7705  0.9285
16273TIP3   OH270233   5.735   0.167   3.331  0.2470  0.2611  0.1614
16273TIP3    H170234   5.673   0.138   3.263  0.2768 -1.5496  0.8750
16273TIP3    H270235   5.819   0.132   3.304  0.8490  1.9400 -0.3078
16274TIP3   OH270236   0.125   4.051   1.817 -0.2389 -0.1144 -0.5924
16274TIP3    H170237   0.128   4.067   1.912  1.5050  0.9373 -0.7874
16274TIP3    H270238   0.102   3.958   1.810 -0.6767 -0.1468  0.8503
16275TIP3   OH270239   4.116   2.697  13.781  0.1066 -0.7495  0.0607
16275TIP3    H170240   4.077   2.718  13.697 -1.2150 -3.1553 -0.0236
16275TIP3    H270241   4.069   2.752  13.844 -0.9249 -1.0073 -0.4660
16276TIP3   OH270242   5.560   6.694   1.639 -0.5808  0.8522  0.1203
16276TIP3    H170243   5.491   6.746   1.597 -2.1121 -2.2913 -1.5953
16276TIP3    H270244   5.569   6.616   1.584  3.3891  0.3789  1.0817
16277TIP3   OH270245   5.917   1.113  13.473  0.1780  0.0460  0.3119
16277TIP3    H170246   5.962   1.183  13.425  0.0115 -0.3180 -0.3926
16277TIP3    H270247   5.835   1.099  13.425 -0.2841  0.1015  1.0736
16278TIP3   OH270248   4.492   2.363   2.194 -0.7326 -0.3045 -0.5527
16278TIP3    H170249   4.461   2.275   2.171 -0.2662 -0.3748 -0.9305
16278TIP3    H270250   4.453   2.380   2.280 -0.9300 -0.8277 -0.5319
16279TIP3   OH270251   5.321   1.533   4.339  0.2839 -0.8187 -0.1561
16279TIP3    H170252   5.344   1.441   4.326 -0.5326 -1.0539  0.0165
16279TIP3    H270253   5.356   1.555   4.425  1.7549 -0.5368 -0.7927
16280TIP3   OH270254   3.906   1.954   6.804  0.3296 -0.4740 -0.0529
16280TIP3    H170255   3.994   1.990   6.799  0.1053 -0.0034 -0.7267
16280TIP3    H270256   3.855   2.021   6.850  0.1638 -0.4292 -0.3020
16281TIP3   OH270257   5.323   5.761   2.477  0.2356 -0.1400  0.3309
16281TIP3    H170258   5.372   5.731   2.554  2.6612  1.9825 -0.2659
16281TIP3    H270259   5.292   5.848   2.501  0.9148  0.4937 -1.0291
16282TIP3   OH270260   2.813   5.207   2.100 -0.1722 -0.5024 -0.2834
16282TIP3    H170261   2.871   5.270   2.058 -1.4428  0.9318  0.0497
16282TIP3    H270262   2.734   5.257   2.122 -0.4215 -1.7121  1.8531
16283TIP3   OH270263   4.219   2.256  14.379 -0.9777  0.1990  0.7294
16283TIP3    H170264   4.211   2.180  14.437  1.2138 -0.5759  0.1324
16283TIP3    H270265   4.310   2.254  14.349 -0.9472  2.8617  0.3713
16284TIP3   OH270266   1.096   6.730  14.533  1.0476  0.4965 -0.3910
16284TIP3    H170267   1.126   6.810  14.490 -0.9973  1.2067 -0.5807
16284TIP3    H270268   1.092   6.752  14.626  1.2531  0.3655 -0.3523
16285TIP3   OH270269   4.744   2.333  11.365  0.1429 -0.4322 -0.2757
16285TIP3    H170270   4.676   2.355  11.301 -1.3095  1.8705  1.8850
16285TIP3    H270271   4.825   2.334  11.314 -0.7291  2.8743 -1.8941
16286TIP3   OH270272   4.710   1.456   6.640 -0.3158 -0.1994 -0.5519
16286TIP3    H170273   4.741   1.371   6.607 -0.5038 -0.9300  1.0463
16286TIP3    H270274   4.615   1.452   6.629 -0.6217 -1.3101  1.8042
16287TIP3   OH270275   4.442   4.725   5.325  0.6997 -0.0371 -0.0779
16287TIP3    H170276   4.472   4.807   5.285  2.4655 -1.1133 -1.0831
16287TIP3    H270277   4.365   4.700   5.275  1.3452 -0.0100 -1.1160
16288TIP3   OH270278   3.190   2.454   5.797  0.3931 -0.1410  0.8185
16288TIP3    H170279   3.131   2.405   5.740  0.4671 -0.6552  1.1811
16288TIP3    H270280   3.271   2.403   5.798  0.6241  0.2246  0.8377
16289TIP3   OH270281   3.138   4.514   2.188  0.1403  0.5977 -0.4593
16289TIP3    H170282   3.073   4.552   2.247 -0.3115  2.1565 -1.8876
16289TIP3    H270283   3.222   4.544   2.223  0.2244 -1.7578  1.6315
16290TIP3   OH270284   2.472   5.612  11.023  0.1394 -0.6725 -1.1984
16290TIP3    H170285   2.439   5.527  10.994 -1.4650  0.4478 -2.8645
16290TIP3    H270286   2.517   5.647  10.947  0.8381 -0.0266 -0.5060
16291TIP3   OH270287   0.105   1.758   2.724  0.0150 -0.0895  0.1640
16291TIP3    H170288   0.191   1.732   2.693 -0.3691 -0.6605 -0.4440
16291TIP3    H270289   0.102   1.727   2.814  0.0880 -0.9290 -0.1138
16292TIP3   OH270290   5.078   5.904   0.014  0.0387 -0.1490  0.1902
16292TIP3    H170291   5.128   5.948  -0.055 -0.7932 -0.2115 -0.4672
16292TIP3    H270292   5.131   5.827   0.037  0.3692 -0.0695 -0.2977
16293TIP3   OH270293   1.127   2.778   3.524  0.2506 -0.1499  0.2969
16293TIP3    H170294   1.033   2.778   3.506  0.0115  0.1343  1.4428
16293TIP3    H270295   1.147   2.686   3.543  0.6747 -0.6079 -2.0518
16294TIP3   OH270296   1.375   2.099  12.272 -0.3849 -0.5795 -0.3638
16294TIP3    H170297   1.418   2.181  12.296 -0.4351 -0.7383  0.2772
16294TIP3    H270298   1.448   2.040  12.249 -0.4031  0.0143 -2.0506
16295TIP3   OH270299   5.504   1.066   5.901  0.2286 -0.5153  0.3834
16295TIP3    H170300   5.416   1.066   5.863  1.8788  0.6720 -4.0788
16295TIP3    H270301   5.525   1.159   5.913  1.1770 -0.7280  0.4794
16296TIP3   OH270302   4.819   2.832  16.335  0.3207 -0.3456  0.7516
16296TIP3    H170303   4.849   2.766  16.272  2.1723  1.4299 -0.3606
16296TIP3    H270304   4.898   2.857  16.383 -0.3990  0.8296  1.3767
16297TIP3   OH270305   3.638   1.955  15.881 -0.0333 -0.0739 -0.3837
16297TIP3    H170306   3.670   2.028  15.829  1.5338  0.6976  1.5144
16297TIP3    H270307   3.566   1.993  15.932 -0.0741 -0.1938 -0.3535
16298TIP3   OH270308   6.686   4.685   4.394  0.3920 -0.8062  0.3529
16298TIP3    H170309   6.742   4.717   4.465  0.5783  1.8060 -0.8619
16298TIP3    H270310   6.739   4.620   4.349  1.2444 -0.6565  1.1071
16299TIP3   OH270311   3.041   6.455  16.106 -0.1007 -0.0228 -0.3448
16299TIP3    H170312   2.983   6.388  16.141  1.0651 -0.0946  1.5435
16299TIP3    H270313   3.062   6.425  16.018  0.5562 -2.2641  0.5205
16300TIP3   OH270314   0.823   2.412   1.499  0.2137  0.1529  0.0970
16300TIP3    H170315   0.857   2.439   1.414  0.6277 -2.8188 -0.8040
16300TIP3    H270316   0.767   2.485   1.527  0.3232  1.3620 -2.5484
16301TIP3   OH270317   4.080   2.929   1.104 -0.2540 -0.5730 -0.2549
16301TIP3    H170318   4.110   2.963   1.188  1.1340  0.7551 -1.2347
16301TIP3    H270319   4.005   2.874   1.126  0.6853 -1.0875  1.9374
16302TIP3   OH270320   0.388   2.086   1.578  0.9984  0.1265  0.1376
16302TIP3    H170321   0.337   2.091   1.497 -1.4154 -0.2360  1.5429
16302TIP3    H270322   0.398   1.992   1.593 -0.3953  0.1343  1.2896
16303TIP3   OH270323   2.514   3.272  11.162  0.3346 -0.0535 -0.5465
16303TIP3    H170324   2.470   3.355  11.144 -0.3848 -0.6513 -1.6731
16303TIP3    H270325   2.479   3.244  11.247 -3.0466 -1.4412 -2.2216
16304TIP3   OH270326   5.729   3.146  16.020 -0.4230  0.5160  0.3034
16304TIP3    H170327   5.801   3.161  16.081 -1.0131  1.8263  0.7316
16304TIP3    H270328   5.650   3.171  16.069 -1.1015 -0.1987 -0.3882
16305TIP3   OH270329   2.252   1.339   2.958  0.3595 -0.1051  0.2264
16305TIP3    H170330   2.335   1.385   2.962 -0.3437  1.3707 -0.9598
16305TIP3    H270331   2.198   1.393   2.900 -1.8236 -0.3998  1.8826
16306TIP3   OH270332   5.601   1.081  16.128  0.3688 -0.3543 -0.8584
16306TIP3    H170333   5.602   1.176  16.119 -0.1046 -0.3962 -1.4457
16306TIP3    H270334   5.512   1.061  16.157  0.4512 -0.6238 -0.7903
16307TIP3   OH270335   4.818   0.157   1.166 -0.4857  0.5384  0.0592
16307TIP3    H170336   4.734   0.111   1.174  0.1792 -0.6913  0.2907
16307TIP3    H270337   4.826   0.208   1.247 -0.9310  0.5279  0.1095
16308TIP3   OH270338   4.205   6.259   4.450 -0.2064  0.3351 -0.0575
16308TIP3    H170339   4.221   6.351   4.429  1.1193  0.5149  1.4971
16308TIP3    H270340   4.133   6.261   4.512 -1.2862  0.1593 -1.2729
16309TIP3   OH270341   0.105   0.152  14.329 -0.0559 -0.1054 -0.1436
16309TIP3    H170342   0.184   0.193  14.294  0.5316  0.0928  1.3360
16309TIP3    H270343   0.094   0.192  14.415 -0.7663 -1.4260  0.4039
16310TIP3   OH270344   1.899   4.431  11.664 -0.4400  0.7950 -0.3769
16310TIP3    H170345   1.968   4.497  11.657 -2.7565  3.3925 -0.5194
16310TIP3    H270346   1.906   4.400  11.754  2.6374 -1.2087 -1.1596
16311TIP3   OH270347   0.648   1.728   0.490  0.0475 -0.5526 -0.5003
16311TIP3    H170348   0.729   1.687   0.460 -0.5207 -1.9568 -0.2119
16311TIP3    H270349   0.623   1.677   0.567 -0.2133  0.9449  0.4535
16312TIP3   OH270350   2.306   1.257   5.699 -0.5383 -0.0673 -0.2279
16312TIP3    H170351   2.265   1.266   5.785  0.4998  0.9106  0.1967
16312TIP3    H270352   2.312   1.347   5.666  0.1555 -0.3130 -0.7963
16313TIP3   OH270353   6.034   6.352  16.753 -0.3000  0.0012  0.5213
16313TIP3    H170354   6.115   6.403  16.752  0.1239 -0.6409 -0.7911
16313TIP3    H270355   5.969   6.411  16.791  0.4802  1.0124  0.3455
16314TIP3   OH270356   2.270   4.112   4.925 -0.2428 -0.1491  0.2506
16314TIP3    H170357   2.229   4.025   4.933  0.0374 -0.3989 -0.8838
16314TIP3    H270358   2.360   4.099   4.955 -0.6113  0.1089  1.5212
16315TIP3   OH270359   0.550   4.677  15.782  0.1018 -0.1284 -0.3162
16315TIP3    H170360   0.593   4.703  15.864  0.5533  0.1072 -0.6234
16315TIP3    H270361   0.508   4.758  15.751 -0.4273 -0.3190 -0.1009
16316TIP3   OH270362   6.218   0.624  14.997 -0.2990 -0.7375  0.1686
16316TIP3    H170363   6.229   0.703  14.944 -0.6776 -0.3402  0.6803
16316TIP3    H270364   6.209   0.655  15.086  0.8956 -1.4348  0.5636
16317TIP3   OH270365   6.055   5.144   0.871  0.0983 -0.6329  0.2749
16317TIP3    H170366   5.988   5.101   0.924 -0.8238 -0.3298 -0.6140
16317TIP3    H270367   6.022   5.232   0.857  0.7386 -0.4474 -0.0909
16318TIP3   OH270368   4.181   5.389  11.680  0.3249  0.0904  0.3171
16318TIP3    H170369   4.252   5.433  11.727  0.2124 -0.4213  0.9916
16318TIP3    H270370   4.149   5.323  11.742 -0.0583 -0.3733 -0.3606
16319TIP3   OH270371   5.603   2.520   0.924  0.0075  0.6205  0.1948
16319TIP3    H170372   5.664   2.453   0.894 -1.5235  0.0709 -1.9559
16319TIP3    H270373   5.645   2.603   0.901 -0.0573  0.2460 -1.4130
16320TIP3   OH270374   1.484   6.704   1.325 -0.1446 -0.1138 -0.3464
16320TIP3    H170375   1.484   6.639   1.395 -0.9801 -0.9674 -1.1119
16320TIP3    H270376   1.576   6.729   1.315  0.0842 -0.5895  0.4842
16321TIP3   OH270377   5.514   5.704   2.688  0.5742  0.4227  0.4346
16321TIP3    H170378   5.517   5.797   2.710  2.8447  0.6079 -0.3663
16321TIP3    H270379   5.602   5.672   2.707 -0.0380 -1.4769  0.2846
16322TIP3   OH270380   2.485   4.009  16.225  0.2391  0.1113  0.6876
16322TIP3    H170381   2.567   4.051  16.198 -0.8575  0.7408 -2.0083
16322TIP3    H270382   2.509   3.918  16.241  1.8663  0.7590  2.3835
16323TIP3   OH270383   5.084   2.492   1.966 -0.4945 -0.4958  0.0464
16323TIP3    H170384   5.009   2.527   2.014 -0.9343 -1.9748  0.4825
16323TIP3    H270385   5.058   2.498   1.874  0.6875  3.1437 -0.2175
16324TIP3   OH270386   1.622   1.574  12.731 -0.0631  0.4720  0.0467
16324TIP3    H170387   1.615   1.615  12.645  0.8415  0.4821 -0.0340
16324TIP3    H270388   1.550   1.512  12.735  0.7786 -0.6513 -1.3499
16325TIP3   OH270389   4.985   4.449   4.203  0.0245  0.0147 -0.3580
16325TIP3    H170390   4.959   4.396   4.128  0.3698 -0.9287  0.1740
16325TIP3    H270391   5.014   4.532   4.165 -0.1229 -0.3276 -1.2351
16326TIP3   OH270392   1.566   5.150   4.004 -0.6439  0.3041  0.7086
16326TIP3    H170393   1.640   5.090   4.000 -0.4302  0.5588  0.7851
16326TIP3    H270394   1.490   5.094   4.020 -0.7268 -0.1390 -1.1012
16327TIP3   OH270395   5.947   1.681   5.947 -0.4532 -0.2618  0.5794
16327TIP3    H170396   5.892   1.682   5.869 -0.2781 -1.5431  0.4096
16327TIP3    H270397   5.890   1.649   6.017  0.1137 -1.9228  0.3300
16328TIP3   OH270398   4.238   5.190   6.131  0.3464  0.2819  0.3711
16328TIP3    H170399   4.319   5.239   6.147  0.8149 -0.7109  1.1980
16328TIP3    H270400   4.262   5.123   6.067 -0.1750  0.8430 -0.4210
16329TIP3   OH270401   1.664   4.145  10.621 -0.6796 -0.4226  0.2012
16329TIP3    H170402   1.629   4.234  10.607 -0.4477 -0.2601  0.6538
16329TIP3    H270403   1.603   4.104  10.682 -0.5975 -0.4567  0.2613
16330TIP3   OH270404   1.260   6.254   3.856  0.1993 -0.2731 -0.7922
16330TIP3    H170405   1.316   6.210   3.792 -0.4886 -1.2758 -0.7174
16330TIP3    H270406   1.222   6.183   3.908  1.9040  0.5353  1.7648
16331TIP3   OH270407   4.032   3.329  13.959  0.3946 -0.0527 -0.3046
16331TIP3    H170408   4.058   3.356  14.047  0.1829  0.6546 -0.4517
16331TIP3    H270409   3.966   3.261  13.973 -0.1303  0.5299  0.0914
16332TIP3   OH270410   0.502   3.978   5.478  0.5104  0.2147  0.6462
16332TIP3    H170411   0.491   3.970   5.383  0.7157 -0.1126  0.6506
16332TIP3    H270412   0.534   3.893   5.506 -0.5204 -0.0244  1.1482
16333TIP3   OH270413   4.051   0.471   6.605  0.0048 -0.3524  0.3947
16333TIP3    H170414   4.054   0.486   6.510  0.2371  1.9079  0.7004
16333TIP3    H270415   4.115   0.402   6.621  1.4078  0.5919 -0.8938
16334TIP3   OH270416   0.082   0.301   3.209  0.4668 -0.0194  0.6727
16334TIP3    H170417   0.024   0.303   3.285 -2.0405 -0.2683 -1.0831
16334TIP3    H270418   0.066   0.384   3.165  2.7763  0.6460  0.9599
16335TIP3   OH270419   5.962   2.483  15.762 -0.2318  0.0071 -0.2659
16335TIP3    H170420   6.008   2.521  15.688  1.3891 -1.7531 -0.2240
16335TIP3    H270421   6.001   2.525  15.839  0.8200 -0.9244 -0.2676
16336TIP3   OH270422   3.644   6.697   3.593  0.6439 -0.0953  0.1923
16336TIP3    H170423   3.602   6.667   3.673  0.7071 -0.4972  0.0785
16336TIP3    H270424   3.589   6.662   3.523 -0.0307  1.1519  0.0551
16337TIP3   OH270425   1.225   4.428   3.647  0.6259 -0.1590 -0.4521
16337TIP3    H170426   1.226   4.388   3.734  1.7475  1.3123  0.2800
16337TIP3    H270427   1.133   4.444   3.628  0.4039  0.3962  0.9433
16338TIP3   OH270428   0.023   3.919  11.726  0.2194 -0.0831  0.2587
16338TIP3    H170429  -0.060   3.911  11.679 -0.9657  1.3643  1.9685
16338TIP3    H270430   0.027   4.011  11.751  0.8438 -0.7374  2.8390
16339TIP3   OH270431   5.851   4.412   5.260 -0.0303  0.1473  0.4442
16339TIP3    H170432   5.935   4.370   5.238 -0.3797 -0.7949  0.8289
16339TIP3    H270433   5.791   4.338   5.274 -0.3236  0.7245  2.5483
16340TIP3   OH270434   3.904   2.710   5.711 -0.1713 -0.1694  0.1349
16340TIP3    H170435   3.853   2.790   5.699 -0.8862 -0.5935  0.2925
16340TIP3    H270436   3.967   2.733   5.779 -1.9236 -0.4218  1.9347
16341TIP3   OH270437   0.316   6.670  17.204 -0.0648 -0.7381 -0.1082
16341TIP3    H170438   0.389   6.695  17.148 -0.4181  1.0594  0.1593
16341TIP3    H270439   0.242   6.659  17.144 -0.0928 -0.3059 -0.1553
16342TIP3   OH270440   0.635   4.618   5.614 -0.1073  0.4623 -0.4970
16342TIP3    H170441   0.658   4.525   5.618 -2.5361 -0.2716 -1.3408
16342TIP3    H270442   0.600   4.638   5.700 -1.1481  0.0868 -0.8159
16343TIP3   OH270443   1.488   5.607  14.376 -0.2364  0.2659 -0.8785
16343TIP3    H170444   1.543   5.602  14.298 -0.3315  0.9738 -1.0041
16343TIP3    H270445   1.536   5.559  14.443  0.2531  0.3784 -1.1437
16344TIP3   OH270446   1.231   2.815   0.096  0.3353 -0.4845  0.4872
16344TIP3    H170447   1.200   2.768   0.019  0.6197 -1.3194  0.8735
16344TIP3    H270448   1.311   2.769   0.122  1.0365  0.6593  0.4445
16345TIP3   OH270449   3.241   1.706  16.549 -0.2140  0.3198 -0.4798
16345TIP3    H170450   3.315   1.767  16.547 -0.2706  0.3843 -0.6906
16345TIP3    H270451   3.180   1.745  16.612  0.5008 -0.4145  0.7052
16346TIP3   OH270452   2.317   2.478   1.844  0.0729  0.3982 -0.1379
16346TIP3    H170453   2.229   2.505   1.872 -0.3192 -0.5221 -0.4565
16346TIP3    H270454   2.314   2.382   1.843  1.8152  0.2315  2.1990
16347TIP3   OH270455   0.201   6.594  14.306 -0.6332 -0.0419 -1.0926
16347TIP3    H170456   0.195   6.643  14.224 -0.0363  0.5369 -0.7984
16347TIP3    H270457   0.281   6.626  14.347 -0.2634 -1.2113 -0.8581
16348TIP3   OH270458   6.570   5.852   0.839  0.2601 -1.0009 -0.2734
16348TIP3    H170459   6.494   5.836   0.894 -1.5498  0.2026 -2.2525
16348TIP3    H270460   6.593   5.766   0.805 -0.4299 -1.3417  0.1007
16349TIP3   OH270461   5.769   0.940   4.199  0.0679  0.1021 -0.5294
16349TIP3    H170462   5.741   0.930   4.290 -1.5496 -0.8860 -1.1003
16349TIP3    H270463   5.769   0.851   4.164  0.6825  0.4674 -1.5074
16350TIP3   OH270464   2.290   3.499  17.089 -0.1475  0.1162  0.1887
16350TIP3    H170465   2.340   3.533  17.015  0.4473 -3.1592 -1.1225
16350TIP3    H270466   2.202   3.536  17.077  0.3172  0.8485 -1.3033
16351TIP3   OH270467   3.753   5.705   5.425 -0.6409  0.0107 -0.3765
16351TIP3    H170468   3.820   5.748   5.479 -1.5174 -0.8930  1.5496
16351TIP3    H270469   3.802   5.659   5.357  0.5632  0.7494 -0.0418
16352TIP3   OH270470   3.448   4.702  15.627  0.3554  0.3976  0.1559
16352TIP3    H170471   3.541   4.715  15.609  0.2798  0.9304  0.1450
16352TIP3    H270472   3.431   4.612  15.601  0.8555  0.3183  0.0987
16353TIP3   OH270473   4.325   2.227   5.063  0.3383 -0.6596 -0.6293
16353TIP3    H170474   4.261   2.296   5.047  0.5915 -0.3244 -0.2385
16353TIP3    H270475   4.307   2.199   5.153  0.6471 -0.6596 -0.5665
16354TIP3   OH270476   2.419   5.469  13.979 -0.1766  0.1254  0.1967
16354TIP3    H170477   2.469   5.514  14.047  0.2442  0.2140 -0.1738
16354TIP3    H270478   2.437   5.518  13.899 -0.6212 -0.0189  0.0032
16355TIP3   OH270479   0.448   6.754   1.503 -0.1254  0.5621  0.2483
16355TIP3    H170480   0.484   6.685   1.448 -0.3016 -0.3345  1.2323
16355TIP3    H270481   0.525   6.796   1.543 -0.0078  1.0934 -0.5139
16356TIP3   OH270482   1.842   0.050  13.578  0.5789  0.1887 -0.0927
16356TIP3    H170483   1.811   0.005  13.657  0.5782  1.5949  0.7315
16356TIP3    H270484   1.907  -0.010  13.541 -1.8605 -2.1160 -0.9835
16357TIP3   OH270485   2.881   6.109  15.163  0.1113 -0.7887  0.6892
16357TIP3    H170486   2.919   6.142  15.082 -2.4021 -0.1928 -0.3435
16357TIP3    H270487   2.931   6.151  15.233  0.2486  1.2464 -0.5685
16358TIP3   OH270488   6.142   0.792   2.883 -0.6166  0.2553  0.3333
16358TIP3    H170489   6.174   0.849   2.953 -1.1466  1.4262 -0.3471
16358TIP3    H270490   6.096   0.851   2.823 -1.5756 -0.9574 -0.1742
16359TIP3   OH270491   2.092   0.942   2.531 -0.1682  0.1073 -0.7324
16359TIP3    H170492   2.068   1.030   2.559  2.3518  0.4584  0.6053
16359TIP3    H270493   2.116   0.952   2.438  1.4544  1.2004 -0.2505
16360TIP3   OH270494   0.430   4.127  11.367  0.1552  0.0421  0.0136
16360TIP3    H170495   0.458   4.133  11.458 -0.0285  0.8800  0.0194
16360TIP3    H270496   0.344   4.085  11.370 -0.6456  1.6282  0.3927
16361TIP3   OH270497   6.186   3.158  15.452 -0.6985 -0.3349 -0.1241
16361TIP3    H170498   6.190   3.144  15.547  1.6779  1.0306  0.0630
16361TIP3    H270499   6.228   3.243  15.439 -2.5559  0.3316 -2.2839
16362TIP3   OH270500   1.408   4.748   0.109  0.1467 -0.5097  0.1196
16362TIP3    H170501   1.313   4.744   0.102  0.1078 -0.9593  0.8395
16362TIP3    H270502   1.438   4.658   0.097  0.6375 -0.1535 -1.8539
16363TIP3   OH270503   2.956   6.569   5.698  0.1583  0.0251 -0.5357
16363TIP3    H170504   2.986   6.481   5.723  0.8537  0.3762 -0.1339
16363TIP3    H270505   2.863   6.570   5.723  0.6143  0.0672  1.2900
16364TIP3   OH270506   3.068   5.656   2.960  0.0323 -0.7345  0.2842
16364TIP3    H170507   3.071   5.723   3.029 -0.6268  0.4631 -0.8056
16364TIP3    H270508   3.128   5.688   2.893 -1.5402 -0.3455 -0.9955
16365TIP3   OH270509   1.358   2.957  15.454  0.2340 -0.5759  0.5726
16365TIP3    H170510   1.334   3.049  15.446 -0.9253 -0.9145 -0.0279
16365TIP3    H270511   1.454   2.958  15.452  0.2818  0.3979 -2.5620
16366TIP3   OH270512   3.861   6.558   5.855 -0.2531 -0.1253  0.5125
16366TIP3    H170513   3.944   6.605   5.861 -0.3666  0.0995  0.3382
16366TIP3    H270514   3.807   6.595   5.925 -1.1465  1.6315 -1.0374
16367TIP3   OH270515   4.951   4.966  11.258  0.5964 -0.6034 -0.5851
16367TIP3    H170516   4.951   5.007  11.172  1.4195  0.3802 -0.1328
16367TIP3    H270517   5.044   4.950  11.277  0.5122  0.1004  0.5283
16368TIP3   OH270518   2.670   3.513   2.874 -0.0191  0.2515  0.1376
16368TIP3    H170519   2.652   3.485   2.784  0.2912 -0.3294  0.2483
16368TIP3    H270520   2.585   3.539   2.909 -0.1495  0.4319 -0.3092
16369TIP3   OH270521   0.585   5.236   2.700  0.1095 -0.0525  0.0332
16369TIP3    H170522   0.638   5.231   2.620 -0.4207  0.8751 -0.3965
16369TIP3    H270523   0.495   5.230   2.668 -0.0712 -0.9808  0.6976
16370TIP3   OH270524   4.227   4.495  15.664 -0.6153  0.0227  0.3892
16370TIP3    H170525   4.220   4.465  15.574  2.6082 -1.4065  0.5016
16370TIP3    H270526   4.141   4.478  15.702 -0.8384 -3.2951 -1.3021
16371TIP3   OH270527   1.944   1.504  13.145 -0.0216 -0.2123 -0.1162
16371TIP3    H170528   1.876   1.518  13.079 -0.1426 -1.7107 -0.3460
16371TIP3    H270529   1.907   1.539  13.226 -0.9970 -0.8375 -0.2783
16372TIP3   OH270530   5.194   4.625  11.358  0.7828  0.0830  0.6023
16372TIP3    H170531   5.254   4.589  11.424  1.4714  1.2331  0.6396
16372TIP3    H270532   5.196   4.561  11.287  1.0030 -0.5611  1.1747
16373TIP3   OH270533   5.085   6.270  12.399  0.5549 -0.7292 -0.0255
16373TIP3    H170534   5.097   6.297  12.308 -1.2134 -0.7783 -0.3042
16373TIP3    H270535   5.023   6.334  12.435 -1.0971 -2.4449  0.2728
16374TIP3   OH270536   4.800   2.430  11.828  0.2884  0.0253  0.4889
16374TIP3    H170537   4.721   2.405  11.876 -0.3738  1.8273  0.3876
16374TIP3    H270538   4.791   2.524  11.812  2.3252  0.2290  0.2243
16375TIP3   OH270539   4.083   5.520   4.478  0.1595  0.0320 -0.6567
16375TIP3    H170540   4.069   5.585   4.546 -0.4452  0.8563 -1.5257
16375TIP3    H270541   4.057   5.564   4.397  0.3403 -1.0846 -1.3562
16376TIP3   OH270542   3.937   0.494   4.967  0.3463  0.4935 -0.1984
16376TIP3    H170543   3.916   0.510   4.875 -2.9232 -1.5223  0.0529
16376TIP3    H270544   4.023   0.453   4.965  0.2902  0.3688 -2.3949
16377TIP3   OH270545   5.973   4.762   2.175  0.0128 -0.2984 -0.0989
16377TIP3    H170546   6.044   4.824   2.192  0.4344 -0.7328 -0.2738
16377TIP3    H270547   6.016   4.683   2.143 -0.6076 -0.2694 -1.0624
16378TIP3   OH270548   5.913   4.525   3.680 -0.0759 -0.2541  0.2568
16378TIP3    H170549   5.953   4.555   3.762  0.1064  1.3328 -0.3769
16378TIP3    H270550   5.822   4.506   3.704 -0.5350  1.9702  0.4982
16379TIP3   OH270551   5.278   0.949  15.690  0.3476 -0.0983  0.0322
16379TIP3    H170552   5.244   1.037  15.709  0.1534 -0.0810 -0.3898
16379TIP3    H270553   5.260   0.936  15.597 -1.3398 -1.3440  0.4958
16380TIP3   OH270554   5.612   3.243  11.899 -0.4667 -0.5412  0.0322
16380TIP3    H170555   5.532   3.259  11.949  0.3105  1.6893  0.6695
16380TIP3    H270556   5.651   3.330  11.887  1.4393 -1.4668 -0.9861
16381TIP3   OH270557   6.451   1.439  14.374 -0.0559 -0.4568 -0.4539
16381TIP3    H170558   6.451   1.394  14.289 -1.8878  0.2193 -0.8776
16381TIP3    H270559   6.539   1.476  14.382  0.6961 -1.9842 -1.2412
16382TIP3   OH270560   4.085   6.387  16.826 -0.3935  0.1615  0.4404
16382TIP3    H170561   4.070   6.310  16.880 -0.5547  0.2051  0.4589
16382TIP3    H270562   4.049   6.460  16.878  3.1872  0.8487  2.2335
16383TIP3   OH270563   6.434   4.465  14.191 -0.2285  0.7634 -0.2650
16383TIP3    H170564   6.379   4.451  14.113  1.2095  0.0416 -1.2133
16383TIP3    H270565   6.523   4.445  14.160  0.2234 -0.8909  1.9148
16384TIP3   OH270566   3.592   1.271  17.026  0.2981 -0.2607 -0.0062
16384TIP3    H170567   3.556   1.185  17.048 -0.2697  0.2575  1.1405
16384TIP3    H270568   3.609   1.312  17.110 -0.5116  1.2028 -0.5345
16385TIP3   OH270569   6.663   4.669   6.018  0.1865  0.2619 -0.0232
16385TIP3    H170570   6.676   4.577   5.996  0.5042 -0.2348  2.0544
16385TIP3    H270571   6.569   4.684   6.008  0.0639 -0.4218  0.0827
16386TIP3   OH270572   1.634   6.010   4.113 -0.0834 -0.4046 -0.2777
16386TIP3    H170573   1.622   6.016   4.207 -1.0400 -0.5584 -0.3755
16386TIP3    H270574   1.690   6.084   4.091 -0.4527  0.0617  0.3222
16387TIP3   OH270575   4.657   1.463   2.912 -0.4009  0.1675 -0.3323
16387TIP3    H170576   4.612   1.392   2.866 -2.9197  1.2488  0.2938
16387TIP3    H270577   4.618   1.543   2.877  2.3751  1.3390 -1.0354
16388TIP3   OH270578   0.670   6.008   5.525 -0.0064 -0.5106 -0.6513
16388TIP3    H170579   0.667   6.006   5.430  0.3999  1.0957 -0.7320
16388TIP3    H270580   0.578   6.003   5.553 -0.2884  0.9476 -1.2251
16389TIP3   OH270581   2.543   5.155  16.679 -0.1256  0.1308  0.0544
16389TIP3    H170582   2.611   5.090  16.697  0.0253  0.4885  0.7701
16389TIP3    H270583   2.544   5.214  16.754 -1.4349 -0.0304  0.2226
16390TIP3   OH270584   2.949   5.513  11.681 -0.1166 -0.0613  0.6684
16390TIP3    H170585   2.961   5.579  11.613 -0.2474 -0.9628 -0.2496
16390TIP3    H270586   2.871   5.542  11.729 -0.6137  0.0615 -0.1968
16391TIP3   OH270587   4.632   4.726  15.651 -0.1892  0.4378 -0.1815
16391TIP3    H170588   4.671   4.648  15.690  1.8687  1.5697  0.1480
16391TIP3    H270589   4.671   4.799  15.699 -0.9127  1.7353 -1.4909
16392TIP3   OH270590   3.035   1.438  16.617 -0.1632 -0.1019  0.0341
16392TIP3    H170591   3.131   1.435  16.611 -0.1453  0.4138 -0.0082
16392TIP3    H270592   3.017   1.448  16.710 -0.1271  1.0084 -0.0617
16393TIP3   OH270593   3.585   6.224  13.146 -0.6832  0.4432  0.4416
16393TIP3    H170594   3.573   6.291  13.079  1.5281  1.2370  0.7805
16393TIP3    H270595   3.496   6.197  13.169 -1.5510  1.8387 -1.1088
16394TIP3   OH270596   6.609   2.709  14.759 -0.3013 -0.3885  0.1028
16394TIP3    H170597   6.655   2.768  14.700 -0.8631 -0.2002 -0.1599
16394TIP3    H270598   6.677   2.669  14.812  0.1806 -0.2874 -0.4316
16395TIP3   OH270599   0.802   6.554  16.481  0.8738  0.4042 -0.5541
16395TIP3    H170600   0.708   6.546  16.498  1.1967 -2.3326  0.3528
16395TIP3    H270601   0.824   6.643  16.508 -1.1743  0.6224  0.5699
16396TIP3   OH270602   6.065   5.869   5.963 -0.4561 -0.3105  0.1591
16396TIP3    H170603   6.036   5.946   6.011  0.6967  0.0198  0.3408
16396TIP3    H270604   6.160   5.873   5.965 -0.3617 -1.9336  0.4843
16397TIP3   OH270605   1.587   5.642   1.222  0.1489  0.0186  0.0572
16397TIP3    H170606   1.531   5.572   1.257  0.0892 -0.5002 -1.0484
16397TIP3    H270607   1.578   5.635   1.127 -0.3926  1.9855 -0.0682
16398TIP3   OH270608   3.753   2.013   5.135  0.3844  0.0762 -0.1401
16398TIP3    H170609   3.805   1.969   5.202  2.6196  0.7827 -1.3005
16398TIP3    H270610   3.779   1.971   5.053 -0.4586  0.8648 -0.8367
16399TIP3   OH270611   3.111   0.681   3.917  0.2075 -0.5607 -0.0856
16399TIP3    H170612   3.030   0.635   3.943  0.2296 -0.0325  0.9461
16399TIP3    H270613   3.144   0.719   3.998  0.5114  0.7952 -0.8278
16400TIP3   OH270614   5.268   5.719  17.088 -0.7130  0.3437 -0.6366
16400TIP3    H170615   5.265   5.788  17.155 -0.8329  0.1027 -0.3921
16400TIP3    H270616   5.361   5.707  17.069 -0.4519 -1.3746  1.3542
16401TIP3   OH270617   5.597   3.273   1.289 -0.0056  0.3831 -0.3428
16401TIP3    H170618   5.572   3.333   1.219  0.1257  0.0827 -0.6566
16401TIP3    H270619   5.550   3.192   1.269  0.2057  0.2245 -0.2100
16402TIP3   OH270620   3.523   0.196   1.787  0.3384 -0.0882 -0.3352
16402TIP3    H170621   3.451   0.146   1.749  0.5609  0.4484 -1.5256
16402TIP3    H270622   3.573   0.132   1.837 -1.8988 -0.1427  1.9895
16403TIP3   OH270623   5.934   4.631  14.243  0.1613  0.4238 -0.2272
16403TIP3    H170624   5.982   4.593  14.170 -0.0115 -2.0577  0.8511
16403TIP3    H270625   5.881   4.700  14.203  1.0390  0.0154 -2.2209
16404TIP3   OH270626   6.233   6.374  17.285  0.2237 -0.0726  0.0024
16404TIP3    H170627   6.295   6.411  17.347  0.9596  0.1509 -0.8538
16404TIP3    H270628   6.280   6.301  17.244 -0.3397 -0.3795 -0.1214
16405TIP3   OH270629   2.135   1.131   5.505 -0.0122  0.8031 -0.1829
16405TIP3    H170630   2.206   1.149   5.566 -0.6695  0.3519  0.7529
16405TIP3    H270631   2.115   1.215   5.465 -0.2333  1.3215  0.9796
16406TIP3   OH270632   1.912   4.365   0.463 -0.0687  0.4888  0.0377
16406TIP3    H170633   1.847   4.313   0.511  0.0664 -0.9816 -1.2943
16406TIP3    H270634   1.902   4.454   0.499 -0.1411 -0.4474  2.5645
16407TIP3   OH270635   5.180   1.561  12.828 -0.3483  0.0111 -0.2743
16407TIP3    H170636   5.133   1.644  12.816  0.9894  0.8712  0.2233
16407TIP3    H270637   5.260   1.585  12.874 -1.0764 -1.9254  2.2283
16408TIP3   OH270638   1.409   2.466  16.870  0.1207 -0.0004 -0.2497
16408TIP3    H170639   1.456   2.483  16.952  1.5949 -2.0275 -0.6165
16408TIP3    H270640   1.442   2.532  16.810 -1.8381  2.2982  0.9844
16409TIP3   OH270641   6.531   2.727   1.683 -0.8862 -0.0735 -0.4230
16409TIP3    H170642   6.578   2.773   1.752  0.1211 -2.3950  0.5404
16409TIP3    H270643   6.586   2.736   1.605 -1.0822  0.9092 -0.4723
16410TIP3   OH270644   0.329   5.626  12.463  0.1930  0.1390 -0.3523
16410TIP3    H170645   0.353   5.540  12.499 -0.3666 -0.5326 -1.5142
16410TIP3    H270646   0.260   5.657  12.522 -0.4590 -0.7736 -0.6028
16411TIP3   OH270647   3.003   0.616   4.364  0.3186 -0.3567 -0.6911
16411TIP3    H170648   3.011   0.697   4.414  1.1281  0.9787 -2.8262
16411TIP3    H270649   3.048   0.551   4.417 -0.3494  0.5755  1.0834
16412TIP3   OH270650   2.700   4.992   6.535  0.0487 -0.2629  0.1541
16412TIP3    H170651   2.622   5.031   6.495 -0.3039 -1.4152 -0.3397
16412TIP3    H270652   2.773   5.042   6.500 -0.3283 -0.5663 -1.1236
16413TIP3   OH270653   4.514   5.223  16.124 -0.5780 -0.3456  0.0326
16413TIP3    H170654   4.518   5.303  16.176 -1.0254 -0.8012  0.7831
16413TIP3    H270655   4.421   5.199  16.123 -0.3384 -1.3625  0.6118
16414TIP3   OH270656   3.031   0.411  15.971  0.8356 -0.4948 -0.4336
16414TIP3    H170657   2.989   0.349  16.031  2.3746 -0.3926  0.8397
16414TIP3    H270658   2.959   0.456  15.927 -0.5163  0.9181  2.9010
16415TIP3   OH270659   6.257   6.323  15.981 -0.1560 -0.0066 -0.0966
16415TIP3    H170660   6.264   6.228  15.990 -0.0340 -0.5664 -4.0303
16415TIP3    H270661   6.163   6.341  15.977 -0.1732 -0.2051 -0.7334
16416TIP3   OH270662   4.329   6.204   0.297 -0.2606  0.0072  0.1327
16416TIP3    H170663   4.308   6.269   0.363 -3.1033 -1.5506  0.8926
16416TIP3    H270664   4.298   6.121   0.333  3.4890 -1.9901 -0.6419
16417TIP3   OH270665   0.282   4.757   5.944 -0.2077 -0.1605  0.0279
16417TIP3    H170666   0.223   4.767   5.869  0.0333  1.2777 -0.0006
16417TIP3    H270667   0.238   4.802   6.016  0.2465 -0.2323  0.3583
16418TIP3   OH270668   5.022   1.681  14.553 -0.8993  0.1564  0.1183
16418TIP3    H170669   4.996   1.682  14.646  0.7338  0.4884  0.6069
16418TIP3    H270670   5.106   1.726  14.552  0.2602 -1.8789 -1.1478
16419TIP3   OH270671   5.295   4.085  10.939 -0.4162  0.2291 -0.1450
16419TIP3    H170672   5.304   4.060  11.031 -0.4130 -2.9249 -0.8898
16419TIP3    H270673   5.377   4.130  10.919  0.1560 -0.2061  1.0881
16420TIP3   OH270674   6.428   0.893  15.312  0.2438 -0.5490 -0.4937
16420TIP3    H170675   6.424   0.857  15.223 -0.8735  0.7774 -1.0232
16420TIP3    H270676   6.362   0.963  15.312 -0.2859 -0.9964  1.6050
16421TIP3   OH270677   4.503   2.750  12.116  0.0086 -0.4507 -0.6013
16421TIP3    H170678   4.500   2.791  12.202 -2.5915 -0.0672 -0.7801
16421TIP3    H270679   4.484   2.821  12.054 -1.2086 -1.2428 -1.1907
16422TIP3   OH270680   1.401   4.635   0.483  0.2583 -0.1338  0.5316
16422TIP3    H170681   1.419   4.542   0.500  1.1083  0.3308  2.3593
16422TIP3    H270682   1.306   4.642   0.485  0.1669 -1.0280 -0.0533
16423TIP3   OH270683   2.637   3.683   5.427 -0.2980 -0.4423  0.4364
16423TIP3    H170684   2.560   3.671   5.483 -0.6438 -0.3211 -0.0116
16423TIP3    H270685   2.711   3.668   5.486 -0.6218  0.9699  1.2699
16424TIP3   OH270686   4.621   5.974   1.983 -0.0035 -0.6070 -0.4896
16424TIP3    H170687   4.644   6.004   1.895  2.7952  2.4870  1.0381
16424TIP3    H270688   4.700   5.929   2.014  0.2483  0.9217  1.3255
16425TIP3   OH270689   3.776   5.888  10.757 -0.5579  0.6787  0.0554
16425TIP3    H170690   3.733   5.931  10.831 -1.8069  0.7163 -0.6633
16425TIP3    H270691   3.732   5.803  10.749 -0.8324  0.8968 -0.9728
16426TIP3   OH270692   6.261   3.638  12.037  0.0904 -0.4115 -0.0305
16426TIP3    H170693   6.245   3.545  12.018  1.0354 -0.8911  1.3865
16426TIP3    H270694   6.330   3.663  11.976 -0.9497 -0.3019 -1.2003
16427TIP3   OH270695   2.901   4.765   5.357 -0.2323  0.6260  0.3538
16427TIP3    H170696   2.982   4.735   5.399  0.4275  1.2892 -0.3962
16427TIP3    H270697   2.924   4.852   5.323 -1.4592  1.0946  0.6787
16428TIP3   OH270698   1.213   3.784  12.689  0.3378  0.2957  0.0828
16428TIP3    H170699   1.147   3.815  12.627 -0.4363  0.2195  0.8581
16428TIP3    H270700   1.166   3.724  12.747  1.6382 -1.8614 -0.9621
16429TIP3   OH270701   3.786   4.256  13.168 -0.0376 -0.0169  0.1544
16429TIP3    H170702   3.753   4.342  13.142 -1.3577 -0.6698 -0.4319
16429TIP3    H270703   3.859   4.239  13.108  0.5655  0.8956  0.6111
16430TIP3   OH270704   3.453   5.988   5.563 -0.0677 -0.4137 -0.8263
16430TIP3    H170705   3.430   6.034   5.644  1.0779 -1.7569  0.3277
16430TIP3    H270706   3.544   6.015   5.546  1.2626 -3.3530  0.8214
16431TIP3   OH270707   2.752   4.019  12.996 -0.5885  0.3797 -0.1673
16431TIP3    H170708   2.770   4.085  13.064  0.8412 -0.2270  0.0909
16431TIP3    H270709   2.748   3.937  13.044 -0.2498  0.0276 -0.7302
16432TIP3   OH270710   0.298   5.756   2.122 -0.2262 -0.2832  0.1354
16432TIP3    H170711   0.215   5.736   2.079 -0.5531  0.2670  0.5033
16432TIP3    H270712   0.357   5.685   2.096 -0.4119  0.0351 -1.2374
16433TIP3   OH270713   0.980   1.035   6.371 -0.1818  0.1265 -0.0053
16433TIP3    H170714   0.955   0.943   6.377  0.7959 -0.0852  1.4046
16433TIP3    H270715   0.975   1.067   6.461 -1.4868  1.7445 -0.6067
16434TIP3   OH270716   1.760   4.656  11.326  0.0337 -0.1510 -0.4375
16434TIP3    H170717   1.689   4.648  11.263 -0.3150  0.4707 -0.1359
16434TIP3    H270718   1.807   4.735  11.300 -0.8230  0.8022  0.7493
16435TIP3   OH270719   5.229   4.930  11.239  0.0834  0.2133  0.5787
16435TIP3    H170720   5.285   4.952  11.165  0.6482 -0.0341  0.9259
16435TIP3    H270721   5.252   4.840  11.261 -1.5214 -0.4375 -0.2298
16436TIP3   OH270722   1.872   0.674  13.142 -0.3396 -0.3387  0.1689
16436TIP3    H170723   1.826   0.704  13.063 -1.4201 -0.9143  0.5563
16436TIP3    H270724   1.818   0.602  13.175 -0.1622  0.1846  1.6811
16437TIP3   OH270725   4.585   0.429   0.066 -0.9000 -0.7601 -0.1291
16437TIP3    H170726   4.663   0.481   0.084 -0.4719 -2.0150  2.0430
16437TIP3    H270727   4.520   0.492   0.036  1.0782  0.2310 -2.6926
16438TIP3   OH270728   6.105   6.034   1.328 -0.1282 -0.4514 -0.4905
16438TIP3    H170729   6.017   6.006   1.302 -1.3100  0.0959  2.5455
16438TIP3    H270730   6.113   6.122   1.291 -2.5763  1.1398  2.3077
16439TIP3   OH270731   2.923   3.553   4.920 -0.0937 -0.1576 -0.4290
16439TIP3    H170732   2.889   3.612   4.988  1.1776 -0.4719  0.5066
16439TIP3    H270733   2.865   3.567   4.845 -1.5019  0.2267  0.7007
16440TIP3   OH270734   3.878   4.727   1.000 -0.3150 -0.4653  0.3864
16440TIP3    H170735   3.959   4.714   1.051 -1.6065  1.0003  3.0215
16440TIP3    H270736   3.909   4.752   0.913  2.0993  0.4939  1.4088
16441TIP3   OH270737   0.563   3.832  16.431 -0.3481  0.0431  0.6879
16441TIP3    H170738   0.627   3.795  16.491  0.3994  0.5284  0.1985
16441TIP3    H270739   0.573   3.927  16.441 -0.3544  0.1254 -0.0631
16442TIP3   OH270740   5.994   1.414   0.509 -0.1128 -0.3392  0.3705
16442TIP3    H170741   5.902   1.389   0.514  0.0929 -1.5279 -1.0710
16442TIP3    H270742   5.996   1.503   0.544 -1.8403 -0.2190  0.2608
16443TIP3   OH270743   1.422   4.699  13.980 -0.3057 -0.0530  0.0885
16443TIP3    H170744   1.499   4.646  13.961  1.0101  2.0698 -0.8860
16443TIP3    H270745   1.359   4.676  13.911  0.2955 -0.2310 -0.4093
16444TIP3   OH270746   0.218   2.535  12.070  0.4459  0.1821  0.2989
16444TIP3    H170747   0.149   2.600  12.083  0.8777  0.6856  0.0902
16444TIP3    H270748   0.247   2.548  11.980  0.8859  0.0381  0.4159
16445TIP3   OH270749   5.631   4.137  15.262  0.5178 -0.5269  0.2186
16445TIP3    H170750   5.543   4.107  15.243  0.3073  1.2023 -2.0980
16445TIP3    H270751   5.684   4.102  15.190  1.2595  0.2349  0.3700
16446TIP3   OH270752   4.436   5.007   6.063  0.0337  0.6467  0.1883
16446TIP3    H170753   4.437   4.911   6.052 -1.2066  0.6914 -0.4645
16446TIP3    H270754   4.519   5.036   6.024 -0.5799  0.0172 -1.6878
16447TIP3   OH270755   2.583   0.011   3.990 -0.0384 -0.5701  0.1550
16447TIP3    H170756   2.571   0.064   3.911 -4.1140  0.3913  1.1573
16447TIP3    H270757   2.669   0.037   4.024 -0.4334  3.0177 -1.1653
16448TIP3   OH270758   3.439   4.271  12.054 -0.4046 -0.2451  0.1942
16448TIP3    H170759   3.467   4.186  12.019 -0.8914 -0.1626 -0.4037
16448TIP3    H270760   3.344   4.268  12.052 -0.4549  0.9579 -1.4585
16449TIP3   OH270761   3.896   1.236   2.630  0.2031  0.0929  0.0164
16449TIP3    H170762   3.824   1.181   2.599 -1.9493  1.9272  1.4468
16449TIP3    H270763   3.862   1.277   2.710  3.0265  0.7301  0.9956
16450TIP3   OH270764   1.842   2.708  13.035 -0.0456  0.2449  0.0376
16450TIP3    H170765   1.780   2.780  13.051 -0.0233  0.2680  0.0188
16450TIP3    H270766   1.805   2.661  12.961  0.9476  1.3780 -1.2273
16451TIP3   OH270767   6.630   3.121   0.237  0.1704 -0.0512  0.1041
16451TIP3    H170768   6.655   3.080   0.153  0.3259  2.0781 -0.9561
16451TIP3    H270769   6.712   3.154   0.273 -0.1434  0.7589  0.1070
16452TIP3   OH270770   1.920   4.576  16.286  0.0904  0.1315 -0.7973
16452TIP3    H170771   1.976   4.636  16.334 -0.9595 -0.3344  1.0781
16452TIP3    H270772   1.886   4.628  16.213 -0.7555  1.8588  0.7446
16453TIP3   OH270773   1.004   6.130   3.116 -0.2039 -0.0943 -0.0471
16453TIP3    H170774   0.961   6.121   3.031 -0.8963  0.2720  0.2549
16453TIP3    H270775   0.935   6.162   3.174  0.3256 -0.1067  0.5952
16454TIP3   OH270776   6.647   5.084   4.804  0.1719 -0.0176 -0.5610
16454TIP3    H170777   6.728   5.118   4.766 -1.3249  1.4609 -2.7004
16454TIP3    H270778   6.665   4.991   4.819  1.8032 -0.0875 -2.4298
16455TIP3   OH270779   4.151   5.355   2.691 -0.0228  0.0675 -0.7219
16455TIP3    H170780   4.167   5.446   2.714  2.6157 -0.7235  1.0367
16455TIP3    H270781   4.178   5.347   2.600 -1.1637  1.1987 -1.1837
16456TIP3   OH270782   5.567   1.977   3.750  0.3240  0.2652  0.0734
16456TIP3    H170783   5.553   1.990   3.843  0.3897  1.4456 -0.0673
16456TIP3    H270784   5.634   2.041   3.727  0.1553  0.1300 -0.8281
16457TIP3   OH270785   1.967   5.429  15.537  0.1369 -1.1458 -0.2866
16457TIP3    H170786   1.921   5.466  15.613  0.9577 -0.5240 -0.0747
16457TIP3    H270787   1.903   5.435  15.466 -0.7486 -2.0021  0.3944
16458TIP3   OH270788   3.240   1.561   3.801  0.8636  0.0307 -0.1836
16458TIP3    H170789   3.287   1.636   3.837  1.2966 -0.5983  0.5865
16458TIP3    H270790   3.236   1.498   3.873 -0.4538 -0.2506 -0.4831
16459TIP3   OH270791   2.483   4.278   0.562 -0.3981  0.2194  0.1407
16459TIP3    H170792   2.569   4.314   0.541 -1.2843  2.0305 -0.5503
16459TIP3    H270793   2.450   4.244   0.479 -2.1258  3.5499 -0.7107
16460TIP3   OH270794   2.792   5.958   3.195 -0.1404 -0.2350 -0.0010
16460TIP3    H170795   2.830   5.872   3.215 -0.9960 -0.5698  0.2355
16460TIP3    H270796   2.810   5.971   3.102  0.2377 -0.5466  0.0275
16461TIP3   OH270797   6.318   5.387   2.837 -0.5354 -0.9335  0.1142
16461TIP3    H170798   6.405   5.371   2.874 -1.5622  0.6178  3.5452
16461TIP3    H270799   6.296   5.306   2.791  2.5890 -1.4347 -0.7502
16462TIP3   OH270800   3.519   4.508   3.982  0.0319  0.5958 -0.2485
16462TIP3    H170801   3.478   4.455   4.051  2.4769 -0.0656  0.8216
16462TIP3    H270802   3.454   4.509   3.911 -2.0276  0.1571  1.5107
16463TIP3   OH270803   6.013   4.852  13.206 -0.0569 -0.6491  0.5773
16463TIP3    H170804   6.054   4.920  13.153  1.7819 -2.4778 -0.5111
16463TIP3    H270805   6.084   4.817  13.260 -0.9049 -1.7775  1.0191
16464TIP3   OH270806   4.913   4.515   0.521 -0.4302  0.1481  0.1170
16464TIP3    H170807   4.891   4.459   0.446  0.1680 -3.4633  2.4034
16464TIP3    H270808   4.833   4.517   0.574 -0.7790  2.4879 -0.4045
16465TIP3   OH270809   5.189   0.665   2.450  0.6855  0.2079 -0.1926
16465TIP3    H170810   5.206   0.670   2.356  1.4140 -0.3930 -0.1030
16465TIP3    H270811   5.206   0.753   2.483  0.0631  0.5176 -0.6736
16466TIP3   OH270812   3.885   4.992  12.652 -0.0235  0.1497 -0.2611
16466TIP3    H170813   3.935   5.034  12.582  1.2189 -0.1326  0.4325
16466TIP3    H270814   3.803   5.042  12.657 -0.0637  0.2896 -1.7704
16467TIP3   OH270815   1.506   2.752  11.843 -0.1267 -0.0141 -0.4115
16467TIP3    H170816   1.520   2.838  11.803 -0.4862 -0.5727 -1.7888
16467TIP3    H270817   1.549   2.690  11.784  0.7358 -0.7397  0.9237
16468TIP3   OH270818   3.698   5.940  13.162 -0.2168  0.4127 -0.4142
16468TIP3    H170819   3.719   6.033  13.169  0.7569  0.2281 -0.6943
16468TIP3    H270820   3.701   5.908  13.253 -1.8012  0.8922 -0.1723
16469TIP3   OH270821   2.189   0.793  16.574  0.5478  0.3585  0.8126
16469TIP3    H170822   2.238   0.760  16.499  1.4577 -1.4197  2.1333
16469TIP3    H270823   2.250   0.787  16.648 -1.3453 -1.0930  2.3519
16470TIP3   OH270824   0.645   1.240   2.568  0.4304  0.1622  0.1712
16470TIP3    H170825   0.705   1.292   2.621 -0.7598  2.1577 -0.3354
16470TIP3    H270826   0.587   1.198   2.632  0.3916  0.7778  0.5546
16471TIP3   OH270827   3.647   2.851  14.993  0.1897 -0.5331  0.1791
16471TIP3    H170828   3.735   2.878  15.016  0.2570  0.3836 -1.0705
16471TIP3    H270829   3.632   2.888  14.906 -2.4515  1.7230  1.4687
16472TIP3   OH270830   1.349   0.285  11.035  0.5968  0.1311 -0.4105
16472TIP3    H170831   1.276   0.315  10.979 -1.6026 -1.6477  1.3297
16472TIP3    H270832   1.357   0.353  11.102  0.7304  0.4336 -0.7240
16473TIP3   OH270833   0.056   2.983   4.663  0.3849 -0.8130 -0.2988
16473TIP3    H170834  -0.028   2.937   4.671  0.0568 -0.0012  1.2325
16473TIP3    H270835   0.032   3.072   4.636  0.7858 -0.6850 -0.2351
16474TIP3   OH270836   0.772   1.332  11.252 -0.5102  0.5511  0.4284
16474TIP3    H170837   0.756   1.320  11.158  0.6452  0.5457  0.2176
16474TIP3    H270838   0.708   1.399  11.278 -1.4915 -0.1312 -0.1355
16475TIP3   OH270839   1.579   2.036   3.574  0.4719 -0.1051  0.5517
16475TIP3    H170840   1.571   2.094   3.498 -0.6821 -1.5862 -0.5123
16475TIP3    H270841   1.673   2.023   3.585  0.6462 -1.4960 -1.9622
16476TIP3   OH270842   4.290   2.120   1.285  0.0173 -0.3503  0.0273
16476TIP3    H170843   4.334   2.191   1.332 -1.4464  0.4442  0.2418
16476TIP3    H270844   4.339   2.041   1.309  2.1898  0.6420 -0.8363
16477TIP3   OH270845   4.260   0.172  12.985 -0.5437 -0.5877  0.1585
16477TIP3    H170846   4.212   0.109  13.039  1.1493 -2.5572 -0.5101
16477TIP3    H270847   4.344   0.183  13.029  0.0612 -0.5879 -0.9630
16478TIP3   OH270848   0.865   3.341   3.302  0.0062 -0.3552 -0.1229
16478TIP3    H170849   0.940   3.342   3.243  0.1873 -2.0396  0.0130
16478TIP3    H270850   0.870   3.256   3.346 -1.1125  0.1296  1.0327
16479TIP3   OH270851   0.132   2.877  11.454  0.2618 -0.0803 -0.5218
16479TIP3    H170852   0.097   2.953  11.408  2.0888  0.8256 -0.4818
16479TIP3    H270853   0.065   2.856  11.520  0.7873  3.1508  1.2332
16480TIP3   OH270854   1.230   0.096  12.537  0.5382 -0.6215 -0.2905
16480TIP3    H170855   1.263   0.161  12.475  0.0349 -0.9328 -0.8968
16480TIP3    H270856   1.165   0.046  12.487  0.3538 -1.0827  0.3965
16481TIP3   OH270857   0.893   0.051  11.013  0.0219 -0.3827  0.6326
16481TIP3    H170858   0.804   0.072  10.985 -1.0262 -1.8199  2.5990
16481TIP3    H270859   0.946   0.056  10.933 -1.6017  1.4727 -0.3988
16482TIP3   OH270860   1.713   1.632   2.798  0.2569 -0.5602  0.3749
16482TIP3    H170861   1.679   1.686   2.869  1.2778  2.6485 -1.4109
16482TIP3    H270862   1.805   1.657   2.790 -0.2336  0.6478 -3.2201
16483TIP3   OH270863   0.687   4.513   3.211 -0.0879 -0.2458  0.5067
16483TIP3    H170864   0.691   4.498   3.305  0.8824 -2.0122  0.2200
16483TIP3    H270865   0.719   4.603   3.200 -0.7701  0.1987  1.8821
16484TIP3   OH270866   5.446   3.314  16.850  0.3829  0.2719  0.5580
16484TIP3    H170867   5.459   3.408  16.855  0.9270  0.3906 -1.7655
16484TIP3    H270868   5.534   3.277  16.844  0.1750 -0.3972  1.3565
16485TIP3   OH270869   3.974   1.347  12.376  0.2249 -0.0414 -0.1864
16485TIP3    H170870   3.912   1.376  12.444  0.8351 -1.2489  0.9257
16485TIP3    H270871   4.059   1.349  12.419  0.6457 -0.6844 -0.9613
16486TIP3   OH270872   2.885   0.416  17.098  0.2822  0.6364  0.0719
16486TIP3    H170873   2.941   0.370  17.035  0.0778  0.4740  0.0090
16486TIP3    H270874   2.912   0.508  17.091 -0.4761  0.7838 -1.0239
16487TIP3   OH270875   5.235   1.217  15.741  0.1984 -0.1515  0.5471
16487TIP3    H170876   5.195   1.279  15.802 -0.6456 -1.2870  1.2017
16487TIP3    H270877   5.329   1.230  15.752  0.0550  1.4265  0.1965
16488TIP3   OH270878   6.592   6.420   2.171  0.6362  0.1993 -0.5285
16488TIP3    H170879   6.588   6.512   2.145 -1.0763 -0.0197 -1.1835
16488TIP3    H270880   6.522   6.377   2.120 -0.9350 -0.8081  2.2353
16489TIP3   OH270881   1.863   5.245  14.000 -0.8439 -0.7849 -0.0027
16489TIP3    H170882   1.768   5.240  14.006 -0.7469 -1.6079  1.2442
16489TIP3    H270883   1.886   5.327  14.044 -0.9815 -0.5281 -0.4078
16490TIP3   OH270884   4.126   0.768   4.821  0.1372 -0.5399  0.4717
16490TIP3    H170885   4.151   0.678   4.839 -1.7673 -0.7560  2.5349
16490TIP3    H270886   4.200   0.821   4.854  0.7550 -1.2904  0.3117
16491TIP3   OH270887   4.559   1.375   3.164 -0.2088  0.1891  0.2401
16491TIP3    H170888   4.605   1.291   3.173 -1.6619 -0.5126  1.5263
16491TIP3    H270889   4.593   1.412   3.083  1.2082 -1.1743  0.1638
16492TIP3   OH270890   0.856   1.819  13.342 -0.3472 -0.0508  0.4322
16492TIP3    H170891   0.836   1.733  13.379 -2.1301  0.8734  1.7720
16492TIP3    H270892   0.778   1.843  13.293  0.1001  0.8358  0.1190
16493TIP3   OH270893   3.456   6.318  11.993  0.2285 -0.4556 -0.1719
16493TIP3    H170894   3.421   6.335  12.081 -0.6350  1.3811 -0.8146
16493TIP3    H270895   3.540   6.275  12.008 -0.0250 -0.4059  1.5487
16494TIP3   OH270896   5.415   0.187   4.389  0.1616 -0.2017 -0.4034
16494TIP3    H170897   5.330   0.146   4.372 -0.4592  0.9652 -0.1875
16494TIP3    H270898   5.401   0.280   4.369  1.4926 -0.0612 -0.7256
16495TIP3   OH270899   3.801   5.728  15.674 -0.7804 -0.1573  0.4436
16495TIP3    H170900   3.748   5.662  15.629 -1.6343  0.3090  0.7458
16495TIP3    H270901   3.741   5.800  15.690 -0.5169 -0.3220  2.3826
16496TIP3   OH270902   1.592   5.909  13.406 -0.2011 -0.4752  0.8977
16496TIP3    H170903   1.547   5.918  13.322  0.0536 -1.8223  0.5794
16496TIP3    H270904   1.522   5.912  13.471 -0.2458  2.3524  0.8353
16497TIP3   OH270905   5.540   6.593  13.281  0.3456  0.2843 -0.3581
16497TIP3    H170906   5.610   6.633  13.332  1.2357  1.0329 -2.0767
16497TIP3    H270907   5.459   6.619  13.325  1.0843  0.5306  0.8851
16498TIP3   OH270908   3.315   4.276  12.803 -0.2306  0.2316 -0.0894
16498TIP3    H170909   3.279   4.351  12.755  0.9127  0.5488 -0.4815
16498TIP3    H270910   3.336   4.212  12.735  2.5952  1.1822 -0.2201
16499TIP3   OH270911   0.710   1.236  15.732  0.2659 -0.2888 -0.0615
16499TIP3    H170912   0.681   1.171  15.796  0.4419 -0.2174  0.0916
16499TIP3    H270913   0.738   1.185  15.656  0.1847 -0.3793 -0.0310
16500TIP3   OH270914   4.145   3.579  14.569  0.4985  0.0397  0.0430
16500TIP3    H170915   4.128   3.634  14.492  2.3486 -0.4382 -0.7570
16500TIP3    H270916   4.066   3.526  14.577  1.0631 -1.4938 -2.9487
16501TIP3   OH270917   0.228   4.097  12.072  0.2190  0.0166 -0.7397
16501TIP3    H170918   0.295   4.033  12.097 -1.5518 -1.5801  0.1456
16501TIP3    H270919   0.223   4.156  12.147 -1.0809 -1.3858  0.3426
16502TIP3   OH270920   5.597   6.316   4.870  0.5585  0.7212  0.0385
16502TIP3    H170921   5.685   6.311   4.905 -0.0655  0.3640  1.6224
16502TIP3    H270922   5.586   6.408   4.845  0.9736  1.0190  0.9302
16503TIP3   OH270923   2.614   2.205   3.726  0.7575 -0.2054  0.0345
16503TIP3    H170924   2.694   2.177   3.681  1.4902  1.7623  0.0014
16503TIP3    H270925   2.641   2.221   3.816  0.3830  0.3122  0.0633
16504TIP3   OH270926   4.124   1.011   4.319  0.0507 -0.2055 -0.0903
16504TIP3    H170927   4.062   0.973   4.256 -1.1341  1.7649 -0.2155
16504TIP3    H270928   4.124   1.104   4.298  1.3627  0.1645  1.4094
16505TIP3   OH270929   2.089   0.717  12.177  0.0998 -0.3630  0.3753
16505TIP3    H170930   2.026   0.698  12.108  0.6629 -1.1404  0.0521
16505TIP3    H270931   2.038   0.758  12.247 -0.1791  2.1636 -1.2066
16506TIP3   OH270932   5.536   4.134   5.780 -0.2181  0.1654  0.0304
16506TIP3    H170933   5.500   4.090   5.856 -0.1442 -1.6015 -0.9034
16506TIP3    H270934   5.578   4.212   5.815  0.9846 -1.2759  1.9753
16507TIP3   OH270935   6.722   1.353  12.722  0.0501 -0.4927  0.1444
16507TIP3    H170936   6.635   1.377  12.689  0.3037 -1.0880 -1.0015
16507TIP3    H270937   6.775   1.342  12.643  0.4755 -2.7566  0.6928
16508TIP3   OH270938   3.702   6.729  16.637 -0.1345  0.0743 -0.6522
16508TIP3    H170939   3.791   6.707  16.666 -0.5467 -0.0304  0.5759
16508TIP3    H270940   3.700   6.704  16.545  1.0915  0.0272 -0.6819
16509TIP3   OH270941   1.401   2.119   6.291 -0.3575 -0.6611  0.1838
16509TIP3    H170942   1.467   2.127   6.360 -0.0566 -1.1613 -0.0421
16509TIP3    H270943   1.441   2.060   6.227 -0.2331  0.5636 -0.8917
16510TIP3   OH270944   4.465   6.549  11.984  0.2454  0.0111 -0.0594
16510TIP3    H170945   4.420   6.556  12.068  1.3111  1.0283  0.4617
16510TIP3    H270946   4.492   6.639  11.964 -0.7749 -0.0569 -1.9539
16511TIP3   OH270947   1.472   0.831  12.252  0.0717  0.0826  0.3649
16511TIP3    H170948   1.512   0.744  12.247  0.5070  0.2184  1.3206
16511TIP3    H270949   1.545   0.892  12.246  0.1061  0.3323  2.5627
16512TIP3   OH270950   3.067   5.961   0.845 -0.5152 -0.9505 -0.2283
16512TIP3    H170951   2.979   5.993   0.823  0.2189  0.7411 -0.8049
16512TIP3    H270952   3.112   5.955   0.761 -0.2037 -2.2684  0.0115
16513TIP3   OH270953   1.266   4.199  14.645  0.2045  0.0320  0.3707
16513TIP3    H170954   1.325   4.254  14.697  0.5653 -0.9997  1.0836
16513TIP3    H270955   1.215   4.261  14.592  1.1831  0.9978  0.5292
16514TIP3   OH270956   1.351   5.824   1.701  0.1537  0.2759 -0.4672
16514TIP3    H170957   1.438   5.785   1.694  0.3620  0.6720 -0.1414
16514TIP3    H270958   1.292   5.749   1.714  0.7140  0.1293  1.6235
16515TIP3   OH270959   5.144   5.664  12.277  0.3632  0.4597 -0.4345
16515TIP3    H170960   5.150   5.698  12.366  0.2500 -0.9075  0.1109
16515TIP3    H270961   5.059   5.622  12.273  0.2799  0.6926 -1.2655
16516TIP3   OH270962   5.501   1.921   0.974 -0.0555  0.2418 -0.7801
16516TIP3    H170963   5.527   1.877   0.893  1.1675 -1.3613  0.3908
16516TIP3    H270964   5.419   1.877   0.999  0.7329 -0.8720 -0.0410
16517TIP3   OH270965   2.321   2.362  12.361  0.3630 -0.3590  0.4639
16517TIP3    H170966   2.396   2.321  12.317  0.5063 -1.3536  1.5759
16517TIP3    H270967   2.246   2.340  12.306  1.0216  2.2643 -1.7398
16518TIP3   OH270968   4.212   5.199  11.059  0.0786 -0.6933  0.1683
16518TIP3    H170969   4.149   5.200  10.986 -0.3479  0.8482  0.5142
16518TIP3    H270970   4.213   5.290  11.090  1.5921 -0.9554  0.9474
16519TIP3   OH270971   3.289   0.683   4.634  0.5017 -0.4240 -0.1876
16519TIP3    H170972   3.223   0.722   4.691  0.6856  0.5719 -0.6367
16519TIP3    H270973   3.317   0.604   4.680 -0.5869 -0.5563  0.2797
16520TIP3   OH270974   0.731   4.199   3.638  0.0701  0.3685  0.6229
16520TIP3    H170975   0.771   4.193   3.724 -0.4028 -2.7407  0.7404
16520TIP3    H270976   0.638   4.182   3.654 -0.0536 -0.0612 -0.4676
16521TIP3   OH270977   4.086   4.714   1.204 -0.3637  0.4225  0.1465
16521TIP3    H170978   4.111   4.800   1.172  0.2809  0.1647 -0.0664
16521TIP3    H270979   4.168   4.663   1.203  0.1167  0.8796  3.8449
16522TIP3   OH270980   4.382   3.713   3.738  0.2515  0.3069  0.7045
16522TIP3    H170981   4.320   3.646   3.708  0.2702  0.4915  0.2454
16522TIP3    H270982   4.426   3.742   3.658 -1.3561  2.5075  0.5226
16523TIP3   OH270983   1.568   3.292  16.112  0.2125 -0.1471  0.2318
16523TIP3    H170984   1.482   3.276  16.150 -0.4408  0.3608 -0.9874
16523TIP3    H270985   1.630   3.267  16.181 -0.8764 -1.3993  0.7942
16524TIP3   OH270986   3.056   3.099   2.456  0.2903 -0.4163  0.2432
16524TIP3    H170987   2.972   3.113   2.412  0.2798  3.0273  1.0771
16524TIP3    H270988   3.113   3.168   2.423  2.0066 -1.1069  1.5775
16525TIP3   OH270989   5.721   3.590  17.018  0.1902  0.4016  0.4061
16525TIP3    H170990   5.743   3.678  17.047  0.2932  0.8650 -0.9783
16525TIP3    H270991   5.794   3.536  17.046  1.9478  1.4419 -1.8510
16526TIP3   OH270992   5.203   3.840   2.062  0.0585 -0.1276  0.2357
16526TIP3    H170993   5.110   3.821   2.054  0.0664  0.4234 -1.5533
16526TIP3    H270994   5.220   3.905   1.993  2.0801 -1.3756 -0.5159
16527TIP3   OH270995   5.721   0.507   0.142 -0.1219 -0.1170  0.2168
16527TIP3    H170996   5.809   0.541   0.159  0.0711 -1.2737  1.7738
16527TIP3    H270997   5.668   0.584   0.127  0.8467  0.6913  0.8262
16528TIP3   OH270998   2.782   5.237  15.613 -0.1192 -0.6445  0.3458
16528TIP3    H170999   2.829   5.181  15.674  3.9504  2.8349  0.8112
16528TIP3    H271000   2.738   5.302  15.668  0.9022  0.6106 -0.2713
16529TIP3   OH271001   0.871   2.665   1.773 -0.2277 -0.7632 -0.1766
16529TIP3    H171002   0.807   2.609   1.730  0.2814 -1.0006 -0.6443
16529TIP3    H271003   0.828   2.693   1.854 -1.9931  1.2853 -1.7068
16530TIP3   OH271004   3.734   4.363   4.728 -0.0716  0.8619  0.0826
16530TIP3    H171005   3.788   4.295   4.768 -0.7252  0.1846 -0.1533
16530TIP3    H271006   3.722   4.334   4.638 -0.9696  0.9094  0.1799
16531TIP3   OH271007   4.202   4.106   0.737  0.3499  0.1785 -0.0433
16531TIP3    H171008   4.116   4.063   0.743 -0.3232  1.6738  3.0975
16531TIP3    H271009   4.183   4.194   0.706  0.7422  0.5073  0.6297
16532TIP3   OH271010   1.872   2.994  13.751 -0.2666  0.5442 -0.0232
16532TIP3    H171011   1.903   2.989  13.842 -2.5460 -2.2841  0.7416
16532TIP3    H271012   1.930   2.936  13.703 -0.4240  0.2781  0.1041
16533TIP3   OH271013   4.453   3.594  15.722  0.2019  0.2683  0.5580
16533TIP3    H171014   4.370   3.546  15.722  0.0291  0.5214  1.9655
16533TIP3    H271015   4.431   3.679  15.759  1.0361  0.4548  0.6329
16534TIP3   OH271016   1.128   2.678  14.893 -0.2823  0.5329 -0.5581
16534TIP3    H171017   1.095   2.761  14.859 -2.8415 -1.1077 -2.5128
16534TIP3    H271018   1.188   2.647  14.826  0.3439  0.6023 -0.0325
16535TIP3   OH271019   6.440   0.649   1.652  0.3276 -0.2291  0.4948
16535TIP3    H171020   6.400   0.655   1.566  0.2672  1.7696  0.6168
16535TIP3    H271021   6.516   0.591   1.640  0.3629  0.0912 -0.9166
16536TIP3   OH271022   3.128   2.402   0.062  0.4209 -0.2781 -0.0970
16536TIP3    H171023   3.149   2.448  -0.019 -0.7364 -1.8558 -1.3841
16536TIP3    H271024   3.073   2.463   0.111  2.0643  1.1394  0.0815
16537TIP3   OH271025   3.047   2.960  15.500  0.2610 -0.2054  0.7028
16537TIP3    H171026   3.071   2.912  15.579  0.4870 -0.0401  0.7347
16537TIP3    H271027   3.130   2.987  15.462  0.1444 -0.1047  0.5199
16538TIP3   OH271028   4.343   1.328  15.672 -0.4196  0.5550  0.0325
16538TIP3    H171029   4.417   1.317  15.732  0.0278 -1.1250 -0.7675
16538TIP3    H271030   4.268   1.346  15.729  0.2237  0.2120  1.0045
16539TIP3   OH271031   6.574   0.626   0.838  0.0793  0.0228 -0.0596
16539TIP3    H171032   6.579   0.574   0.757 -0.0078  0.4764 -0.3614
16539TIP3    H271033   6.528   0.570   0.900 -0.7416  0.0450 -0.6342
16540TIP3   OH271034   1.256   5.082   5.298  0.2084  0.9408 -0.7733
16540TIP3    H171035   1.255   5.009   5.236  1.0051 -0.9273  1.2684
16540TIP3    H271036   1.176   5.070   5.349  0.8022  0.9344  0.1778
16541TIP3   OH271037   5.591   1.752   1.590 -0.0977  0.2314  0.3589
16541TIP3    H171038   5.581   1.762   1.684  0.2999 -0.3252  0.4590
16541TIP3    H271039   5.636   1.832   1.562  0.0749  0.2501  0.6866
16542TIP3   OH271040   6.603   2.364   4.490 -0.3341 -0.1377  0.1064
16542TIP3    H171041   6.661   2.431   4.527 -0.1022 -0.4024  0.2295
16542TIP3    H271042   6.627   2.284   4.536 -0.1369 -0.4443 -0.5166
16543TIP3   OH271043   3.227   6.336   1.322  0.6118 -0.1694  0.4133
16543TIP3    H171044   3.161   6.295   1.266 -0.8081  2.1650  0.2216
16543TIP3    H271045   3.244   6.421   1.280  2.1434  0.1770  1.6466
16544TIP3   OH271046   2.652   1.910  15.989  0.4548 -0.1877 -0.5463
16544TIP3    H171047   2.744   1.936  15.989  0.3791  0.0895 -1.1951
16544TIP3    H271048   2.633   1.889  16.081  0.3049  2.7763  0.1846
16545TIP3   OH271049   1.986   5.487   4.168 -0.0689 -0.1333 -0.6483
16545TIP3    H171050   1.927   5.532   4.227  1.6531  0.5626  0.6029
16545TIP3    H271051   1.951   5.397   4.164 -0.2963 -0.1772  1.3323
16546TIP3   OH271052   6.240   5.399  13.747  0.0353 -0.2482  0.0051
16546TIP3    H171053   6.179   5.457  13.793  0.9109  0.3001  0.5032
16546TIP3    H271054   6.324   5.414  13.791  0.7933 -0.0898 -1.4657
16547TIP3   OH271055   3.911   6.161  15.484 -0.0196  0.2623  0.0766
16547TIP3    H171056   3.935   6.248  15.516 -1.4397  2.0536 -3.1817
16547TIP3    H271057   3.816   6.165  15.475 -0.3010 -2.1955  1.0876
16548TIP3   OH271058   5.773   3.611   0.602  0.0463 -0.6132  0.5197
16548TIP3    H171059   5.764   3.631   0.695  0.9332  1.1026  0.2817
16548TIP3    H271060   5.683   3.617   0.568 -0.1351 -0.1143  1.0634
16549TIP3   OH271061   5.256   4.569   1.752 -0.3989  0.9098  0.3546
16549TIP3    H171062   5.325   4.565   1.818 -0.6903  2.5852  0.8099
16549TIP3    H271063   5.176   4.543   1.799 -0.5017  1.4822  0.4962
16550TIP3   OH271064   3.563   1.286  14.211  0.4088 -0.1027  0.2652
16550TIP3    H171065   3.511   1.352  14.257 -1.3506 -0.8841 -0.5420
16550TIP3    H271066   3.646   1.283  14.260 -0.0849  1.5226  1.2852
16551TIP3   OH271067   1.751   5.996   0.560  0.4770  0.4488 -0.3411
16551TIP3    H171068   1.729   5.913   0.518  0.2219  1.2088 -1.8013
16551TIP3    H271069   1.667   6.033   0.586  0.4001  1.0716 -1.3927
16552TIP3   OH271070   5.723   5.069  13.780 -0.5798 -0.1886 -1.0167
16552TIP3    H171071   5.807   5.066  13.827 -0.8264  1.3117 -0.3962
16552TIP3    H271072   5.742   5.031  13.694  0.0373 -2.4518  0.0386
16553TIP3   OH271073   4.112   4.412   4.539  0.1026  0.3724 -0.7729
16553TIP3    H171074   4.046   4.428   4.606 -1.1182  0.6376 -1.9887
16553TIP3    H271075   4.131   4.499   4.503  1.2929  0.3272 -0.2978
16554TIP3   OH271076   1.705   6.640  15.358  0.3290  0.3606  0.0628
16554TIP3    H171077   1.742   6.558  15.324 -1.5802 -0.0463 -1.2041
16554TIP3    H271078   1.657   6.613  15.436 -0.2049  0.2538 -0.2912
16555TIP3   OH271079   3.518   2.164  14.041  0.1305  0.2037  0.0620
16555TIP3    H171080   3.527   2.241  14.097  2.8460 -1.3892  2.0842
16555TIP3    H271081   3.563   2.188  13.960 -0.3118  1.1891  0.0899
16556TIP3   OH271082   0.097   6.590  15.329 -0.0809  0.1739 -0.0634
16556TIP3    H171083   0.071   6.498  15.331 -1.8462  0.6249 -0.8251
16556TIP3    H271084   0.040   6.632  15.393 -0.4464  1.0125 -0.9325
16557TIP3   OH271085   4.197   3.566   6.107 -0.8426 -0.1768 -0.4989
16557TIP3    H171086   4.221   3.474   6.113 -2.5611 -0.6266  0.0121
16557TIP3    H271087   4.230   3.595   6.022  0.9496 -0.8503 -0.0849
16558TIP3   OH271088   3.994   5.975   2.746  0.4293 -0.1582 -0.5219
16558TIP3    H171089   4.020   5.891   2.710 -2.2222 -1.4366  0.3265
16558TIP3    H271090   4.012   5.969   2.840  1.9230  0.9809 -0.6850
16559TIP3   OH271091   4.566   0.745  14.640 -0.0686  0.0921 -0.2481
16559TIP3    H171092   4.541   0.832  14.670  0.7328 -0.5532  2.5989
16559TIP3    H271093   4.659   0.739  14.659 -0.5885 -2.2500  2.2437
16560TIP3   OH271094   2.478   6.444   2.876  0.3333  0.5449  0.1241
16560TIP3    H171095   2.391   6.411   2.851  0.5274 -1.0477  1.3360
16560TIP3    H271096   2.460   6.515   2.937 -0.0984  1.3293 -0.8822
16561TIP3   OH271097   1.690   2.624   0.161 -0.1684 -0.7280 -0.1695
16561TIP3    H171098   1.715   2.544   0.207 -2.1382 -0.7266  1.0149
16561TIP3    H271099   1.602   2.606   0.128 -0.3943  0.7259 -0.4335
16562TIP3   OH271100   2.971   6.042  13.204 -0.0562 -0.2371 -0.3462
16562TIP3    H171101   2.921   6.059  13.284  0.6860 -0.4386  0.1817
16562TIP3    H271102   2.993   5.949  13.209  2.6974  0.3440  0.8819
16563TIP3   OH271103   4.188   0.281   2.776  1.1560  0.0692 -0.3695
16563TIP3    H171104   4.278   0.262   2.747  0.9902  0.3515 -1.1030
16563TIP3    H271105   4.160   0.353   2.719  0.4837  0.0222 -0.1034
16564TIP3   OH271106   0.796   1.694   1.149 -0.0698 -0.3157  0.0932
16564TIP3    H171107   0.779   1.679   1.242  0.2064  0.4899  0.2831
16564TIP3    H271108   0.890   1.679   1.139  0.0791  0.5741  0.1449
16565TIP3   OH271109   5.923   0.834  14.926 -0.2163 -0.0947 -0.6413
16565TIP3    H171110   5.890   0.833  14.836 -2.8330 -1.4501  0.2547
16565TIP3    H271111   5.938   0.742  14.947  0.0186  0.1779  0.4378
16566TIP3   OH271112   4.605   5.137  11.587  0.0473  0.6311 -0.0782
16566TIP3    H171113   4.567   5.217  11.625  0.0641  0.5175  0.1816
16566TIP3    H271114   4.564   5.066  11.636 -0.8462  0.4249 -1.0977
16567TIP3   OH271115   4.562   3.346  11.636  0.0657 -0.5539 -0.0833
16567TIP3    H171116   4.631   3.339  11.570  0.6560 -0.1647  0.4680
16567TIP3    H271117   4.573   3.434  11.672 -0.2275 -0.7668  0.5402
16568TIP3   OH271118   3.457   2.421   4.998  0.4487 -0.2696  0.1544
16568TIP3    H171119   3.498   2.354   5.052  0.9620  0.6795  0.9749
16568TIP3    H271120   3.478   2.397   4.908  0.2470 -1.4393  0.4071
16569TIP3   OH271121   0.022   1.692   3.641  0.0265  0.4718  0.4595
16569TIP3    H171122  -0.033   1.707   3.564  1.1430  4.4252  0.1894
16569TIP3    H271123  -0.022   1.739   3.712  1.3551  0.8976  1.0411
16570TIP3   OH271124   5.554   4.836   1.931 -0.8319 -0.0552 -0.1938
16570TIP3    H171125   5.591   4.903   1.989 -0.0747 -0.1861 -0.5165
16570TIP3    H271126   5.464   4.864   1.917 -1.0267 -0.0103  1.0340
16571TIP3   OH271127   0.035   2.902  13.368  0.2471 -0.2289  0.2895
16571TIP3    H171128   0.127   2.905  13.394  0.8962  0.9604 -1.8476
16571TIP3    H271129   0.036   2.925  13.275 -2.3149  0.8392  0.4439
16572TIP3   OH271130   5.139   1.699  12.342 -0.2578  0.0550  0.1226
16572TIP3    H171131   5.175   1.612  12.358  0.2881  0.2208 -0.2068
16572TIP3    H271132   5.085   1.689  12.264  0.1274  0.1023 -0.1503
16573TIP3   OH271133   2.045   5.804   4.610 -0.6308 -0.4264  0.5421
16573TIP3    H171134   2.084   5.730   4.564  0.3016  1.3487 -1.6986
16573TIP3    H271135   2.113   5.835   4.669 -0.3016 -0.1515  0.0213
16574TIP3   OH271136   2.462   1.189   2.492  0.1420  0.1839 -0.0896
16574TIP3    H171137   2.494   1.241   2.566 -0.0168 -1.3047  1.0917
16574TIP3    H271138   2.450   1.101   2.529 -1.0967 -0.3224 -1.6020
16575TIP3   OH271139   1.133   3.218  14.582 -0.0210 -0.1336  0.1856
16575TIP3    H171140   1.075   3.150  14.547 -0.6459  0.8378 -0.7680
16575TIP3    H271141   1.221   3.181  14.575 -0.0089  0.1481 -3.0600
16576TIP3   OH271142   3.374   5.761  17.253  0.1328 -0.1717  0.5846
16576TIP3    H171143   3.428   5.804  17.320 -1.5145  2.3950  0.3925
16576TIP3    H271144   3.438   5.722  17.193  1.8939  2.8685  0.2745
16577TIP3   OH271145   0.372   1.097   5.252 -0.2148 -0.2889  0.3708
16577TIP3    H171146   0.390   1.184   5.218 -0.0685  0.4280  2.1836
16577TIP3    H271147   0.414   1.038   5.189 -1.4424  0.8206 -1.6151
16578TIP3   OH271148   6.282   4.794   3.377 -0.0646 -0.6032 -0.4474
16578TIP3    H171149   6.300   4.774   3.286 -0.7870 -0.0017 -0.7335
16578TIP3    H271150   6.217   4.729   3.404 -0.0964 -0.5760 -0.4589
16579TIP3   OH271151   5.529   4.050   4.127  0.0388 -0.1705  0.1506
16579TIP3    H171152   5.564   4.127   4.171 -0.0463  1.3070 -2.2230
16579TIP3    H271153   5.509   4.079   4.039 -1.4916 -2.5347 -0.3822
16580TIP3   OH271154   1.545   2.333   0.831 -0.0510  0.3592  0.0862
16580TIP3    H171155   1.532   2.260   0.770 -0.4390  1.1210 -0.7669
16580TIP3    H271156   1.467   2.387   0.820 -0.5724  0.0625  1.9413
16581TIP3   OH271157   0.730   0.291   3.303 -0.2683  0.0182  0.3430
16581TIP3    H171158   0.688   0.297   3.388  1.7096  0.5090  1.3315
16581TIP3    H271159   0.696   0.366   3.254  0.0620  0.8871  1.4045
16582TIP3   OH271160   0.801   4.506   2.208 -0.0225 -0.3184  0.8997
16582TIP3    H171161   0.788   4.572   2.276 -0.4479 -1.7971  2.3158
16582TIP3    H271162   0.733   4.441   2.226  0.4838 -1.2221 -0.3650
16583TIP3   OH271163   2.700   3.634   1.069 -0.1680  0.4434 -0.0602
16583TIP3    H171164   2.772   3.594   1.021 -0.1261  0.2594  0.1547
16583TIP3    H271165   2.626   3.575   1.055 -0.0241  0.1185  0.5201
16584TIP3   OH271166   4.807   5.412  12.528 -0.0452 -0.2126  0.3570
16584TIP3    H171167   4.809   5.490  12.472 -3.4376  1.0348  1.7019
16584TIP3    H271168   4.777   5.342  12.471 -2.5731  0.8412  0.2407
16585TIP3   OH271169   2.603   1.057  15.452  1.0140 -0.9120  0.1826
16585TIP3    H171170   2.611   0.962  15.468  1.7842 -0.8099  0.4248
16585TIP3    H271171   2.598   1.065  15.357 -0.1920 -1.2746  0.1995
16586TIP3   OH271172   4.298   5.690   3.384 -1.1305  0.5429  0.5217
16586TIP3    H171173   4.320   5.628   3.453  1.4778  0.8351  0.0604
16586TIP3    H271174   4.330   5.648   3.304 -0.6103  1.8418  0.0217
16587TIP3   OH271175   1.652   0.480   2.070 -0.0543 -0.0455 -0.2117
16587TIP3    H171176   1.622   0.389   2.069 -0.6729  0.1507 -0.3838
16587TIP3    H271177   1.726   0.482   2.010 -1.5862  0.0625 -2.1921
16588TIP3   OH271178   6.662   0.286   4.590 -0.4415 -0.3323  0.0650
16588TIP3    H171179   6.571   0.311   4.603 -1.0424 -1.3511 -1.7306
16588TIP3    H271180   6.669   0.198   4.627  0.3994  0.5085  2.0398
16589TIP3   OH271181   1.304   4.236  15.331 -0.1831  0.3005 -0.4097
16589TIP3    H171182   1.385   4.186  15.342  0.0316  1.0630  1.9166
16589TIP3    H271183   1.330   4.327  15.346 -1.1694  0.7761 -1.4303
16590TIP3   OH271184   4.219   4.444   6.130  0.0845 -0.5058 -0.3062
16590TIP3    H171185   4.253   4.477   6.047  0.6094  0.7182  0.3706
16590TIP3    H271186   4.153   4.508   6.156 -0.8955 -1.4876 -0.3292
16591TIP3   OH271187   0.157   0.084   1.017  0.2545  0.9226  0.1115
16591TIP3    H171188   0.115  -0.001   1.005  0.1501  0.7499  1.5070
16591TIP3    H271189   0.181   0.086   1.110 -0.0941  2.5715  0.2042
16592TIP3   OH271190   1.652   3.012   3.018  0.0867  0.0986  0.3868
16592TIP3    H171191   1.676   2.959   2.942 -2.0869 -0.8815  0.3183
16592TIP3    H271192   1.621   3.094   2.981  1.5888  0.7164  0.4036
16593TIP3   OH271193   0.529   3.223  12.259 -0.2572  0.7672 -0.1847
16593TIP3    H171194   0.518   3.312  12.292  0.2079  0.9175 -0.4262
16593TIP3    H271195   0.440   3.189  12.252 -0.3686  0.7440  1.1759
16594TIP3   OH271196   2.926   2.247   4.130 -0.2489 -0.2537 -0.0312
16594TIP3    H171197   2.995   2.216   4.070 -0.6687 -0.3904 -0.4535
16594TIP3    H271198   2.956   2.333   4.158  1.3634 -1.3318  1.8256
16595TIP3   OH271199   2.176   0.118   6.464 -0.2215  0.0453 -0.3086
16595TIP3    H171200   2.108   0.109   6.532 -0.9336  0.3657 -0.9568
16595TIP3    H271201   2.235   0.045   6.480 -0.7549 -0.2864  0.2390
16596TIP3   OH271202   4.003   3.573   2.263  0.0780  0.1555  0.3261
16596TIP3    H171203   4.043   3.502   2.312 -0.6085 -0.1507  0.4518
16596TIP3    H271204   3.978   3.637   2.329  0.5132  0.4337  0.2301
16597TIP3   OH271205   3.498   3.146   1.635  0.2090 -0.2440  0.0474
16597TIP3    H171206   3.470   3.133   1.726 -0.7345  0.0961 -0.1846
16597TIP3    H271207   3.555   3.072   1.617 -0.3041 -0.7991  0.6458
16598TIP3   OH271208   2.040   3.983   3.191 -0.0238  0.1630 -0.5937
16598TIP3    H171209   2.103   4.013   3.256  0.5896 -1.6745 -0.2690
16598TIP3    H271210   1.980   4.056   3.179 -1.0614  0.1193  3.1265
16599TIP3   OH271211   5.651   0.397   6.441  0.5448  0.4359  0.1750
16599TIP3    H171212   5.604   0.318   6.468  1.4761 -0.6826 -1.3016
16599TIP3    H271213   5.728   0.400   6.497  0.5632  0.2424  0.1598
16600TIP3   OH271214   1.207   5.034   6.156  0.1050 -0.5252 -0.1061
16600TIP3    H171215   1.180   5.126   6.150  0.3581 -0.0869  3.5768
16600TIP3    H271216   1.128   4.985   6.136 -0.4429  0.5003 -0.5453
16601TIP3   OH271217   4.254   5.328  11.409 -0.5215  0.1537  0.3263
16601TIP3    H171218   4.326   5.391  11.416 -0.7750  0.3168  1.8617
16601TIP3    H271219   4.213   5.329  11.495 -1.2469 -1.2837  0.0331
16602TIP3   OH271220   5.739   3.296   4.478  0.1536 -0.4690 -0.1039
16602TIP3    H171221   5.769   3.207   4.493 -0.5479 -0.6654  0.1871
16602TIP3    H271222   5.818   3.349   4.480  0.9249 -1.3735 -2.8554
16603TIP3   OH271223   1.593   0.107   3.429 -0.7162  0.3180  0.3431
16603TIP3    H171224   1.585   0.201   3.416 -4.0822  0.0776 -0.2171
16603TIP3    H271225   1.599   0.071   3.341 -1.4569 -0.0649  0.4380
16604TIP3   OH271226   5.261   4.345   1.570 -0.2110  0.1449  0.7963
16604TIP3    H171227   5.173   4.315   1.593 -0.5124  0.8400  0.5561
16604TIP3    H271228   5.276   4.422   1.625  0.7017 -0.6232  1.6673
16605TIP3   OH271229   6.238   0.103   1.160  0.4920 -0.0519  0.2555
16605TIP3    H171230   6.225   0.198   1.158  2.0039  0.2289  1.5862
16605TIP3    H271231   6.153   0.068   1.188  0.0774  0.9536  0.3139
16606TIP3   OH271232   6.532   5.563   0.435 -0.3168  0.2478 -0.2735
16606TIP3    H171233   6.488   5.554   0.520 -0.6848 -0.0194 -0.4894
16606TIP3    H271234   6.462   5.551   0.370  0.2844 -1.4741 -0.6482
16607TIP3   OH271235   3.266   1.456   4.674  0.2865  0.2600  0.0778
16607TIP3    H171236   3.306   1.503   4.747 -0.5386 -0.6833  1.1711
16607TIP3    H271237   3.324   1.474   4.600  1.4208  0.8396  1.0685
16608TIP3   OH271238   0.353   2.950  13.257  0.6267  0.4009 -0.2912
16608TIP3    H171239   0.447   2.936  13.273  0.4164 -0.9461 -0.0770
16608TIP3    H271240   0.345   2.953  13.162  0.6980 -1.1379 -0.3658
16609TIP3   OH271241   3.525   6.287   2.608  0.5115 -0.0412 -0.3933
16609TIP3    H171242   3.525   6.312   2.516  2.4531  0.1263 -0.3899
16609TIP3    H271243   3.614   6.305   2.638  0.2132 -1.0634  1.2472
16610TIP3   OH271244   0.380   0.956  11.590 -0.5913 -0.0693 -0.4916
16610TIP3    H171245   0.325   0.943  11.513  1.2885 -0.8548 -1.7855
16610TIP3    H271246   0.446   1.019  11.562  0.5596 -0.9180  0.2379
16611TIP3   OH271247   0.873   2.782  16.994 -0.1296 -0.3962  0.0031
16611TIP3    H171248   0.956   2.829  17.000  0.6937 -1.6374 -0.9501
16611TIP3    H271249   0.807   2.850  16.987  0.7919  0.6262  0.9234
16612TIP3   OH271250   2.554   5.191  12.894 -0.4273  0.0949  0.6088
16612TIP3    H171251   2.539   5.227  12.807  1.0851  0.5632  0.5164
16612TIP3    H271252   2.637   5.143  12.886 -1.6067 -2.1986  1.1077
16613TIP3   OH271253   1.887   4.373   2.429  0.2496  0.2234  0.3012
16613TIP3    H171254   1.861   4.465   2.430 -0.0404  0.1621 -0.7428
16613TIP3    H271255   1.819   4.330   2.377 -0.1982 -0.7684  1.6438
16614TIP3   OH271256   1.452   1.455  10.938 -0.0376  1.2092 -0.0040
16614TIP3    H171257   1.364   1.423  10.959 -0.5134  3.1730  1.2712
16614TIP3    H271258   1.438   1.541  10.899  1.2472  0.5263 -2.1693
16615TIP3   OH271259   6.303   2.959   6.028 -0.0116  0.3952 -0.3743
16615TIP3    H171260   6.310   3.038   6.082  1.9915  0.4553 -0.6379
16615TIP3    H271261   6.365   2.897   6.069 -1.2482 -0.9080 -0.4059
16616TIP3   OH271262   6.370   2.559  13.740  0.4307 -0.2998  0.1914
16616TIP3    H171263   6.429   2.490  13.768  1.5476  0.4379 -0.2443
16616TIP3    H271264   6.382   2.629  13.804  0.4264  0.0544 -0.1837
16617TIP3   OH271265   6.262   5.071   1.779 -0.6339 -0.1882 -0.0650
16617TIP3    H171266   6.220   5.055   1.695 -0.1587 -1.4190 -0.0880
16617TIP3    H271267   6.204   5.029   1.843 -0.4542 -0.1704  0.1106
16618TIP3   OH271268   3.140   0.525   5.988  0.7407 -0.0984  0.0592
16618TIP3    H171269   3.186   0.478   6.057  2.6703  0.2336 -0.9274
16618TIP3    H271270   3.141   0.616   6.017 -0.4034 -0.2320  0.5870
16619TIP3   OH271271   3.772   6.349  15.882  0.5185 -0.0748 -0.4699
16619TIP3    H171272   3.858   6.376  15.850  1.1017  1.0586  1.8208
16619TIP3    H271273   3.739   6.424  15.931 -1.3550 -0.8444 -0.4467
16620TIP3   OH271274   2.508   0.848   5.491 -0.2245  0.1541 -0.7970
16620TIP3    H171275   2.576   0.817   5.550 -0.6843  0.2368 -0.2126
16620TIP3    H271276   2.432   0.793   5.510 -2.2839  3.7112  2.8884
16621TIP3   OH271277   3.349   2.163   5.939  0.2500  0.2393  0.4555
16621TIP3    H171278   3.370   2.243   5.890  0.7991  0.9156  1.7522
16621TIP3    H271279   3.433   2.125   5.962  0.0492  0.6473  1.9813
16622TIP3   OH271280   6.384   1.934   5.913  0.0270  0.5981  0.0105
16622TIP3    H171281   6.352   1.965   5.997 -0.5333  1.4066 -0.4911
16622TIP3    H271282   6.373   2.008   5.854  0.1664 -0.0400 -0.8385
16623TIP3   OH271283   0.082   4.435  15.541  0.2646 -0.3725 -0.0332
16623TIP3    H171284   0.060   4.342  15.536 -1.4195 -0.0172  0.1502
16623TIP3    H271285   0.059   4.469  15.454 -0.1425  0.0592  0.2379
16624TIP3   OH271286   5.702   4.856  16.404 -0.4584 -0.4779 -0.3237
16624TIP3    H171287   5.786   4.897  16.385 -1.7452  1.5378 -2.0572
16624TIP3    H271288   5.698   4.781  16.344 -1.4082  1.6434 -3.1013
16625TIP3   OH271289   1.457   5.554   1.850  0.9136 -0.3475 -0.1672
16625TIP3    H171290   1.490   5.482   1.903  0.3166 -0.2019  0.4108
16625TIP3    H271291   1.398   5.513   1.787  1.0141 -0.4332 -0.2041
16626TIP3   OH271292   3.037   1.747  16.364 -0.1453 -0.1852  0.1134
16626TIP3    H171293   2.974   1.679  16.339 -2.7040  1.6086  1.3182
16626TIP3    H271294   3.072   1.717  16.448 -0.8362 -0.3040  0.3664
16627TIP3   OH271295   3.362   1.024   0.344  0.0432  0.1646 -1.0053
16627TIP3    H171296   3.408   1.052   0.423 -0.3829 -0.2702 -0.5942
16627TIP3    H271297   3.409   0.947   0.314 -0.0778  0.0466 -0.8973
16628TIP3   OH271298   1.734   2.777   5.266 -0.4289 -0.4008 -0.1465
16628TIP3    H171299   1.795   2.751   5.334 -0.0656 -0.6819 -0.5765
16628TIP3    H271300   1.690   2.854   5.301  0.8596  0.3940 -0.2173
16629TIP3   OH271301   2.406   5.759  13.364 -0.7093 -0.1967 -0.1493
16629TIP3    H171302   2.407   5.664  13.362  2.7572 -0.2759 -1.1764
16629TIP3    H271303   2.353   5.785  13.289 -2.0108 -1.2586  0.3664
16630TIP3   OH271304   5.627   4.055  13.063  0.4955 -0.0977  0.3816
16630TIP3    H171305   5.686   4.003  13.117  1.1271  1.5383  1.3443
16630TIP3    H271306   5.540   4.036  13.098  0.6790 -0.7478  0.4986
16631TIP3   OH271307   5.709   2.882  16.264  0.0069  0.2565  0.0644
16631TIP3    H171308   5.683   2.821  16.333  2.5078  0.7985  1.5966
16631TIP3    H271309   5.671   2.966  16.289  0.5355  0.3516  0.5636
16632TIP3   OH271310   2.005   6.740  15.338  0.0216 -0.4837  0.4369
16632TIP3    H171311   2.014   6.658  15.290 -1.0905 -0.1908 -0.3079
16632TIP3    H271312   1.959   6.799  15.277  2.0407  1.1696  0.3905
16633TIP3   OH271313   1.719   2.149  15.119 -0.2428  0.3627 -0.1920
16633TIP3    H171314   1.734   2.243  15.130  1.6313 -0.1275  2.5822
16633TIP3    H271315   1.792   2.120  15.064  0.7782  0.1772  1.2108
16634TIP3   OH271316   4.181   4.976  15.073 -0.2447 -0.9423  0.7519
16634TIP3    H171317   4.127   4.901  15.050 -1.0659 -1.2306  3.3483
16634TIP3    H271318   4.221   4.953  15.157 -1.8279  2.0527  2.5125
16635TIP3   OH271319   1.271   4.502   3.125  0.0963  0.4109 -0.8430
16635TIP3    H171320   1.275   4.591   3.161 -0.1108 -0.0232  0.2882
16635TIP3    H271321   1.361   4.469   3.132 -0.1596 -0.0728  0.3519
16636TIP3   OH271322   4.135   2.706   0.676 -0.4696 -0.2049 -0.4182
16636TIP3    H171323   4.043   2.730   0.669 -0.4932  0.5718  1.8381
16636TIP3    H271324   4.169   2.760   0.748  1.2377 -1.9440  0.1741
16637TIP3   OH271325   6.426   0.739  13.324 -0.2926  0.2728  0.4791
16637TIP3    H171326   6.394   0.799  13.391 -1.2459 -0.0754  0.3485
16637TIP3    H271327   6.351   0.684  13.304  0.1701 -0.0426 -0.4166
16638TIP3   OH271328   4.769   1.869   1.506  0.4192 -0.4030  0.0637
16638TIP3    H171329   4.767   1.937   1.574 -1.2793  0.1979 -0.5385
16638TIP3    H271330   4.835   1.899   1.444  0.7018 -0.0427  0.5302
16639TIP3   OH271331   1.497   3.783   1.514  0.2768  0.4548 -0.2543
16639TIP3    H171332   1.475   3.706   1.567  1.7105  1.2933  1.6712
16639TIP3    H271333   1.413   3.827   1.502 -0.1736  0.0107  0.9844
16640TIP3   OH271334   0.690   0.756  15.521 -0.1932 -0.3168  0.5531
16640TIP3    H171335   0.758   0.715  15.468 -2.3069 -1.1355 -1.6783
16640TIP3    H271336   0.668   0.690  15.587 -0.5165 -1.0735 -0.2858
16641TIP3   OH271337   3.288   1.888   2.301 -0.0067 -0.3234 -0.3024
16641TIP3    H171338   3.241   1.882   2.217 -1.4898  1.5923  0.3149
16641TIP3    H271339   3.355   1.955   2.287 -0.6938  0.4885  0.1999
16642TIP3   OH271340   1.704   6.616   6.091  0.3077  0.2083 -0.2991
16642TIP3    H171341   1.616   6.610   6.053 -0.0501  1.6183  0.2363
16642TIP3    H271342   1.733   6.705   6.070  1.7452 -0.3384 -0.7311
16643TIP3   OH271343   3.354   2.324  16.812 -0.0941 -0.3403 -0.2334
16643TIP3    H171344   3.409   2.402  16.821 -1.3721  0.6200 -0.5417
16643TIP3    H271345   3.363   2.298  16.720 -2.0113  1.2780 -0.9378
16644TIP3   OH271346   5.274   2.223  12.432 -0.2853 -0.0284  0.3872
16644TIP3    H171347   5.241   2.270  12.356 -1.9059 -1.7679 -0.0634
16644TIP3    H271348   5.233   2.136  12.426  2.2581 -1.4008  1.3451
16645TIP3   OH271349   6.073   0.079   2.162  0.2865 -0.0113 -0.1020
16645TIP3    H171350   6.017   0.006   2.188  0.0463  0.5929  1.1739
16645TIP3    H271351   6.160   0.040   2.153 -0.0807 -0.7052 -0.8055
16646TIP3   OH271352   6.581   3.788  15.067 -0.3974  0.4932  0.0774
16646TIP3    H171353   6.493   3.753  15.049 -0.8449  1.7070 -0.1780
16646TIP3    H271354   6.567   3.853  15.136  0.4866 -0.1169  0.8559
16647TIP3   OH271355   0.540   6.063  15.447 -0.2367  0.1712  0.0904
16647TIP3    H171356   0.485   6.030  15.377 -1.2345 -0.3960  1.1011
16647TIP3    H271357   0.496   6.035  15.527 -0.1036  2.2990  0.9878
16648TIP3   OH271358   6.715   4.696  15.052 -0.3656  0.6283  0.0844
16648TIP3    H171359   6.680   4.772  15.005  0.5495 -0.2061 -2.0722
16648TIP3    H271360   6.754   4.641  14.984  1.2420 -0.5859  1.8643
16649TIP3   OH271361   5.991   4.378   2.377  0.1545  0.3585 -0.3028
16649TIP3    H171362   6.051   4.397   2.305 -0.5861 -1.2276 -1.4023
16649TIP3    H271363   6.021   4.434   2.448  1.5212  1.2650 -1.5282
16650TIP3   OH271364   5.961   4.548   0.703 -0.1143 -0.7771 -0.5248
16650TIP3    H171365   5.882   4.544   0.757  0.6859 -0.0246  0.7597
16650TIP3    H271366   5.950   4.627   0.650  0.3589  0.1122  0.6578
16651TIP3   OH271367   6.623   3.056  14.615  0.1690 -0.4910 -0.2240
16651TIP3    H171368   6.569   3.133  14.633 -0.0548 -1.0490  1.6735
16651TIP3    H271369   6.702   3.070  14.667  0.6692 -0.9724 -0.8441
16652TIP3   OH271370   2.613   5.097   2.522 -0.2279  1.1519  0.0677
16652TIP3    H171371   2.558   5.174   2.506 -0.5952  0.8494 -0.1226
16652TIP3    H271372   2.653   5.078   2.436  0.4555  1.5828  0.2792
16653TIP3   OH271373   5.137   4.490  15.133  0.3476  0.2171  0.2554
16653TIP3    H171374   5.109   4.564  15.080 -0.6038 -1.1481 -1.2341
16653TIP3    H271375   5.055   4.451  15.166  0.8467  0.0403  1.3574
16654TIP3   OH271376   2.752   3.312  13.720 -0.3443 -0.3045  0.0165
16654TIP3    H171377   2.839   3.290  13.686  0.4545  1.3778  0.8508
16654TIP3    H271378   2.767   3.329  13.813 -1.6667 -0.4087  0.2641
16655TIP3   OH271379   5.626   4.180  13.768  0.1167  0.4415 -0.1145
16655TIP3    H171380   5.605   4.218  13.682  0.1019  1.5403  0.3530
16655TIP3    H271381   5.545   4.188  13.818  0.1299 -0.1816  0.0149
16656TIP3   OH271382   2.596   4.949   4.813 -0.4273 -0.3661 -0.0470
16656TIP3    H171383   2.666   4.893   4.780 -0.2347  0.0908 -0.4132
16656TIP3    H271384   2.518   4.893   4.809 -0.0448 -0.9559  0.6068
16657TIP3   OH271385   3.684   2.963  15.312  0.3300 -0.2832 -0.3855
16657TIP3    H171386   3.638   2.913  15.379  0.1033  0.6153  0.1473
16657TIP3    H271387   3.771   2.924  15.308  0.2525 -0.5248  0.2343
16658TIP3   OH271388   3.875   4.284   2.643 -0.1925  0.3428  0.8324
16658TIP3    H171389   3.828   4.221   2.588  0.0921  0.2666  0.6764
16658TIP3    H271390   3.911   4.348   2.581  0.1469  0.2447  0.9229
16659TIP3   OH271391   3.272   0.782   5.758  0.2715  0.5357 -0.2557
16659TIP3    H171392   3.217   0.705   5.770  0.1374  0.2987 -2.0880
16659TIP3    H271393   3.343   0.771   5.821 -0.9211  0.0690  1.0617
16660TIP3   OH271394   0.998   3.201   0.651 -0.1144  0.0488 -0.1457
16660TIP3    H171395   1.035   3.171   0.734  1.2502  0.2609 -0.6415
16660TIP3    H271396   1.009   3.127   0.591 -1.3251 -0.1944 -0.0847
16661TIP3   OH271397   5.069   4.534   0.811 -0.1494  0.3844  0.4129
16661TIP3    H171398   4.993   4.547   0.754  1.6764  3.9211 -1.6031
16661TIP3    H271399   5.143   4.566   0.759  2.6740 -2.0599  2.5782
16662TIP3   OH271400   0.951   0.576   1.180 -0.2884  0.6721 -0.5813
16662TIP3    H171401   0.978   0.665   1.157  0.9501 -0.0195 -2.0042
16662TIP3    H271402   0.868   0.563   1.135  0.3613  0.5527 -1.7736
16663TIP3   OH271403   6.066   3.817   4.482  0.1283 -0.6177 -0.2198
16663TIP3    H171404   6.148   3.853   4.446  0.2989  3.3524  3.2941
16663TIP3    H271405   6.001   3.835   4.414  1.4883 -0.0767 -1.4489
16664TIP3   OH271406   5.649   4.081   0.012  0.5683 -0.1772 -0.0847
16664TIP3    H171407   5.674   4.154   0.069 -0.5375 -0.7430  1.1846
16664TIP3    H271408   5.663   4.114  -0.077 -2.5971  2.7359  0.2909
16665TIP3   OH271409   5.491   0.540  13.090  0.6803 -0.5535 -0.6427
16665TIP3    H171410   5.511   0.634  13.082  0.5767 -0.5568 -0.9356
16665TIP3    H271411   5.537   0.513  13.170 -1.4187  0.3117  0.9428
16666TIP3   OH271412   1.561   1.901   6.124  0.0212  0.0362 -0.7266
16666TIP3    H171413   1.510   1.851   6.188  2.8093 -2.2953 -0.0902
16666TIP3    H271414   1.633   1.939   6.176  1.2428 -0.2564 -2.1469
16667TIP3   OH271415   1.537   1.671  11.445  0.3718  0.3134  0.6021
16667TIP3    H171416   1.611   1.677  11.384  0.9681 -0.3375  1.2350
16667TIP3    H271417   1.488   1.594  11.416  0.2455  0.4314  0.5037
16668TIP3   OH271418   2.073   3.558  15.916  0.1696  0.0852  0.3593
16668TIP3    H171419   2.124   3.626  15.960  0.1694  0.6502 -0.5018
16668TIP3    H271420   1.989   3.557  15.962  0.5844 -0.1512  1.1303
16669TIP3   OH271421   5.619   1.288  16.532  0.3736 -0.0204 -0.0773
16669TIP3    H171422   5.700   1.299  16.581 -0.7215  1.1722  1.5674
16669TIP3    H271423   5.602   1.193  16.534  1.9787 -0.3649 -0.9646
16670TIP3   OH271424   4.578   2.495  12.296 -0.1613 -0.1940  0.2615
16670TIP3    H171425   4.496   2.524  12.255 -0.8839 -1.3510  0.8475
16670TIP3    H271426   4.636   2.571  12.288 -1.5225  0.9249  0.5140
16671TIP3   OH271427   1.100   2.538   0.530 -0.3616  0.3376 -0.2404
16671TIP3    H171428   1.169   2.497   0.477 -0.9105  0.6777 -1.2302
16671TIP3    H271429   1.063   2.465   0.580 -2.3993 -0.7909 -3.1181
16672TIP3   OH271430   3.074   1.430   4.074 -0.6126  0.1157 -0.5818
16672TIP3    H171431   3.008   1.458   4.011 -0.5937  0.2716 -0.5322
16672TIP3    H271432   3.025   1.382   4.141 -0.8282  1.1682  0.0310
16673TIP3   OH271433   5.514   2.666   1.375  0.5417  0.1223 -0.0920
16673TIP3    H171434   5.515   2.581   1.331 -0.2029 -0.3235  0.7289
16673TIP3    H271435   5.433   2.665   1.426  2.7276 -0.6076  3.7100
16674TIP3   OH271436   5.285   2.703   0.658  0.5121 -0.1287  0.0759
16674TIP3    H171437   5.364   2.736   0.700  0.9353 -0.0969 -0.7453
16674TIP3    H271438   5.263   2.769   0.593 -0.7536  0.3510  0.9456
16675TIP3   OH271439   4.400   4.754   3.988  0.4601  0.0949 -0.0892
16675TIP3    H171440   4.481   4.797   4.015 -0.6184  1.0838  1.7585
16675TIP3    H271441   4.366   4.809   3.917  0.2560  1.0366  0.7167
16676TIP3   OH271442   1.119   4.045  13.794 -0.6720 -0.5177 -0.0885
16676TIP3    H171443   1.141   4.097  13.872 -1.5873 -0.8936  0.4346
16676TIP3    H271444   1.071   3.970  13.828 -1.7973 -0.2814 -1.0804
16677TIP3   OH271445   1.351   1.041  15.787  0.0377  0.0834  0.0890
16677TIP3    H171446   1.334   0.956  15.828  0.0409  0.3972  0.7494
16677TIP3    H271447   1.268   1.066  15.748 -0.2345  0.2215  0.7352
16678TIP3   OH271448   6.108   3.233   5.199  0.1773 -0.4826 -0.3841
16678TIP3    H171449   6.037   3.173   5.223  1.0436 -1.7030 -0.7862
16678TIP3    H271450   6.065   3.304   5.152 -0.6502 -1.7924 -1.6658
16679TIP3   OH271451   0.656   3.956  15.504  0.4342  0.2128 -0.2943
16679TIP3    H171452   0.700   4.024  15.452 -0.8800  0.7188 -0.8183
16679TIP3    H271453   0.575   3.998  15.533 -0.3955 -1.1104 -0.6002
16680TIP3   OH271454   4.892   5.642  11.974 -0.0852  0.4946 -0.4316
16680TIP3    H171455   4.879   5.633  12.068 -0.3391  0.2404 -0.4887
16680TIP3    H271456   4.919   5.733  11.962 -1.6232  1.0105 -0.2683
16681TIP3   OH271457   4.888   1.287  12.651  0.0960 -0.4404 -0.5485
16681TIP3    H171458   4.824   1.353  12.677  0.8203  0.3315 -0.6355
16681TIP3    H271459   4.862   1.208  12.697  1.1921  0.7790  2.4814
16682TIP3   OH271460   4.279   0.047  17.332 -0.2707 -0.3576 -0.6973
16682TIP3    H171461   4.333   0.061  17.255 -0.0863  1.5108 -0.2881
16682TIP3    H271462   4.247   0.135  17.355 -0.9422 -0.9711  0.8956
16683TIP3   OH271463   1.758   6.489   0.561 -0.0123  0.3596 -0.0627
16683TIP3    H171464   1.664   6.506   0.559  0.2520  2.0630  0.3162
16683TIP3    H271465   1.799   6.576   0.559  1.5420 -0.3173  0.2345
16684TIP3   OH271466   4.448   5.078  11.072  0.1363 -0.0469  0.2320
16684TIP3    H171467   4.423   4.993  11.034  0.3950 -0.7673  1.6202
16684TIP3    H271468   4.366   5.128  11.075 -0.2501 -0.6837  0.4718
16685TIP3   OH271469   5.949   2.147  13.434  0.0475  0.1980  0.2721
16685TIP3    H171470   5.873   2.090  13.423  0.5211 -0.4218  0.1735
16685TIP3    H271471   5.912   2.231  13.461 -0.7159  0.0846 -0.4014
16686TIP3   OH271472   0.178   5.502  13.995 -0.3458 -0.3361 -0.1768
16686TIP3    H171473   0.228   5.422  13.979 -1.5511 -0.6794 -2.8589
16686TIP3    H271474   0.086   5.474  13.989 -0.8062  1.0260  0.2018
16687TIP3   OH271475   2.965   3.950   3.874 -0.2848 -1.0989  0.1568
16687TIP3    H171476   2.884   3.933   3.826  0.0616  0.7865 -1.2288
16687TIP3    H271477   2.939   4.006   3.947 -0.2146 -0.0172 -0.6120
16688TIP3   OH271478   3.175   1.054  12.884 -0.1197  0.1779  0.0245
16688TIP3    H171479   3.226   0.999  12.944  0.7786 -0.8129 -1.5860
16688TIP3    H271480   3.109   1.094  12.940  0.0067 -1.5235  1.5026
16689TIP3   OH271481   2.501   0.559  11.936  0.2099  0.4202 -0.1554
16689TIP3    H171482   2.423   0.611  11.954  0.5653  1.5234 -1.6711
16689TIP3    H271483   2.545   0.605  11.865  2.2825 -0.1430  0.6806
16690TIP3   OH271484   3.029   3.290   4.022  0.3500  0.7255  0.2213
16690TIP3    H171485   2.960   3.304   4.087  1.2728 -0.6130  1.5517
16690TIP3    H271486   3.087   3.226   4.062  1.4784  0.5667 -1.5568
16691TIP3   OH271487   4.019   5.699  12.290 -0.0779 -0.5001  0.1080
16691TIP3    H171488   4.113   5.696  12.305  0.5187 -0.1347 -2.9904
16691TIP3    H271489   3.998   5.791  12.277  0.0963 -0.8466 -3.7150
16692TIP3   OH271490   6.449   6.276   6.022  0.5681  0.7337 -0.7367
16692TIP3    H171491   6.460   6.264   6.117  1.2803 -3.3002 -1.1210
16692TIP3    H271492   6.529   6.320   5.994  2.1383 -1.3402  0.1981
16693TIP3   OH271493   0.518   6.268   6.244  0.0873  0.1316  1.1512
16693TIP3    H171494   0.567   6.346   6.219  0.4779  0.0655  1.6820
16693TIP3    H271495   0.546   6.200   6.183 -0.6647  0.5339  0.3326
16694TIP3   OH271496   3.980   0.443   3.648  0.2607 -0.4275 -0.4606
16694TIP3    H171497   3.985   0.498   3.570  0.0455  0.1611 -0.0760
16694TIP3    H271498   4.005   0.502   3.720  1.9770 -1.3694 -0.2505
16695TIP3   OH271499   0.387   6.675   3.263  0.4948  0.1894 -0.8083
16695TIP3    H171500   0.474   6.686   3.301 -0.7534  0.3782  2.3995
16695TIP3    H271501   0.375   6.751   3.207  1.6561  1.3004  0.3785
16696TIP3   OH271502   3.955   0.258  16.531 -0.0022  0.3035 -0.4192
16696TIP3    H171503   4.001   0.302  16.603 -0.1604 -0.8230  0.4105
16696TIP3    H271504   3.876   0.309  16.517 -0.5635 -0.1159  1.0421
16697TIP3   OH271505   5.957   1.650   2.863  0.2923 -0.3050  0.0426
16697TIP3    H171506   5.996   1.736   2.874 -1.2836  0.3385  1.0468
16697TIP3    H271507   6.021   1.600   2.812  1.6659  1.1383  0.2865
16698TIP3   OH271508   2.587   1.244   6.445 -0.2429  0.3515 -0.2832
16698TIP3    H171509   2.557   1.222   6.533  0.5327 -0.3504 -0.1800
16698TIP3    H271510   2.676   1.209   6.441  0.5639  2.3107 -0.5859
16699TIP3   OH271511   6.133   2.641  14.300 -0.3195  0.1813  0.0323
16699TIP3    H171512   6.151   2.686  14.218 -1.2863  0.2569 -0.1581
16699TIP3    H271513   6.192   2.682  14.364  0.2140  0.3406 -0.5527
16700TIP3   OH271514   1.442   3.228   1.164 -0.0480 -0.4071  0.2338
16700TIP3    H171515   1.366   3.215   1.108 -0.8734 -0.5406  1.3310
16700TIP3    H271516   1.458   3.142   1.203 -0.0474 -0.1282  0.8639
16701TIP3   OH271517   3.621   2.202  15.397 -0.1443  0.0248 -0.1015
16701TIP3    H171518   3.561   2.242  15.460 -0.6254 -1.5380  0.4638
16701TIP3    H271519   3.634   2.113  15.428  0.3075 -0.5197 -1.7312
16702TIP3   OH271520   3.170   3.439   0.502  0.0631 -0.4874  0.0925
16702TIP3    H171521   3.241   3.453   0.564 -0.9498 -0.8867  1.3710
16702TIP3    H271522   3.092   3.473   0.546 -0.5450  0.0053 -1.3063
16703TIP3   OH271523   0.262   0.878   0.286 -0.7091 -0.9947 -0.1190
16703TIP3    H171524   0.280   0.942   0.217 -1.2357 -3.4344 -2.7029
16703TIP3    H271525   0.174   0.900   0.316 -0.1491  0.6203  0.4850
16704TIP3   OH271526   0.672   5.854   2.154 -0.1368  0.1892  0.6850
16704TIP3    H171527   0.700   5.852   2.246 -0.7816 -0.5398  0.8739
16704TIP3    H271528   0.577   5.867   2.157 -0.3642 -1.2078  0.1761
16705TIP3   OH271529   6.013   0.264  12.311 -0.0069  0.6065 -0.6353
16705TIP3    H171530   6.036   0.331  12.376 -1.0204  0.3127  0.0563
16705TIP3    H271531   6.055   0.185  12.343  0.4504  0.7087 -0.9719
16706TIP3   OH271532   4.427   1.071  13.738 -0.6193  0.1089 -0.0423
16706TIP3    H171533   4.460   0.991  13.698  0.1225  0.1815  0.3983
16706TIP3    H271534   4.451   1.141  13.678 -0.2711  0.1241  0.1156
16707TIP3   OH271535   5.720   1.269   4.376  0.1764  0.1005  0.1497
16707TIP3    H171536   5.663   1.195   4.356  1.1788 -0.5967 -0.1875
16707TIP3    H271537   5.760   1.293   4.292  0.1275  0.8080  0.3185
16708TIP3   OH271538   5.861   2.757  14.014  0.5627 -0.1363 -0.3459
16708TIP3    H171539   5.855   2.841  14.061 -1.8390  0.2321 -1.2009
16708TIP3    H271540   5.855   2.691  14.083 -2.7721  0.4015  0.0405
16709TIP3   OH271541   4.541   3.731  12.405  0.3792 -0.4555  0.0372
16709TIP3    H171542   4.453   3.721  12.369  0.2630 -1.3293  0.5291
16709TIP3    H271543   4.540   3.679  12.485  0.7791  1.0551  1.0575
16710TIP3   OH271544   1.673   4.668  13.869 -0.4592  0.1892  0.3738
16710TIP3    H171545   1.753   4.716  13.847  1.2026 -2.0895  1.0366
16710TIP3    H271546   1.664   4.602  13.801 -2.1424  0.7529  0.0037
16711TIP3   OH271547   1.514   4.397  10.629  0.2644  0.3833  0.1632
16711TIP3    H171548   1.494   4.390  10.722  0.3887  0.1974  0.1763
16711TIP3    H271549   1.452   4.337  10.587  1.5683 -1.1485  0.3054
16712TIP3   OH271550   3.365   5.553   0.874  0.0638  0.1063 -0.3848
16712TIP3    H171551   3.407   5.506   0.802 -1.9477 -0.6270 -1.1675
16712TIP3    H271552   3.394   5.508   0.953  0.3436 -0.6959 -0.9308
16713TIP3   OH271553   3.491   6.017  12.314  0.0738  0.4960  0.1754
16713TIP3    H171554   3.514   6.110  12.317  2.7138 -0.0957  0.7331
16713TIP3    H271555   3.546   5.977  12.381  0.4051 -1.7364 -1.3261
16714TIP3   OH271556   2.649   4.676   0.009 -0.1519 -0.0375  0.3824
16714TIP3    H171557   2.592   4.656   0.083  2.1687 -1.1528  1.9850
16714TIP3    H271558   2.731   4.630   0.028  0.6493 -0.1363 -2.7795
16715TIP3   OH271559   0.489   3.249   5.122  0.0123 -0.0203  0.1993
16715TIP3    H171560   0.530   3.272   5.039 -2.1624  0.3616 -0.8259
16715TIP3    H271561   0.407   3.298   5.123  0.2325  0.4665  2.8584
16716TIP3   OH271562   5.088   0.095  12.351  0.0083  0.1022  0.4744
16716TIP3    H171563   5.174   0.054  12.355  0.2821  0.7324  1.3474
16716TIP3    H271564   5.029   0.032  12.391 -0.0067 -0.4660 -0.4108
16717TIP3   OH271565   1.333   3.240   0.501 -0.1244 -0.4951 -0.1378
16717TIP3    H171566   1.389   3.281   0.435  1.6771 -0.1290  1.5456
16717TIP3    H271567   1.389   3.177   0.545 -1.1591 -0.4734  1.2876
16718TIP3   OH271568   2.888   0.935   2.352  0.0333 -0.0147 -0.2803
16718TIP3    H171569   2.821   0.939   2.420  1.0131  0.4621  0.6833
16718TIP3    H271570   2.899   0.842   2.335  0.3102 -0.1752  0.7512
16719TIP3   OH271571   4.451   4.918  15.927 -0.7276 -0.2063 -0.1217
16719TIP3    H171572   4.513   4.899  15.997 -0.0686 -0.6356 -0.8015
16719TIP3    H271573   4.395   4.841  15.922 -1.0613  0.0127  0.2280
16720TIP3   OH271574   4.059   4.981   4.273 -0.0876  0.4174  0.3486
16720TIP3    H171575   3.971   4.948   4.292 -0.8456  0.0401 -3.1152
16720TIP3    H271576   4.049   5.076   4.269 -1.0736  0.2925 -2.5051
16721TIP3   OH271577   5.320   4.183   3.492  0.5001  0.1141 -0.1414
16721TIP3    H171578   5.360   4.180   3.579 -0.7514  0.0223  0.4700
16721TIP3    H271579   5.265   4.261   3.493  1.9886  1.2266 -1.5911
16722TIP3   OH271580   0.256   3.214  13.114  0.0664  0.0204 -0.1640
16722TIP3    H171581   0.218   3.226  13.027 -0.3923  1.5935  0.2361
16722TIP3    H271582   0.346   3.247  13.106 -0.2270  0.9082  0.1558
16723TIP3   OH271583   4.865   5.668  15.883  0.5111  0.2528  0.4890
16723TIP3    H171584   4.898   5.722  15.811  1.1761 -0.8505 -0.0729
16723TIP3    H271585   4.895   5.579  15.862 -0.1197 -0.2590  1.6323
16724TIP3   OH271586   6.706   1.801   4.464  0.0176 -0.0990  0.8191
16724TIP3    H171587   6.745   1.775   4.380 -0.7893  0.9352  0.1046
16724TIP3    H271588   6.773   1.853   4.506  0.2810 -0.2952  0.6479
16725TIP3   OH271589   4.598   6.118  14.384 -0.0887  0.9222  0.1996
16725TIP3    H171590   4.580   6.034  14.425 -0.1918  0.8490  0.0058
16725TIP3    H271591   4.601   6.099  14.291  3.4322  0.4730  0.2933
16726TIP3   OH271592   4.527   4.294  14.588  0.3321  0.2091  0.5652
16726TIP3    H171593   4.504   4.271  14.678 -0.1617  1.6279  0.8242
16726TIP3    H271594   4.578   4.374  14.596  2.0154 -0.7281 -0.2998
16727TIP3   OH271595   2.779   0.163   5.782  0.4956 -0.0990 -0.8123
16727TIP3    H171596   2.765   0.068   5.784  0.5602 -0.1529  2.0924
16727TIP3    H271597   2.692   0.199   5.761 -0.5476 -0.7971  1.8598
16728TIP3   OH271598   4.038   3.894   0.026 -0.1071  0.1862 -0.2987
16728TIP3    H171599   4.074   3.916  -0.060  0.5112  0.5345  0.0433
16728TIP3    H271600   3.983   3.817   0.009 -0.4089  0.5561 -1.0917
16729TIP3   OH271601   0.496   4.322  15.016  0.1839  0.0048  0.2846
16729TIP3    H171602   0.560   4.321  15.087 -0.0435 -2.5742  0.5392
16729TIP3    H271603   0.416   4.287  15.056  0.5387 -3.2264 -1.5748
16730TIP3   OH271604   0.014   2.762   0.972  0.5202 -0.6245 -0.6449
16730TIP3    H171605  -0.001   2.674   0.938 -0.0696 -0.3135 -1.1981
16730TIP3    H271606   0.098   2.788   0.935  1.5443 -1.5911  0.8677
16731TIP3   OH271607   3.316   4.517  12.304 -0.0118  0.2470  0.3618
16731TIP3    H171608   3.395   4.505  12.251 -1.3499 -0.0222 -1.6676
16731TIP3    H271609   3.283   4.429  12.318 -0.3697  0.4088  0.5356
16732TIP3   OH271610   2.821   4.096   0.156 -0.0046  0.2197  0.8699
16732TIP3    H171611   2.729   4.077   0.174 -0.0713 -0.2089  0.1200
16732TIP3    H271612   2.818   4.160   0.085  0.2733  0.2909  0.9245
16733TIP3   OH271613   6.479   1.975  16.095  0.0694 -0.2793  0.2372
16733TIP3    H171614   6.573   1.958  16.091  0.1468  0.3110 -1.8677
16733TIP3    H271615   6.461   1.993  16.187  2.0489 -0.2086  0.6486
16734TIP3   OH271616   4.449   2.263  15.750  0.4513  0.2042  0.2585
16734TIP3    H171617   4.411   2.351  15.752  1.4556  0.6639 -0.1962
16734TIP3    H271618   4.543   2.278  15.738  0.3927 -0.9695 -2.2297
16735TIP3   OH271619   3.210   4.264  15.652  0.0237  0.1496  0.0840
16735TIP3    H171620   3.178   4.206  15.583 -1.0596  0.3239  0.4201
16735TIP3    H271621   3.156   4.342  15.645 -1.8446 -0.7473  2.6096
16736TIP3   OH271622   2.645   2.875   1.478  0.0160  0.7012 -0.1584
16736TIP3    H171623   2.737   2.897   1.462 -0.0045  1.3957  0.6191
16736TIP3    H271624   2.643   2.779   1.479  0.5894  0.6705 -0.9484
16737TIP3   OH271625   5.804   0.193  11.425 -0.0799  0.2051 -0.1083
16737TIP3    H171626   5.723   0.243  11.441 -0.1118  0.2390 -0.3793
16737TIP3    H271627   5.849   0.242  11.356 -1.7037 -1.9483 -2.8744
16738TIP3   OH271628   2.355   2.170  17.061 -0.4491  0.5645 -0.2866
16738TIP3    H171629   2.289   2.188  17.129 -1.3982 -1.1372 -0.6945
16738TIP3    H271630   2.304   2.146  16.984  0.6410  1.4972 -1.3488
16739TIP3   OH271631   5.426   2.458  13.055 -0.3153  0.2423 -0.1400
16739TIP3    H171632   5.494   2.458  12.988  0.1304 -0.0207  0.3082
16739TIP3    H271633   5.446   2.534  13.109  0.5842 -0.7266  0.9440
16740TIP3   OH271634   0.767   0.343   0.145  0.2845 -0.1401  0.0863
16740TIP3    H171635   0.690   0.379   0.100  0.3137 -1.0602 -0.7125
16740TIP3    H271636   0.730   0.286   0.213  0.2368  1.3494  1.3855
16741TIP3   OH271637   2.936   0.951  13.021 -0.2774  0.0270 -0.0993
16741TIP3    H171638   2.909   0.904  12.941  1.2828  0.1454 -0.7224
16741TIP3    H271639   2.990   0.888  13.068 -0.5582  0.2277  0.4994
16742TIP3   OH271640   4.808   4.857  14.103  0.3947 -0.4513  0.0364
16742TIP3    H171641   4.884   4.866  14.161  1.3299 -0.8669 -1.0848
16742TIP3    H271642   4.763   4.779  14.135 -1.2389  1.3504  2.5119
16743TIP3   OH271643   2.612   4.187   5.639 -0.1662 -0.0000  0.5791
16743TIP3    H171644   2.617   4.127   5.714  0.9809 -0.2541  0.3194
16743TIP3    H271645   2.644   4.135   5.565 -2.8820 -0.3167 -0.4722
16744TIP3   OH271646   1.489   0.842   1.240 -0.1956 -0.0889 -0.2492
16744TIP3    H171647   1.474   0.863   1.148  1.0688 -2.6280 -1.1135
16744TIP3    H271648   1.569   0.889   1.263 -0.6559  0.7598 -0.3188
16745TIP3   OH271649   0.070   0.090   2.724 -0.1241  0.2933  0.2833
16745TIP3    H171650   0.155   0.056   2.697 -0.4786 -1.2454  1.0095
16745TIP3    H271651   0.012   0.073   2.650  0.5829  3.3032 -1.1258
16746TIP3   OH271652   6.186   1.274   1.560 -0.7891 -0.0504 -0.2128
16746TIP3    H171653   6.260   1.259   1.619 -0.6139  0.5826 -0.2667
16746TIP3    H271654   6.210   1.230   1.479 -0.2520  0.5736 -0.3959
16747TIP3   OH271655   2.715   6.427  15.300  0.2299 -0.1584 -0.0921
16747TIP3    H171656   2.696   6.379  15.219  1.0440 -0.5771 -0.0480
16747TIP3    H271657   2.758   6.362  15.356  0.0032  0.2295  0.5405
16748TIP3   OH271658   0.202   1.008   5.555  0.6646 -0.0917 -0.5605
16748TIP3    H171659   0.122   1.060   5.547 -0.5149 -1.6978  0.2309
16748TIP3    H271660   0.267   1.069   5.589 -0.4084  1.0796 -0.5352
16749TIP3   OH271661   1.424   2.710   0.293  0.2712  0.7200  0.0300
16749TIP3    H171662   1.360   2.749   0.352  0.2574 -0.7527  1.0232
16749TIP3    H271663   1.506   2.709   0.343  0.6910  1.0767 -0.6320
16750TIP3   OH271664   1.861   2.333   4.082 -0.0824 -0.2760  0.4019
16750TIP3    H171665   1.811   2.347   4.002 -0.7047 -0.6720  0.7101
16750TIP3    H271666   1.905   2.416   4.099  0.6044 -0.3968 -0.7168
16751TIP3   OH271667   6.152   3.847  14.630  0.0896 -0.3899  0.5062
16751TIP3    H171668   6.139   3.900  14.709  1.1147 -0.0229  0.4451
16751TIP3    H271669   6.150   3.757  14.662 -1.3650 -0.3219  0.6556
16752TIP3   OH271670   0.645   0.095  12.197 -0.2325  0.0766 -0.2102
16752TIP3    H171671   0.723   0.093  12.141 -0.2450 -0.9136 -0.2027
16752TIP3    H271672   0.675   0.134  12.279 -0.3927  2.3116 -1.1326
16753TIP3   OH271673   1.560   1.447  14.726  0.1327  0.1629 -0.0381
16753TIP3    H171674   1.467   1.428  14.718  0.1264  0.3249 -0.3586
16753TIP3    H271675   1.589   1.464  14.636  0.1845  1.4482  0.2136
16754TIP3   OH271676   0.541   3.213   4.230  0.0293 -0.3241  0.2557
16754TIP3    H171677   0.539   3.241   4.138 -1.2961  1.2275  0.7032
16754TIP3    H271678   0.622   3.252   4.264  0.5400 -0.9296 -0.2560
16755TIP3   OH271679   5.619   1.487   4.092  0.1610  0.3800  0.2899
16755TIP3    H171680   5.555   1.416   4.095  1.5611 -0.9376  0.0066
16755TIP3    H271681   5.584   1.548   4.027 -1.5777  0.4952  1.2723
16756TIP3   OH271682   4.714   3.906  11.472 -0.3803  0.6574 -0.0330
16756TIP3    H171683   4.685   3.884  11.560  0.0351  0.7458  0.1254
16756TIP3    H271684   4.707   4.001  11.467  0.0941  0.6962  0.0773
16757TIP3   OH271685   5.869   0.913  17.074  0.5126  0.6256  0.2392
16757TIP3    H171686   5.961   0.927  17.097  0.7275  2.0841 -1.2713
16757TIP3    H271687   5.823   0.986  17.116  0.0378 -0.0999  0.9849
16758TIP3   OH271688   3.371   0.033   1.612  0.9682  0.5666  0.2482
16758TIP3    H171689   3.394  -0.050   1.572  2.6280  1.5794 -1.0406
16758TIP3    H271690   3.278   0.025   1.634  0.7978 -1.1689 -0.9391
16759TIP3   OH271691   4.870   0.451  15.804  0.1700 -0.5256 -0.5541
16759TIP3    H171692   4.964   0.441  15.816  0.0924  0.0685  0.7563
16759TIP3    H271693   4.860   0.483  15.714  1.3447  0.8921 -0.2303
16760TIP3   OH271694   3.189   0.521  16.179 -0.1993 -0.8842 -0.3158
16760TIP3    H171695   3.143   0.494  16.100  1.2002 -1.1435 -1.0798
16760TIP3    H271696   3.242   0.596  16.152 -0.9783  0.1195  0.8111
16761TIP3   OH271697   3.241   0.397   6.209 -0.2629  0.5545  0.1611
16761TIP3    H171698   3.156   0.402   6.253  0.0041 -0.8449  0.8747
16761TIP3    H271699   3.305   0.393   6.280  0.3951  1.2370 -0.3728
16762TIP3   OH271700   6.514   1.686   3.988 -0.0465  0.4640 -0.4568
16762TIP3    H171701   6.596   1.735   3.981  0.2890 -0.1018 -0.5252
16762TIP3    H271702   6.455   1.745   4.036 -0.1545  1.5794 -1.8798
16763TIP3   OH271703   4.805   5.213   2.582  0.1416 -0.2722  0.3377
16763TIP3    H171704   4.869   5.251   2.642 -0.8813  0.0919  1.2141
16763TIP3    H271705   4.791   5.281   2.516 -0.9120  0.5025  1.3277
16764TIP3   OH271706   3.117   2.707   5.685 -0.6432  0.7575 -0.5661
16764TIP3    H171707   3.164   2.626   5.707 -0.7591  0.4826 -1.3147
16764TIP3    H271708   3.101   2.700   5.591 -1.7216  1.0936 -0.4138
16765TIP3   OH271709   5.718   6.080   2.527  0.6692 -0.2650  0.7013
16765TIP3    H171710   5.771   6.008   2.494  0.4085  0.0523 -0.4476
16765TIP3    H271711   5.639   6.037   2.562  0.3375 -0.5224 -0.3296
16766TIP3   OH271712   1.749   3.863   1.637  0.3315 -0.4269 -0.5074
16766TIP3    H171713   1.656   3.857   1.615  0.5182 -0.2260 -1.3915
16766TIP3    H271714   1.795   3.846   1.554  1.0422  1.7719 -0.6416
16767TIP3   OH271715   2.729   1.332   3.244 -0.1646  0.6488  0.7666
16767TIP3    H171716   2.800   1.324   3.180  0.3608 -0.2072  1.4217
16767TIP3    H271717   2.774   1.333   3.329 -0.9203  0.1260  1.1871
16768TIP3   OH271718   0.546   5.061   4.809 -0.5578  0.5284  0.8530
16768TIP3    H171719   0.562   5.062   4.714  0.6141 -0.9601  0.9892
16768TIP3    H271720   0.611   5.121   4.845  0.7251 -0.8059  0.8778
16769TIP3   OH271721   4.501   2.922  11.326  0.2307 -0.0761 -0.0666
16769TIP3    H171722   4.438   2.865  11.284 -1.6222 -0.7623  3.3242
16769TIP3    H271723   4.575   2.865  11.348 -0.1174 -0.4048  0.2608
16770TIP3   OH271724   1.746   1.896   4.823 -0.1213 -0.4178 -0.6029
16770TIP3    H171725   1.778   1.960   4.886  0.2863 -0.6885 -0.5330
16770TIP3    H271726   1.744   1.943   4.739  1.8056 -0.7688 -0.8989
16771TIP3   OH271727   1.596   0.666   0.982  0.6979 -0.3095 -0.0431
16771TIP3    H171728   1.649   0.641   1.058  2.1371 -1.6870 -1.3925
16771TIP3    H271729   1.548   0.743   1.010  0.5881 -1.2005  2.4958
16772TIP3   OH271730   1.678   4.279  12.368  0.0971 -0.0352 -0.6945
16772TIP3    H171731   1.769   4.253  12.387 -0.7241 -2.6625  0.0498
16772TIP3    H271732   1.632   4.196  12.357 -2.1831  1.2589 -1.3483
16773TIP3   OH271733   4.250   0.334   0.745  0.3230  0.2499 -0.1924
16773TIP3    H171734   4.230   0.326   0.651 -0.6126 -0.6795  0.0582
16773TIP3    H271735   4.235   0.426   0.765  0.0373  0.3568 -0.8648
16774TIP3   OH271736   0.837   2.582  13.636  0.5739  0.0287  0.4459
16774TIP3    H171737   0.751   2.564  13.597  0.1087  0.1527  1.3793
16774TIP3    H271738   0.883   2.498  13.632  0.1322 -0.2234  0.6080
16775TIP3   OH271739   3.323   1.669  13.920  0.0515 -0.2958  0.4149
16775TIP3    H171740   3.243   1.658  13.971 -0.0711  0.3849  0.3843
16775TIP3    H271741   3.295   1.714  13.840  0.6847  1.4767  1.1298
16776TIP3   OH271742   4.342   2.501  14.945  0.0735  0.0949  0.4592
16776TIP3    H171743   4.413   2.448  14.908  0.8334  1.5249 -0.2025
16776TIP3    H271744   4.264   2.447  14.934  0.5993 -0.3521 -1.4400
16777TIP3   OH271745   0.804   0.639  12.849 -0.1189  0.6242 -0.0887
16777TIP3    H171746   0.865   0.698  12.805 -0.2335  0.8575  0.0634
16777TIP3    H271747   0.859   0.586  12.906 -0.2378  2.1129  1.4857
16778TIP3   OH271748   6.230   3.861   3.399  0.6249 -0.3049  0.3233
16778TIP3    H171749   6.152   3.915   3.402 -0.3274 -1.6254  0.2743
16778TIP3    H271750   6.274   3.885   3.318 -0.7885 -0.9405 -0.6621
16779TIP3   OH271751   1.455   0.042  16.638 -0.5848  0.0206  0.5051
16779TIP3    H171752   1.422   0.008  16.555  0.4215 -0.8109  0.4230
16779TIP3    H271753   1.466  -0.036  16.693  0.0670  0.3988  0.9325
16780TIP3   OH271754   3.086   5.410  14.173  0.1824  0.3916 -0.2554
16780TIP3    H171755   3.040   5.434  14.092 -1.0841 -3.9126 -1.0734
16780TIP3    H271756   3.176   5.395  14.146 -0.3210 -1.4419 -1.0917
16781TIP3   OH271757   5.223   1.493  15.416 -0.4820  0.2258  0.3524
16781TIP3    H171758   5.308   1.487  15.458  0.5033  0.2843 -1.5413
16781TIP3    H271759   5.170   1.425  15.458  1.3759 -1.7578 -0.3304
16782TIP3   OH271760   4.638   0.737   2.291  0.2432  0.0726 -0.3232
16782TIP3    H171761   4.712   0.780   2.248 -0.0904 -0.9923 -2.0256
16782TIP3    H271762   4.646   0.645   2.269 -0.0107 -0.5459  1.8663
16783TIP3   OH271763   3.162   4.249  13.900  0.4065  0.5761  0.0095
16783TIP3    H171764   3.230   4.229  13.836  1.0136  1.4061  0.3751
16783TIP3    H271765   3.138   4.340  13.882 -1.5236 -0.0602 -0.9296
16784TIP3   OH271766   6.563   3.443  15.136 -0.2859  0.4568 -0.1504
16784TIP3    H171767   6.529   3.526  15.170  0.1838  0.1051  1.2054
16784TIP3    H271768   6.510   3.376  15.179  1.4122 -0.0577  1.2507
16785TIP3   OH271769   6.137   1.747  14.355 -0.1892 -0.0883 -0.3511
16785TIP3    H171770   6.071   1.732  14.288  0.4529 -2.2846 -0.5749
16785TIP3    H271771   6.220   1.749  14.307  0.0688  0.8933  0.1143
16786TIP3   OH271772   1.165   3.569  17.139  0.4136  0.0746  0.5363
16786TIP3    H171773   1.179   3.663  17.150  1.8515 -0.3558  3.0295
16786TIP3    H271774   1.127   3.540  17.222 -0.3094 -1.5161 -0.2999
16787TIP3   OH271775   0.803   2.535   2.435  0.2082  0.8182  0.5524
16787TIP3    H171776   0.825   2.535   2.528 -1.1540  1.3301  0.8951
16787TIP3    H271777   0.788   2.443   2.414 -0.2536  0.7756  1.0444
16788TIP3   OH271778   4.669   6.096   5.488  0.3715 -0.3415 -0.4625
16788TIP3    H171779   4.734   6.159   5.456  0.7402 -0.7291 -0.4906
16788TIP3    H271780   4.720   6.034   5.540 -0.2267  0.3232  0.9581
16789TIP3   OH271781   4.292   1.500  16.107 -0.0927 -0.4462 -0.2346
16789TIP3    H171782   4.234   1.503  16.031 -1.7798 -0.6269  1.0086
16789TIP3    H271783   4.292   1.590  16.141  0.5925 -0.3858 -0.3724
16790TIP3   OH271784   6.306   2.463   3.266  0.1831 -0.1683  0.0619
16790TIP3    H171785   6.314   2.507   3.182  2.1462  0.0434  0.2980
16790TIP3    H271786   6.291   2.534   3.329  0.9683 -0.0656  0.1464
16791TIP3   OH271787   6.755   4.872  12.643  0.0327  0.3685 -0.4192
16791TIP3    H171788   6.823   4.814  12.676  0.6709  0.7721 -0.9898
16791TIP3    H271789   6.763   4.952  12.696  0.3728  0.6206 -0.8391
16792TIP3   OH271790   0.659   2.940  13.825 -0.1987  0.1242 -0.2075
16792TIP3    H171791   0.658   2.871  13.891 -1.2696 -1.8646 -2.2042
16792TIP3    H271792   0.748   2.937  13.789 -0.6915 -1.4455 -1.4238
16793TIP3   OH271793   4.742   5.776   3.751  0.2349 -0.4029 -0.0356
16793TIP3    H171794   4.773   5.724   3.825 -0.4232 -0.2728  0.3386
16793TIP3    H271795   4.817   5.829   3.725  0.7555 -1.1525 -0.0843
16794TIP3   OH271796   1.441   4.589  16.465 -0.7994  0.3546 -0.7476
16794TIP3    H171797   1.505   4.641  16.513 -3.9435  4.2902 -0.2584
16794TIP3    H271798   1.448   4.501  16.502  3.3546  0.7819  0.0211
16795TIP3   OH271799   4.220   1.485  16.715  0.1202 -0.6898 -0.5760
16795TIP3    H171800   4.246   1.496  16.624  1.0367 -0.6317 -0.3215
16795TIP3    H271801   4.142   1.539  16.725 -0.5081 -1.3869 -1.5416
16796TIP3   OH271802   2.100   5.984  17.034  0.1146 -0.3295 -0.2791
16796TIP3    H171803   2.106   6.034  17.115 -1.3663 -0.9448  0.2416
16796TIP3    H271804   2.044   5.909  17.055 -0.8215 -0.1775 -2.0094
16797TIP3   OH271805   1.798   4.676  13.193  0.4903 -0.4329  0.7195
16797TIP3    H171806   1.838   4.593  13.219  2.9001  0.5269  0.3462
16797TIP3    H271807   1.771   4.662  13.102  0.8248 -0.8487  0.6820
16798TIP3   OH271808   0.897   6.194   2.127  0.3113  0.4748  0.6942
16798TIP3    H171809   0.920   6.101   2.120  1.0474  0.7599 -1.4237
16798TIP3    H271810   0.822   6.196   2.186 -1.0998 -1.7167 -0.8762
16799TIP3   OH271811   0.162   1.175   2.416  0.0467  0.6909  0.1006
16799TIP3    H171812   0.088   1.142   2.364  0.1428 -0.3057  0.5684
16799TIP3    H271813   0.180   1.105   2.478  0.6932  1.3851  0.7061
16800TIP3   OH271814   3.528   2.716   1.305  0.1129 -0.1577 -0.0580
16800TIP3    H171815   3.559   2.682   1.389  0.7893  0.1667 -0.1658
16800TIP3    H271816   3.544   2.810   1.310  0.7038 -0.2036 -0.7622
16801TIP3   OH271817   4.053   3.183   1.770  0.1316 -0.1677  0.3695
16801TIP3    H171818   4.104   3.239   1.827 -0.2586 -1.7899  2.4446
16801TIP3    H271819   4.117   3.142   1.712  0.7184  0.4656  0.5590
16802TIP3   OH271820   0.973   4.773   2.002 -0.5051 -0.1499 -0.4095
16802TIP3    H171821   0.956   4.819   2.084  1.5300  2.4894 -1.3251
16802TIP3    H271822   0.896   4.717   1.990 -0.7668 -0.8915  3.3777
16803TIP3   OH271823   5.086   6.353  16.681  0.1876 -0.2585 -0.2316
16803TIP3    H171824   5.002   6.369  16.722  0.4339  0.2645  0.0806
16803TIP3    H271825   5.070   6.364  16.587 -0.4651 -1.8517 -0.3397
16804TIP3   OH271826   2.425   3.879  12.689  0.0037 -0.5720  0.7160
16804TIP3    H171827   2.391   3.793  12.664  1.0013 -0.5934 -0.6640
16804TIP3    H271828   2.441   3.872  12.783 -1.9256 -1.1722  1.0594
16805TIP3   OH271829   6.655   5.823   2.935 -0.4887 -0.7467  0.0622
16805TIP3    H171830   6.654   5.749   2.995 -0.3903 -0.3614  0.5479
16805TIP3    H271831   6.563   5.837   2.911 -0.9577  0.9684  2.4912
16806TIP3   OH271832   0.400   4.764   6.272 -0.0526 -0.2845 -0.4443
16806TIP3    H171833   0.441   4.682   6.243 -1.6942 -2.2134  2.2527
16806TIP3    H271834   0.306   4.752   6.253 -0.3374  0.9673  0.0434
16807TIP3   OH271835   3.585   0.076  14.482 -0.4555 -0.2384 -0.0646
16807TIP3    H171836   3.551  -0.005  14.520  1.5528 -0.5033  1.3577
16807TIP3    H271837   3.516   0.141  14.497 -1.1184 -1.1548  0.9694
16808TIP3   OH271838   1.649   5.159   5.819 -0.1162  0.2201 -0.4281
16808TIP3    H171839   1.566   5.125   5.785 -0.3949 -0.2005  0.6391
16808TIP3    H271840   1.715   5.098   5.785 -0.5833 -1.3355  1.2702
16809TIP3   OH271841   4.003   3.016  14.243 -0.6352 -0.2616 -0.6510
16809TIP3    H171842   3.952   3.010  14.324  0.6541 -1.3538  0.1092
16809TIP3    H271843   3.945   3.062  14.183 -2.2988 -0.9197  0.3579
16810TIP3   OH271844   0.439   4.435   2.374  0.2077  0.3179  0.0577
16810TIP3    H171845   0.512   4.396   2.328  0.1786  1.4430 -0.9974
16810TIP3    H271846   0.392   4.361   2.413 -0.5711 -0.8723 -2.8762
16811TIP3   OH271847   3.160   5.817  12.278 -0.1462  0.1618  0.4455
16811TIP3    H171848   3.181   5.887  12.216 -1.7845 -0.4234 -0.8414
16811TIP3    H271849   3.071   5.837  12.307  0.1774 -0.2068  1.7690
16812TIP3   OH271850   5.666   6.094  11.318  0.5437 -0.0038  0.0733
16812TIP3    H171851   5.659   6.048  11.402 -2.6454  0.7184  0.2950
16812TIP3    H271852   5.652   6.026  11.252  0.5509 -0.1272  0.1981
16813TIP3   OH271853   1.537   5.122  14.822  0.6316  0.5764  0.2042
16813TIP3    H171854   1.534   5.123  14.918  0.9337  1.2187  0.2106
16813TIP3    H271855   1.600   5.054  14.801 -0.0975 -0.1958  0.4348
16814TIP3   OH271856   4.470   1.075   3.400  0.4899  0.6249  0.1178
16814TIP3    H171857   4.483   1.160   3.443  2.2683  0.3772  0.1698
16814TIP3    H271858   4.480   1.093   3.307 -0.3383  0.6621  0.0318
16815TIP3   OH271859   2.202   1.587   5.907 -0.3822 -0.3038 -0.0937
16815TIP3    H171860   2.127   1.535   5.935 -0.5963  0.0686  0.0253
16815TIP3    H271861   2.180   1.616   5.819 -0.7531  0.5112  0.2597
16816TIP3   OH271862   6.347   3.621  13.508 -0.4335  0.5091 -0.2494
16816TIP3    H171863   6.357   3.535  13.549 -0.2733  1.2656  1.3533
16816TIP3    H271864   6.331   3.601  13.415 -0.0740 -1.2268  0.0240
16817TIP3   OH271865   1.926   4.967  15.165 -0.6779 -0.0894  0.3645
16817TIP3    H171866   1.954   4.985  15.256 -0.9504  0.4355  0.3456
16817TIP3    H271867   2.000   4.919  15.128  0.6599  2.0293  0.0522
16818TIP3   OH271868   6.456   3.176   3.180  0.0966 -0.9107 -0.1297
16818TIP3    H171869   6.502   3.100   3.144  1.3419 -0.4357  0.4209
16818TIP3    H271870   6.489   3.250   3.130 -0.1032 -0.5688  0.2381
16819TIP3   OH271871   0.632   2.570  14.300 -0.1938 -0.0753  0.0332
16819TIP3    H171872   0.598   2.571  14.210 -3.5694  1.3117  1.1649
16819TIP3    H271873   0.706   2.630  14.298  0.1096 -0.4311 -1.8867
16820TIP3   OH271874   2.733   0.357  13.841  0.0984 -0.1456 -0.2107
16820TIP3    H171875   2.803   0.386  13.899  0.8702 -0.7748 -0.8187
16820TIP3    H271876   2.668   0.427  13.846  1.7690  1.5919 -1.3773
16821TIP3   OH271877   1.678   5.347  11.645 -0.3690  1.1346  0.0354
16821TIP3    H171878   1.695   5.335  11.739  0.7138  1.4037 -0.1192
16821TIP3    H271879   1.711   5.266  11.605 -1.5774  0.6603 -0.0444
16822TIP3   OH271880   1.463   4.036  10.815  0.1996 -0.1009  0.2038
16822TIP3    H171881   1.479   3.945  10.841  0.4118  0.0800  0.7213
16822TIP3    H271882   1.504   4.088  10.884  1.3775  0.4015 -0.8618
16823TIP3   OH271883   2.478   0.002  13.419 -0.3332 -0.1669  0.1894
16823TIP3    H171884   2.569   0.030  13.424 -0.0224 -1.3709  2.6836
16823TIP3    H271885   2.430   0.062  13.477 -1.3993  1.1071 -1.8648
16824TIP3   OH271886   5.444   1.314   5.156  0.2233 -0.7627 -0.2054
16824TIP3    H171887   5.464   1.383   5.092 -0.3017  0.3933  0.8387
16824TIP3    H271888   5.360   1.278   5.128 -1.2039  1.3576  1.0839
16825TIP3   OH271889   3.221   5.748   2.357 -0.0211  0.1583  0.3022
16825TIP3    H171890   3.196   5.701   2.436 -1.3367 -1.5535 -1.0311
16825TIP3    H271891   3.157   5.819   2.350 -0.0080  0.2064  0.6830
16826TIP3   OH271892   3.117   6.598   5.448  0.2046  0.4175  0.1814
16826TIP3    H171893   3.063   6.567   5.521 -0.1977 -1.1234 -0.7245
16826TIP3    H271894   3.067   6.671   5.412 -1.5380 -1.1616 -0.8290
16827TIP3   OH271895   0.067   1.865  11.613 -0.0034 -0.7102  0.2905
16827TIP3    H171896  -0.028   1.855  11.616  0.0926 -1.5371  0.9254
16827TIP3    H271897   0.082   1.958  11.629 -0.6953 -0.6011  0.3158
16828TIP3   OH271898   0.186   6.399  12.460 -0.1786  0.3364 -0.2850
16828TIP3    H171899   0.180   6.317  12.510  0.2456  2.5157  3.7589
16828TIP3    H271900   0.097   6.414  12.428 -0.7153 -0.7194  0.6284
16829TIP3   OH271901   1.806   0.641  16.973  0.1803 -0.4492 -0.2389
16829TIP3    H171902   1.786   0.720  16.923  0.1063  0.0602  0.5909
16829TIP3    H271903   1.900   0.630  16.965 -0.1198 -2.2108 -3.1928
16830TIP3   OH271904   2.063   4.746  15.133  0.0982  0.3926  0.4597
16830TIP3    H171905   2.014   4.664  15.136  0.3478  0.2613  2.6017
16830TIP3    H271906   2.150   4.723  15.168  1.0427  1.0543 -1.3463
16831TIP3   OH271907   0.045   6.220   5.340 -0.2444  0.0761 -0.0376
16831TIP3    H171908   0.038   6.240   5.434  1.4909  0.8520 -0.0405
16831TIP3    H271909   0.122   6.163   5.334 -0.8324 -0.6609 -0.9166
16832TIP3   OH271910   3.687   5.299   3.203 -0.6375 -0.6508  0.3256
16832TIP3    H171911   3.638   5.325   3.126 -0.6149  0.5996  0.7119
16832TIP3    H271912   3.712   5.208   3.186 -0.2517 -0.2725 -1.3287
16833TIP3   OH271913   6.385   1.805  14.246 -0.0365 -0.4616  0.1001
16833TIP3    H171914   6.459   1.866  14.236 -0.0547 -0.5607 -0.7543
16833TIP3    H271915   6.419   1.737  14.304  0.4432 -0.3344 -0.0192
16834TIP3   OH271916   4.385   3.695  14.245  0.4053  0.2113  0.1915
16834TIP3    H171917   4.376   3.789  14.233 -3.3491  0.0303  0.1628
16834TIP3    H271918   4.368   3.658  14.158 -1.6882 -0.4933  0.8383
16835TIP3   OH271919   1.357   2.215  12.804 -0.2383 -0.3660  0.2763
16835TIP3    H171920   1.339   2.140  12.861 -0.0598 -0.8519 -0.3004
16835TIP3    H271921   1.334   2.291  12.857 -1.5922 -0.8717  0.4460
16836TIP3   OH271922   5.876   1.562   6.553 -0.2899 -0.3463 -0.3240
16836TIP3    H171923   5.963   1.568   6.514 -0.7414  1.8895 -1.1624
16836TIP3    H271924   5.882   1.488   6.613  1.9767 -0.6736 -0.8366
16837TIP3   OH271925   3.388   2.968   4.011 -0.3757 -0.1897 -0.0056
16837TIP3    H171926   3.311   2.925   4.049 -0.3842 -1.0553 -0.9722
16837TIP3    H271927   3.443   2.988   4.087 -1.3075 -0.0320  0.6538
16838TIP3   OH271928   4.969   2.163  14.617  0.2259 -0.0700  0.6593
16838TIP3    H171929   4.951   2.078  14.577 -2.6283 -0.2530  2.0250
16838TIP3    H271930   5.039   2.201  14.564 -0.4076 -2.0300 -1.7678
16839TIP3   OH271931   5.780   2.243   5.856 -0.6299  0.2007 -0.5365
16839TIP3    H171932   5.820   2.158   5.836  0.0500  0.7442 -1.5747
16839TIP3    H271933   5.688   2.222   5.874 -0.1424 -0.9342  0.8331
16840TIP3   OH271934   5.650   4.340   1.471  0.3883 -0.0402 -0.0349
16840TIP3    H171935   5.663   4.376   1.559 -0.9558  0.0565  0.1486
16840TIP3    H271936   5.690   4.253   1.475  0.4873  0.0282  0.6287
16841TIP3   OH271937   3.168   1.232  15.152 -0.1396 -0.0321 -0.2572
16841TIP3    H171938   3.192   1.169  15.220 -1.2552 -0.4388 -0.2190
16841TIP3    H271939   3.126   1.304  15.199  1.1209  0.7744 -0.3013
16842TIP3   OH271940   6.254   5.892  11.990  0.0482 -0.6244 -0.2007
16842TIP3    H171941   6.315   5.855  12.054  0.8523  0.3405 -0.3787
16842TIP3    H271942   6.247   5.826  11.922  0.6337 -0.8867 -0.0104
16843TIP3   OH271943   5.837   1.119   4.697 -0.3266  0.8698  1.1348
16843TIP3    H171944   5.918   1.101   4.745  0.3645  1.4709  0.2159
16843TIP3    H271945   5.864   1.169   4.621 -1.2858 -0.7449 -0.3429
16844TIP3   OH271946   0.472   5.912  13.172 -0.3971  0.1507  0.2403
16844TIP3    H171947   0.484   5.977  13.241 -0.7436  0.5744 -0.0887
16844TIP3    H271948   0.520   5.835  13.202 -0.5352  0.3367  0.9431
16845TIP3   OH271949   4.420   3.055  10.659  0.4063 -0.0202 -0.4116
16845TIP3    H171950   4.399   2.964  10.679  1.5629  0.0606  1.3927
16845TIP3    H271951   4.515   3.062  10.672  0.1311  1.7890  1.0908
16846TIP3   OH271952   2.198   3.345   1.204  0.3443 -0.3761  0.2075
16846TIP3    H171953   2.210   3.408   1.133  0.1726 -1.1279 -0.5028
16846TIP3    H271954   2.257   3.273   1.183 -0.6130 -1.1745  0.1544
16847TIP3   OH271955   1.821   4.172   4.524  0.3619  0.1629 -0.2667
16847TIP3    H171956   1.915   4.184   4.511  0.4532 -0.0417  0.2065
16847TIP3    H271957   1.811   4.080   4.549 -0.0600 -0.0665 -1.1955
16848TIP3   OH271958   5.368   5.580   3.763 -0.2212  0.0291  0.3213
16848TIP3    H171959   5.371   5.655   3.703  0.9793  0.0553  0.3833
16848TIP3    H271960   5.309   5.608   3.834 -1.5334  0.0538 -0.7385
16849TIP3   OH271961   2.951   6.482   4.943  0.0245  0.1447 -0.2392
16849TIP3    H171962   2.857   6.477   4.961  0.2815  0.5149  1.3190
16849TIP3    H271963   2.957   6.528   4.859 -1.1990 -0.5917 -0.7646
16850TIP3   OH271964   5.916   5.947   0.270  0.0372 -0.1691  0.4475
16850TIP3    H171965   5.997   5.996   0.287  1.1980 -2.7837  3.5549
16850TIP3    H271966   5.933   5.860   0.307 -3.4138 -1.5733 -0.8887
16851TIP3   OH271967   3.491   1.880   5.403  0.1679  0.1602  0.0569
16851TIP3    H171968   3.504   1.789   5.376  2.2545  1.3124 -3.3684
16851TIP3    H271969   3.566   1.899   5.460  1.4401  0.4948 -1.6548
16852TIP3   OH271970   2.265   6.100   2.263 -0.6456 -0.3036  0.0582
16852TIP3    H171971   2.322   6.168   2.300 -1.5795  1.1749 -1.0726
16852TIP3    H271972   2.326   6.035   2.227  0.3464  0.8672 -0.4801
16853TIP3   OH271973   1.110   2.943  15.109  0.1119  0.8749  0.0034
16853TIP3    H171974   1.190   2.928  15.159  0.2399 -0.2560 -0.5077
16853TIP3    H271975   1.052   2.872  15.136 -0.3853  1.1623 -0.3036
16854TIP3   OH271976   4.116   6.166   4.876  0.0799  0.2209 -0.5253
16854TIP3    H171977   4.138   6.101   4.942  0.2305 -0.7032 -1.4465
16854TIP3    H271978   4.170   6.142   4.800  1.0160  2.1246 -0.5272
16855TIP3   OH271979   1.989   0.054   5.197 -0.0665 -0.1871  0.2377
16855TIP3    H171980   1.957  -0.032   5.170  0.0165  0.2384 -1.2851
16855TIP3    H271981   1.921   0.087   5.256  1.1887 -2.3988  3.1620
16856TIP3   OH271982   3.379   4.272  17.341  0.1659  0.1893 -0.0466
16856TIP3    H171983   3.463   4.232  17.364 -0.4340 -0.6250  0.8638
16856TIP3    H271984   3.375   4.268  17.246  1.1005  0.1309 -0.0940
16857TIP3   OH271985   6.538   1.268  16.207  0.5405  0.5482  0.6039
16857TIP3    H171986   6.603   1.319  16.256  0.1358  2.2129 -0.4901
16857TIP3    H271987   6.481   1.335  16.168 -1.3136 -0.8375  0.8336
16858TIP3   OH271988   1.240   5.041   2.610  0.1494  0.0394  0.4039
16858TIP3    H171989   1.289   5.054   2.529  1.5601 -0.0717  1.1885
16858TIP3    H271990   1.167   4.985   2.585 -1.0182  2.1473 -1.2894
16859TIP3   OH271991   6.227   4.075   1.741  0.0709  0.1943  0.0827
16859TIP3    H171992   6.161   4.020   1.783 -1.3025  1.3097 -0.5197
16859TIP3    H271993   6.180   4.156   1.718  1.9386  1.5579  0.7553
16860TIP3   OH271994   0.694   1.058   3.648 -0.3820 -0.1636  0.1860
16860TIP3    H171995   0.782   1.041   3.615 -1.1495 -1.1407 -1.4967
16860TIP3    H271996   0.640   0.990   3.608 -1.8013 -0.0007  1.7247
16861TIP3   OH271997   0.840   4.645  11.472 -0.3101  0.0715 -0.0438
16861TIP3    H171998   0.844   4.694  11.390 -1.0819 -1.1359 -0.8301
16861TIP3    H271999   0.924   4.600  11.476  0.1371  0.9070  0.3570
16862TIP3   OH272000   1.264   0.748   4.626 -0.1938  0.2423  0.3973
16862TIP3    H172001   1.348   0.757   4.582 -0.2865 -1.1539 -0.0990
16862TIP3    H272002   1.205   0.807   4.578 -0.1193 -0.7223 -0.9263
16863TIP3   OH272003   1.393   1.674  12.215  0.4723 -0.2251  0.3776
16863TIP3    H172004   1.309   1.719  12.203  0.9886  0.8775  0.7493
16863TIP3    H272005   1.419   1.649  12.126  0.3488  0.5563  0.1124
16864TIP3   OH272006   0.224   4.850  16.562 -0.4759 -0.2727  0.2354
16864TIP3    H172007   0.250   4.765  16.527 -2.7966 -1.1962  0.5413
16864TIP3    H272008   0.159   4.883  16.500  1.3984  2.0104 -0.6434
16865TIP3   OH272009   0.770   0.149  17.178 -0.3093 -0.0294  0.5806
16865TIP3    H172010   0.702   0.215  17.184 -0.6984 -0.4239  0.5586
16865TIP3    H272011   0.793   0.145  17.086 -0.7348 -0.3677  0.4847
16866TIP3   OH272012   0.806   2.971   2.799  0.1066 -0.4033 -0.4990
16866TIP3    H172013   0.775   2.901   2.857  0.0750 -0.5482 -0.6914
16866TIP3    H272014   0.886   2.937   2.760  0.5165 -0.0306 -0.0058
16867TIP3   OH272015   2.386   0.726  14.896  0.2336 -0.3682  0.2176
16867TIP3    H172016   2.381   0.630  14.897  0.9725 -0.4108  1.0848
16867TIP3    H272017   2.441   0.748  14.972  0.7182  0.7028 -0.4248
16868TIP3   OH272018   4.497   5.345   4.088 -0.2498  0.1418  0.4319
16868TIP3    H172019   4.494   5.251   4.074  2.1876  0.3003 -1.9669
16868TIP3    H272020   4.545   5.355   4.170  0.9108 -0.7158 -0.1187
16869TIP3   OH272021   6.278   6.177   1.551 -0.5125 -0.3437  0.0468
16869TIP3    H172022   6.200   6.132   1.518 -0.9906 -0.0571  0.7347
16869TIP3    H272023   6.348   6.114   1.543 -0.9029 -0.7453 -0.2396
16870TIP3   OH272024   1.151   6.598  14.136  0.4228 -0.2991  0.4613
16870TIP3    H172025   1.140   6.535  14.208 -0.0315 -0.0577  0.6103
16870TIP3    H272026   1.135   6.547  14.057 -0.0415 -0.3582  0.5866
16871TIP3   OH272027   0.797   1.751  16.341 -0.0866 -0.2282 -0.0397
16871TIP3    H172028   0.815   1.820  16.406 -0.3657  0.9320 -1.1598
16871TIP3    H272029   0.713   1.776  16.303 -1.0891 -2.1904  0.7606
16872TIP3   OH272030   5.445   0.578  11.787  0.3692  0.9391 -0.0151
16872TIP3    H172031   5.371   0.592  11.729  0.7828 -0.8214 -1.0314
16872TIP3    H272032   5.435   0.489  11.819  0.5160  1.6361  2.1640
16873TIP3   OH272033   4.132   4.717  11.927  0.3922 -0.0130 -0.6003
16873TIP3    H172034   4.048   4.758  11.948  1.0830  1.7349 -1.0357
16873TIP3    H272035   4.110   4.645  11.869 -0.7874  0.7052 -1.0861
16874TIP3   OH272036   1.621   1.834   1.554 -0.0478  0.7109 -0.7536
16874TIP3    H172037   1.663   1.842   1.468 -0.3857  0.6390 -0.9289
16874TIP3    H272038   1.557   1.763   1.542 -0.0742  0.6818 -0.4346
16875TIP3   OH272039   6.121   4.318   5.223 -0.2255 -0.1917  0.1287
16875TIP3    H172040   6.183   4.388   5.246 -0.7727  0.3210  0.0800
16875TIP3    H272041   6.129   4.309   5.128 -1.5221  1.1649 -0.1543
16876TIP3   OH272042   0.244   4.623  15.948  1.0429 -0.3129  0.7669
16876TIP3    H172043   0.289   4.538  15.953  2.1071  0.1034 -0.9787
16876TIP3    H272044   0.184   4.614  15.873  0.4269  0.1594  1.1960
16877TIP3   OH272045   2.462   1.511   4.497 -0.1434 -0.6521  0.1414
16877TIP3    H172046   2.456   1.543   4.587 -0.3499 -1.5056  0.4481
16877TIP3    H272047   2.447   1.588   4.443 -1.8900 -0.4422  0.8570
16878TIP3   OH272048   0.722   3.218   1.679  0.3085 -0.2361  0.3884
16878TIP3    H172049   0.636   3.187   1.651  0.1859 -0.6746  1.2305
16878TIP3    H272050   0.781   3.147   1.656  0.4689  0.0927 -0.2509
16879TIP3   OH272051   5.630   4.452   3.673  0.6182  0.5516  0.1365
16879TIP3    H172052   5.566   4.387   3.701  0.5471  0.3078 -0.5881
16879TIP3    H272053   5.622   4.455   3.578  1.2312  0.9911  0.0930
16880TIP3   OH272054   2.289   2.732   3.525  0.2018 -0.1382 -0.2267
16880TIP3    H172055   2.205   2.714   3.484 -0.8072 -1.7868  2.2754
16880TIP3    H272056   2.269   2.799   3.591  0.5177 -1.3390  1.1544
16881TIP3   OH272057   6.293   5.573  17.090 -0.2192 -0.3209 -0.3630
16881TIP3    H172058   6.313   5.592  16.999  1.0824  0.4955  0.0661
16881TIP3    H272059   6.296   5.657  17.135  4.0171 -1.0814  1.2757
16882TIP3   OH272060   4.985   1.497   2.495 -0.8460 -0.2165 -0.1272
16882TIP3    H172061   4.896   1.530   2.484 -0.9521 -0.3854  0.2185
16882TIP3    H272062   4.995   1.432   2.425 -0.8560  0.0837 -0.4122
16883TIP3   OH272063   5.494   4.761  12.962  0.1160 -0.0262  0.1303
16883TIP3    H172064   5.489   4.853  12.937  1.3285 -0.0357 -0.2180
16883TIP3    H272065   5.580   4.752  13.004 -0.0010 -0.9926  0.1900
16884TIP3   OH272066   5.218   1.111   0.926 -0.1718  0.2790  0.3898
16884TIP3    H172067   5.275   1.141   0.855  0.8163 -0.4901  0.8495
16884TIP3    H272068   5.138   1.083   0.881  0.0645  0.7167 -0.3298
16885TIP3   OH272069   5.997   0.770  13.545  0.1183 -0.2181 -1.0684
16885TIP3    H172070   6.076   0.824  13.547 -0.5715  0.8699 -1.7425
16885TIP3    H272071   5.932   0.825  13.500 -1.7628 -0.0627  1.6119
16886TIP3   OH272072   2.312   4.073   6.581 -0.1986 -0.1852  0.6798
16886TIP3    H172073   2.385   4.135   6.575 -0.8305  0.4340 -1.5082
16886TIP3    H272074   2.242   4.123   6.623 -0.2047  0.0881  0.3528
16887TIP3   OH272075   2.281   0.424   4.380  0.1679  0.0974  0.3416
16887TIP3    H172076   2.353   0.459   4.432  0.0241  0.4811  0.2822
16887TIP3    H272077   2.302   0.448   4.290  0.0857  0.0038  0.2960
16888TIP3   OH272078   2.081   0.649   4.729 -0.1309  0.4494  0.0228
16888TIP3    H172079   2.066   0.597   4.651 -1.8736 -0.8418  1.1526
16888TIP3    H272080   2.121   0.588   4.791  1.4543  1.5145  0.1052
16889TIP3   OH272081   2.962   4.017  15.151 -0.0538  0.1660 -0.0025
16889TIP3    H172082   3.022   4.084  15.118 -2.2677  1.2976 -2.1218
16889TIP3    H272083   2.921   3.981  15.072 -1.9489 -0.6967  1.3001
16890TIP3   OH272084   6.032   3.829  13.010 -0.1932  0.0222 -0.4454
16890TIP3    H172085   6.070   3.758  13.063  0.5781 -0.8840 -2.1379
16890TIP3    H272086   6.025   3.792  12.922 -0.1990  1.9203 -1.2858
16891TIP3   OH272087   5.979   5.051   6.358  0.0286  0.1329  0.5581
16891TIP3    H172088   6.064   5.026   6.393  0.0838  0.5847  0.7629
16891TIP3    H272089   5.962   5.137   6.396 -0.4304  0.1327  0.3636
16892TIP3   OH272090   3.701   2.387   5.252  0.2145  0.3768  0.2095
16892TIP3    H172091   3.724   2.339   5.332  0.8702  0.7927  0.2777
16892TIP3    H272092   3.785   2.418   5.218  0.2794 -1.8597 -1.9948
16893TIP3   OH272093   1.406   0.464  11.791 -0.0793  0.1189 -0.3571
16893TIP3    H172094   1.461   0.396  11.752 -0.6234 -1.2116  1.0928
16893TIP3    H272095   1.339   0.416  11.840 -0.1396  1.6857  1.2034
16894TIP3   OH272096   6.084   1.067  16.085 -0.8122 -0.0598  0.0625
16894TIP3    H172097   5.996   1.054  16.120 -0.4712  0.9553  1.3671
16894TIP3    H272098   6.143   1.042  16.156 -0.0839  1.1098 -0.0902
16895TIP3   OH272099   6.022   4.961   1.287 -0.3540  0.1371  0.0946
16895TIP3    H172100   6.110   4.935   1.315 -0.8720 -0.8445  0.9253
16895TIP3    H272101   6.008   4.914   1.205 -1.4619 -2.8760  1.8134
16896TIP3   OH272102   1.006   3.600   0.013  0.2193  0.0582  0.4268
16896TIP3    H172103   1.063   3.636   0.081 -0.2109 -0.1801  0.9175
16896TIP3    H272104   0.994   3.508   0.037 -0.5359  0.1543  0.4441
16897TIP3   OH272105   2.275   3.080   3.443 -0.4111 -0.6112 -0.2895
16897TIP3    H172106   2.309   3.042   3.524 -0.1570 -1.8342 -0.9376
16897TIP3    H272107   2.349   3.127   3.405 -0.3550 -0.5549 -0.1089
16898TIP3   OH272108   6.236   5.658  15.530 -0.1310 -0.1547 -0.4936
16898TIP3    H172109   6.319   5.612  15.516 -0.2163 -1.1627  1.8221
16898TIP3    H272110   6.250   5.709  15.610 -2.1587 -1.5806  0.8623
16899TIP3   OH272111   2.455   6.071  14.700  0.2889  0.2269  0.3531
16899TIP3    H172112   2.502   6.050  14.781  0.0695 -0.3937  0.3218
16899TIP3    H272113   2.393   5.999  14.688 -1.4529  1.5641  0.9536
16900TIP3   OH272114   5.375   4.021  13.997  0.5891 -0.3392  0.1364
16900TIP3    H172115   5.304   3.972  13.958  1.1428  0.3188 -1.7991
16900TIP3    H272116   5.376   4.105  13.950  0.9662  0.7326  1.9361
16901TIP3   OH272117   6.243   3.776  17.126  0.0386  0.0187 -0.1775
16901TIP3    H172118   6.187   3.723  17.182 -0.3831 -0.0651 -0.6723
16901TIP3    H272119   6.318   3.720  17.105  1.0954  0.6221  1.6966
16902TIP3   OH272120   1.260   1.428  14.999 -0.1739 -0.0939 -0.5453
16902TIP3    H172121   1.308   1.456  15.077 -0.4062  0.0587 -0.4543
16902TIP3    H272122   1.303   1.347  14.972 -0.7139 -0.6889  0.3312
16903TIP3   OH272123   3.450   4.142  12.531  0.6325 -0.0531 -0.7402
16903TIP3    H172124   3.463   4.063  12.584 -0.3698 -0.9923 -1.8368
16903TIP3    H272125   3.501   4.126  12.452  0.7490  0.5917 -0.8012
16904TIP3   OH272126   0.948   2.182   3.432  0.1758  0.0877  0.9052
16904TIP3    H172127   0.920   2.126   3.359 -0.6646  0.6767  0.7577
16904TIP3    H272128   0.868   2.226   3.460  0.2291 -1.0257  3.0037
16905TIP3   OH272129   2.358   0.370  16.264 -0.6655 -0.3165 -0.1843
16905TIP3    H172130   2.294   0.347  16.197 -1.7696 -0.6317  0.9286
16905TIP3    H272131   2.348   0.302  16.331 -0.4272  0.6145  0.8319
16906TIP3   OH272132   1.574   5.660  15.008 -0.2927  0.6855 -0.2851
16906TIP3    H172133   1.487   5.658  14.968  0.0309 -1.9363 -1.0081
16906TIP3    H272134   1.576   5.584  15.067  1.1886  1.2437  0.4460
16907TIP3   OH272135   3.912   0.157  13.135  0.2496 -0.0860  0.1849
16907TIP3    H172136   3.919   0.063  13.148  0.5707 -0.0694  0.1439
16907TIP3    H272137   4.002   0.186  13.118 -0.0117  0.0337 -1.0835
16908TIP3   OH272138   2.597   4.398  13.017 -0.0740  0.5815 -0.5767
16908TIP3    H172139   2.560   4.309  13.010  1.6623 -0.2270  0.1393
16908TIP3    H272140   2.521   4.454  13.032 -1.1099 -0.9123 -0.0286
16909TIP3   OH272141   6.046   5.774   3.033  0.4281  0.1462  0.7648
16909TIP3    H172142   6.005   5.737   2.954 -0.3752 -0.1689  1.3218
16909TIP3    H272143   6.113   5.710   3.056 -0.5448 -0.6894  1.3674
16910TIP3   OH272144   2.204   2.050   3.842 -0.3779  0.2719 -0.0131
16910TIP3    H172145   2.178   2.141   3.854  0.8113  0.7666 -0.9994
16910TIP3    H272146   2.298   2.054   3.821 -0.2039 -1.2064  0.3379
16911TIP3   OH272147   2.217   0.369   3.405  0.1970 -0.1264 -0.2571
16911TIP3    H172148   2.230   0.335   3.493 -0.7566  0.7604  0.2608
16911TIP3    H272149   2.234   0.463   3.412 -2.5312  0.4746 -0.3236
16912TIP3   OH272150   0.840   2.568   2.737 -0.1356  0.4502 -0.7472
16912TIP3    H172151   0.869   2.477   2.746  0.8515  0.8293  0.0149
16912TIP3    H272152   0.898   2.618   2.794 -2.1249  1.2804  0.6516
16913TIP3   OH272153   2.982   5.053  17.167 -0.3927 -0.1200 -0.0241
16913TIP3    H172154   3.039   5.120  17.203 -0.3436  0.3773 -1.0092
16913TIP3    H272155   2.982   5.068  17.073 -1.6999 -0.4560 -0.1059
16914TIP3   OH272156   4.249   1.755  16.444 -0.0628 -0.1268 -0.4074
16914TIP3    H172157   4.180   1.747  16.510  0.3155 -1.7878 -0.1745
16914TIP3    H272158   4.328   1.771  16.494  0.2431 -1.4960 -0.3991
16915TIP3   OH272159   2.517   2.074   3.268  0.1570  0.4966 -0.3059
16915TIP3    H172160   2.444   2.128   3.238 -1.1313  0.6447  2.7252
16915TIP3    H272161   2.550   2.119   3.346  0.7721 -1.6698  0.7742
16916TIP3   OH272162   6.740   6.712   2.471 -0.0833 -0.3053 -0.3366
16916TIP3    H172163   6.714   6.665   2.391  0.9584 -0.3971 -0.6385
16916TIP3    H272164   6.706   6.658   2.542  3.1584 -3.0172 -0.5601
16917TIP3   OH272165   0.812   2.424   3.175 -0.2501  0.3787 -0.2236
16917TIP3    H172166   0.853   2.407   3.261 -0.9511 -1.9855 -0.3022
16917TIP3    H272167   0.754   2.499   3.191 -0.2444  0.0916  1.3305
16918TIP3   OH272168   3.460   2.587  12.502 -0.0489  0.3017  0.0328
16918TIP3    H172169   3.459   2.580  12.407 -1.8142 -2.1678  0.1359
16918TIP3    H272170   3.383   2.640  12.523 -0.4610 -0.3140  0.1068
16919TIP3   OH272171   1.205   6.747  16.004  0.4578  0.9040 -0.1953
16919TIP3    H172172   1.212   6.662  16.048  0.4514 -0.7122 -3.1032
16919TIP3    H272173   1.263   6.804  16.055 -1.4837 -0.0026  3.4205
16920TIP3   OH272174   1.876   1.725  11.974 -0.1466  0.2165 -0.1448
16920TIP3    H172175   1.789   1.762  11.956 -1.2227 -1.1212  1.9121
16920TIP3    H272176   1.860   1.658  12.041  2.2726 -1.1554 -0.8327
16921TIP3   OH272177   2.772   0.723   4.588 -0.0171  0.4633  0.0074
16921TIP3    H172178   2.727   0.806   4.573 -1.9371 -0.6576 -0.6759
16921TIP3    H272179   2.819   0.706   4.506 -0.5676  0.3088 -0.2770
16922TIP3   OH272180   2.375   2.990  11.154  0.1859  0.3667 -0.2320
16922TIP3    H172181   2.375   3.083  11.175 -0.7114  0.4170 -0.4414
16922TIP3    H272182   2.372   2.946  11.239 -0.4675  0.5384 -0.1663
16923TIP3   OH272183   2.563   0.019  11.547  0.4054  0.9251 -0.1161
16923TIP3    H172184   2.502   0.091  11.567  0.2548  0.1593  2.6754
16923TIP3    H272185   2.631   0.027  11.614  1.2424 -0.5944 -0.7446
16924TIP3   OH272186   6.214   2.315  16.903  0.6143  0.1470 -0.2460
16924TIP3    H172187   6.226   2.393  16.956  0.7505  0.4939 -0.7761
16924TIP3    H272188   6.299   2.301  16.861  0.8374 -0.7728  0.4877
16925TIP3   OH272189   3.186   6.755  13.620 -0.3318  0.1395  0.0227
16925TIP3    H172190   3.163   6.847  13.611  1.1158  0.6787  1.5199
16925TIP3    H272191   3.156   6.731  13.707 -0.8114 -0.8752 -0.3979
16926TIP3   OH272192   2.169   2.595  13.670 -0.1328 -0.9599  0.4050
16926TIP3    H172193   2.228   2.613  13.743 -1.2063 -0.9458  1.2994
16926TIP3    H272194   2.193   2.507  13.642  1.2917 -0.4082 -0.2424
16927TIP3   OH272195   5.276   5.532   5.828  0.1661  0.6549  0.1271
16927TIP3    H172196   5.293   5.448   5.786  0.9489  0.8398  0.0470
16927TIP3    H272197   5.311   5.522   5.916 -0.0702  0.7800  0.2361
16928TIP3   OH272198   5.239   6.518   0.055 -0.3372  0.4152  0.2074
16928TIP3    H172199   5.217   6.525  -0.038 -1.5443 -0.9429  0.3523
16928TIP3    H272200   5.172   6.459   0.090  0.7796  0.0026  1.7031
16929TIP3   OH272201   5.229   6.046   2.538  0.2635 -0.2945 -0.2715
16929TIP3    H172202   5.141   6.082   2.539  0.5635  0.5236 -1.1639
16929TIP3    H272203   5.281   6.112   2.491  1.5534 -0.3018  1.0839
16930TIP3   OH272204   1.340   5.002  10.973 -0.0905  0.2547  0.6532
16930TIP3    H172205   1.412   4.944  10.997 -1.2293 -2.1844 -1.2429
16930TIP3    H272206   1.319   4.977  10.882 -3.3490  0.7413  1.1408
16931TIP3   OH272207   4.170   3.300  12.640  0.1738 -0.1246 -0.1112
16931TIP3    H172208   4.164   3.207  12.616 -0.0632  0.2218 -1.4843
16931TIP3    H272209   4.218   3.340  12.568  0.1677  0.8435  0.4172
16932TIP3   OH272210   2.590   5.352  12.610 -0.7401  0.0779 -0.9049
16932TIP3    H172211   2.499   5.337  12.582 -0.3709  0.8027 -2.5865
16932TIP3    H272212   2.638   5.366  12.529  1.0952 -1.2740 -0.1108
16933TIP3   OH272213   0.880   4.995  16.217 -0.4799  0.4725 -0.1898
16933TIP3    H172214   0.847   4.964  16.301  0.2526  1.1475  0.3538
16933TIP3    H272215   0.825   5.071  16.197  1.0810  2.0007  1.0317
16934TIP3   OH272216   0.512   4.110  12.795 -0.1414  0.0891 -0.0212
16934TIP3    H172217   0.418   4.119  12.778  0.0937 -0.3314 -1.7454
16934TIP3    H272218   0.525   4.015  12.803  0.2735  0.0761 -0.7779
16935TIP3   OH272219   5.920   4.654  16.601  0.5361  0.3938  0.5488
16935TIP3    H172220   5.966   4.704  16.533  1.8367  0.6596  1.5764
16935TIP3    H272221   5.900   4.570  16.559 -0.2293  1.1668 -0.6896
16936TIP3   OH272222   4.675   5.041   4.947  0.0575 -0.2115 -0.3834
16936TIP3    H172223   4.763   5.059   4.915  1.1530 -0.8233  2.0706
16936TIP3    H272224   4.680   4.951   4.980 -0.7238  0.5550  2.0429
16937TIP3   OH272225   3.673   2.261  15.796 -0.1197 -0.1542 -0.2686
16937TIP3    H172226   3.639   2.278  15.708 -0.3332 -0.2102 -0.1964
16937TIP3    H272227   3.608   2.300  15.855  0.1604  0.1231 -0.1415
16938TIP3   OH272228   5.453   5.495  13.342  0.2548  0.0789 -0.0339
16938TIP3    H172229   5.432   5.576  13.388 -0.5254 -0.1241 -0.0268
16938TIP3    H272230   5.529   5.517  13.288 -0.7999  1.1996 -1.1010
16939TIP3   OH272231   5.621   4.628  14.434 -0.3744 -0.1467  0.4668
16939TIP3    H172232   5.549   4.639  14.496 -1.0745 -1.8355  0.0138
16939TIP3    H272233   5.581   4.587  14.357  0.9932 -0.8215  0.0742
16940TIP3   OH272234   1.897   0.524  11.407 -0.3535 -0.3551  0.3793
16940TIP3    H172235   1.936   0.532  11.495  0.0077 -0.2557  0.2147
16940TIP3    H272236   1.840   0.447  11.413 -1.2177  0.3207  1.0208
16941TIP3   OH272237   1.035   5.776  11.028  0.4147 -0.1478  0.3685
16941TIP3    H172238   1.042   5.790  10.934  1.5568 -1.0856  0.2935
16941TIP3    H272239   0.998   5.688  11.036  0.1586 -0.0070  0.8040
16942TIP3   OH272240   1.122   2.470  13.979 -0.7886 -0.4135  0.3243
16942TIP3    H172241   1.168   2.491  13.898  0.2552  0.0167  0.9991
16942TIP3    H272242   1.030   2.485  13.959 -0.6096 -0.8412 -0.9336
16943TIP3   OH272243   4.725   0.932   3.518 -1.3051  0.5568 -0.0817
16943TIP3    H172244   4.703   0.910   3.609 -2.0280 -0.0379 -0.3890
16943TIP3    H272245   4.641   0.957   3.479 -0.9878  0.8557 -0.5711
16944TIP3   OH272246   5.964   4.965  16.376 -0.2119 -0.7886  0.0933
16944TIP3    H172247   6.006   5.016  16.445 -0.9143 -0.0685  0.0084
16944TIP3    H272248   6.018   4.887  16.367  0.1647 -0.6549  1.1121
16945TIP3   OH272249   0.554   2.067   3.358  0.0314  0.5428  0.8606
16945TIP3    H172250   0.502   1.999   3.401 -0.3815  0.4434  0.2127
16945TIP3    H272251   0.547   2.048   3.265  0.1195  1.3255  0.6859
16946TIP3   OH272252   2.701   4.530   4.370  0.4767 -0.0712 -0.5974
16946TIP3    H172253   2.733   4.585   4.298 -0.7200 -0.0848 -1.1680
16946TIP3    H272254   2.662   4.455   4.326 -0.0063 -0.2252  0.0887
16947TIP3   OH272255   0.623   5.940   3.842 -0.4224 -0.3727 -0.4918
16947TIP3    H172256   0.679   5.876   3.798 -0.1120 -1.0669  0.8563
16947TIP3    H272257   0.536   5.901   3.843  0.0936 -1.6307  1.8436
16948TIP3   OH272258   2.574   0.201   2.335  0.1575 -0.0846  0.0224
16948TIP3    H172259   2.545   0.126   2.283  0.2472  1.7733 -2.9272
16948TIP3    H272260   2.494   0.250   2.352  0.5070  0.9893 -1.2747
16949TIP3   OH272261   0.564   2.621  14.565  0.5406 -0.0107  0.0135
16949TIP3    H172262   0.641   2.671  14.593  0.2361  1.0882 -1.0397
16949TIP3    H272263   0.576   2.610  14.471  1.3371 -3.2817  0.3766
16950TIP3   OH272264   2.622   2.114  12.372 -0.0232 -0.4260  0.4431
16950TIP3    H172265   2.621   2.055  12.447 -3.2306  0.8730  1.6117
16950TIP3    H272266   2.538   2.099  12.328  0.4228  1.0681 -1.0309
16951TIP3   OH272267   5.380   5.804   3.595 -0.0591  0.1932  0.6165
16951TIP3    H172268   5.440   5.879   3.586  0.1833  0.0133  0.7049
16951TIP3    H272269   5.314   5.833   3.657 -0.1263  0.4345  0.4340
16952TIP3   OH272270   2.168   5.138   3.640 -0.6861  0.3528 -0.2532
16952TIP3    H172271   2.220   5.149   3.719 -1.9861  1.1730  0.5231
16952TIP3    H272272   2.232   5.128   3.570  0.5042  1.2006  0.6825
16953TIP3   OH272273   1.028   6.571  14.990  0.7581 -0.1777  0.0105
16953TIP3    H172274   1.027   6.484  14.950  0.5860 -0.0987 -0.1589
16953TIP3    H272275   0.962   6.620  14.941  1.5793  0.3550 -0.5882
16954TIP3   OH272276   6.271   2.020  14.758 -0.3648 -0.2900  0.1353
16954TIP3    H172277   6.352   1.982  14.725  0.0465  0.5126  0.2058
16954TIP3    H272278   6.228   2.056  14.679  0.5584  1.5162  0.4016
16955TIP3   OH272279   6.404   0.824   4.944 -0.5775 -0.0063  0.3385
16955TIP3    H172280   6.456   0.904   4.945 -0.9010  0.2061  0.9170
16955TIP3    H272281   6.466   0.755   4.972 -0.2269 -0.0129 -0.4422
16956TIP3   OH272282   5.270   5.055  16.181 -0.0682  0.0331 -0.0837
16956TIP3    H172283   5.280   4.972  16.133 -0.3037  0.5203 -0.9920
16956TIP3    H272284   5.341   5.110  16.148 -0.4874  0.5173 -0.1823
16957TIP3   OH272285   4.636   1.736   5.401 -0.3734 -0.0875 -0.3721
16957TIP3    H172286   4.572   1.798   5.365 -0.1255 -0.3268 -1.2553
16957TIP3    H272287   4.660   1.773   5.486  0.4390  1.5297 -1.2566
16958TIP3   OH272288   3.081   3.386   2.161  0.0533 -0.4979 -0.6630
16958TIP3    H172289   3.072   3.416   2.252 -2.4575 -0.2776 -0.9054
16958TIP3    H272290   3.062   3.465   2.109 -1.8070 -1.3282 -1.3225
16959TIP3   OH272291   0.830   5.113  11.314 -0.4863  0.1902 -0.6393
16959TIP3    H172292   0.904   5.173  11.304 -1.1124  0.9113 -1.1188
16959TIP3    H272293   0.753   5.170  11.318 -0.9470 -0.4746  0.9863
16960TIP3   OH272294   1.667   4.471   1.026  0.1359  0.0347 -0.5382
16960TIP3    H172295   1.699   4.393   0.981  0.3175 -0.3561  0.2453
16960TIP3    H272296   1.745   4.525   1.038  0.0056  0.3536 -1.1025
16961TIP3   OH272297   3.686   6.330  10.653 -0.3079  0.8634  0.4619
16961TIP3    H172298   3.607   6.371  10.690  0.2755  2.2409  0.2308
16961TIP3    H272299   3.698   6.373  10.569  0.7229  0.6957  0.5130
16962TIP3   OH272300   1.528   0.421   5.421 -0.1728  0.2801 -0.0855
16962TIP3    H172301   1.463   0.358   5.390 -0.8422  0.6499  0.5365
16962TIP3    H272302   1.575   0.447   5.342 -1.3184  0.6061 -0.6906
16963TIP3   OH272303   5.871   2.270  10.801 -0.0251 -0.1825 -0.2099
16963TIP3    H172304   5.874   2.192  10.745  0.5711 -0.0604 -0.3544
16963TIP3    H272305   5.791   2.260  10.852 -0.7991 -0.1111 -1.3576
16964TIP3   OH272306   4.922   0.353   5.624  0.2909  0.4532 -0.6620
16964TIP3    H172307   4.949   0.261   5.623 -0.3219  0.2665 -0.4225
16964TIP3    H272308   4.958   0.389   5.542  1.7371  0.3689 -0.0854
16965TIP3   OH272309   4.952   5.144  12.864 -0.1698 -0.2689  0.1660
16965TIP3    H172310   5.023   5.208  12.861 -0.7087  0.3122 -0.5932
16965TIP3    H272311   4.980   5.080  12.930  0.9472  0.0660  0.0374
16966TIP3   OH272312   6.625   5.114  16.609 -0.1711  0.1941  0.7199
16966TIP3    H172313   6.557   5.152  16.664  0.0217  0.5955  0.6816
16966TIP3    H272314   6.628   5.171  16.532 -0.6279 -0.5154  0.1634
16967TIP3   OH272315   6.001   6.509   1.885  0.2442 -0.1040  0.1528
16967TIP3    H172316   6.039   6.425   1.860  1.5994  1.0233 -1.8008
16967TIP3    H272317   6.057   6.540   1.956 -0.1678 -0.7455  0.7756
16968TIP3   OH272318   0.467   1.412   4.644  0.0801 -0.4102 -0.4372
16968TIP3    H172319   0.374   1.409   4.667  0.2836  1.2817  0.7806
16968TIP3    H272320   0.494   1.320   4.642 -1.5389 -0.9175 -0.5089
16969TIP3   OH272321   4.226   6.173  13.350 -0.1705  0.2286  0.8868
16969TIP3    H172322   4.183   6.133  13.275  1.2090 -1.4447  0.9177
16969TIP3    H272323   4.188   6.260  13.357  1.3986  1.4546 -3.2955
16970TIP3   OH272324   1.160   3.583  15.349 -0.5866  0.7150 -0.5026
16970TIP3    H172325   1.194   3.538  15.427 -1.4171  1.7288  0.4783
16970TIP3    H272326   1.105   3.518  15.306  1.3735 -0.4853 -1.3384
16971TIP3   OH272327   1.267   6.369   1.873 -0.7405 -1.0819 -0.2159
16971TIP3    H172328   1.224   6.285   1.857 -2.6356  0.0087 -1.2091
16971TIP3    H272329   1.202   6.434   1.846 -0.2474  0.7764  2.6553
16972TIP3   OH272330   1.662   4.387  13.710 -0.5062 -0.5583 -0.2243
16972TIP3    H172331   1.569   4.374  13.727 -0.4634 -2.9169 -1.4412
16972TIP3    H272332   1.665   4.445  13.635 -0.8965  1.1266  1.0007
16973TIP3   OH272333   2.378   3.917   3.846  0.0367  0.3658 -0.6335
16973TIP3    H172334   2.396   3.845   3.786 -1.4646 -0.1975 -0.4436
16973TIP3    H272335   2.283   3.926   3.846 -0.0465  0.2595  1.7185
16974TIP3   OH272336   2.820   4.019   4.630  0.6624  0.2593 -0.3066
16974TIP3    H172337   2.748   4.046   4.687 -0.0780 -0.3453 -0.9355
16974TIP3    H272338   2.885   4.089   4.639 -1.0260  2.0947 -1.5806
16975TIP3   OH272339   5.278   5.560  13.840 -0.6525  0.3401 -0.0393
16975TIP3    H172340   5.238   5.494  13.895 -0.5028  1.1309  1.0424
16975TIP3    H272341   5.294   5.634  13.898  0.6568  0.7403 -0.8523
16976TIP3   OH272342   1.765   4.270  14.683  0.3783  0.4240 -0.3951
16976TIP3    H172343   1.847   4.308  14.715  0.2663  1.3123 -1.1221
16976TIP3    H272344   1.766   4.180  14.715  1.7125  0.3756 -0.5166
16977TIP3   OH272345   2.159   2.431  14.272  0.7380  0.4494 -0.2202
16977TIP3    H172346   2.128   2.386  14.350  1.3670  1.1621  0.4670
16977TIP3    H272347   2.244   2.466  14.297  0.9084  0.7701 -1.1997
16978TIP3   OH272348   6.577   1.030   5.028  0.0186 -0.1192 -0.0020
16978TIP3    H172349   6.614   1.099   5.084 -1.1506  0.5469 -0.0285
16978TIP3    H272350   6.652   0.975   5.007  0.5130 -0.3580  2.1581
16979TIP3   OH272351   2.939   2.144   4.655 -0.4419  0.4059  0.8465
16979TIP3    H172352   2.953   2.174   4.565 -1.7837  1.7378  1.0544
16979TIP3    H272353   2.863   2.087   4.650  1.2419 -2.0189  0.7020
16980TIP3   OH272354   4.846   0.324   1.399  0.1011  0.0736  0.1611
16980TIP3    H172355   4.834   0.412   1.363  0.7172  0.0111 -0.2098
16980TIP3    H272356   4.909   0.335   1.470 -1.2699  0.2319  1.4021
16981TIP3   OH272357   2.709   0.603  17.243  0.0809 -0.7558  0.7220
16981TIP3    H172358   2.657   0.585  17.322 -1.4453 -0.4907 -0.1745
16981TIP3    H272359   2.744   0.518  17.217 -1.5505 -1.3398  0.2726
16982TIP3   OH272360   0.048   6.576   6.835  0.2759 -0.1571  0.4290
16982TIP3    H172361   0.115   6.532   6.887 -1.6018 -0.9670  2.2989
16982TIP3    H272362  -0.035   6.543   6.869 -1.1202  0.2734 -2.2521
16983TIP3   OH272363   5.448   6.074   3.543  0.7013  0.2670  0.0419
16983TIP3    H172364   5.478   6.132   3.613 -2.2085  1.7334  0.2240
16983TIP3    H272365   5.368   6.114   3.511  2.1914  0.0621 -4.7001
16984TIP3   OH272366   1.525   5.059   3.032 -0.8795 -0.3661  0.4048
16984TIP3    H172367   1.497   5.069   2.941  0.1284  3.1132  0.3307
16984TIP3    H272368   1.608   5.011   3.027  0.0826  1.3454 -0.7435
16985TIP3   OH272369   6.045   5.603  13.439  0.1192 -0.3845 -0.3323
16985TIP3    H172370   5.967   5.643  13.477 -1.2896 -1.3837 -1.9816
16985TIP3    H272371   6.051   5.517  13.481  0.0895 -0.4714 -0.5051
16986TIP3   OH272372   5.725   5.089  11.380  0.3176 -0.3375 -0.3475
16986TIP3    H172373   5.633   5.093  11.354  0.0177  1.4537  0.8097
16986TIP3    H272374   5.763   5.021  11.324 -1.4779 -0.4298 -1.5362
16987TIP3   OH272375   3.229   2.423   5.500  0.0333 -0.0053  0.3513
16987TIP3    H172376   3.256   2.375   5.422  1.6605  2.5024 -0.7471
16987TIP3    H272377   3.285   2.388   5.570  0.9619  0.0227 -0.3566
16988TIP3   OH272378   3.106   6.388  12.187  0.1116 -0.7878  0.3101
16988TIP3    H172379   3.193   6.355  12.211  1.3045  0.5904 -1.8206
16988TIP3    H272380   3.097   6.470  12.237  0.1657 -0.7884  0.3210
16989TIP3   OH272381   0.336   5.481  15.629 -0.2497  0.2614  0.0155
16989TIP3    H172382   0.415   5.467  15.681  1.3288 -1.3385 -2.6080
16989TIP3    H272383   0.270   5.424  15.669  1.4837 -2.4806 -0.7923
16990TIP3   OH272384   6.709   0.176   0.418 -0.0709  0.9058 -0.0969
16990TIP3    H172385   6.762   0.148   0.493  0.1945  1.7895  0.0572
16990TIP3    H272386   6.760   0.148   0.341 -0.1492  0.3533  0.0519
16991TIP3   OH272387   4.424   3.099   1.219  0.8809  0.3541  0.0710
16991TIP3    H172388   4.338   3.129   1.248  1.0211  0.0571  0.7920
16991TIP3    H272389   4.486   3.164   1.253  1.1213 -0.3905  1.1004
16992TIP3   OH272390   3.397   6.330  15.996  0.0150 -0.0054 -0.0338
16992TIP3    H172391   3.447   6.321  15.915  2.4224 -1.5816  1.4998
16992TIP3    H272392   3.349   6.248  16.004 -0.3441  0.2105  0.0656
16993TIP3   OH272393   0.274   1.248   6.147 -0.0045  0.1246 -0.1222
16993TIP3    H172394   0.310   1.333   6.174 -0.3967  0.6109 -1.0806
16993TIP3    H272395   0.309   1.234   6.059 -2.3057  0.7589 -1.2245
16994TIP3   OH272396   5.361   0.623   5.348  0.4309 -0.0707 -0.1623
16994TIP3    H172397   5.344   0.704   5.301  2.3359  0.7242  0.4294
16994TIP3    H272398   5.395   0.563   5.282  0.6485  0.1940 -0.2932
16995TIP3   OH272399   1.154   6.462  14.394  0.0460 -0.0797  0.2057
16995TIP3    H172400   1.236   6.444  14.440  0.9434 -0.3619 -1.4351
16995TIP3    H272401   1.116   6.537  14.441  1.5366  0.4390  0.6336
16996TIP3   OH272402   1.957   4.231  10.743 -0.2309  0.5101  0.1336
16996TIP3    H172403   1.875   4.270  10.776  0.0520  1.6341 -0.4593
16996TIP3    H272404   2.022   4.254  10.810 -0.4446 -0.6890  0.7847
16997TIP3   OH272405   1.699   0.860  16.784 -0.3554  0.3611 -0.2848
16997TIP3    H172406   1.682   0.900  16.699 -1.3438 -0.2676 -0.4020
16997TIP3    H272407   1.793   0.874  16.799  0.4146 -1.6211 -2.5872
16998TIP3   OH272408   3.637   2.925  13.327  0.0209 -0.8646 -0.3291
16998TIP3    H172409   3.611   3.004  13.279  0.7643  0.5639  1.5369
16998TIP3    H272410   3.558   2.900  13.375  0.1091 -0.5592 -0.0187
16999TIP3   OH272411   0.126   5.432  16.298  0.3385 -0.6888 -0.2552
16999TIP3    H172412   0.215   5.421  16.264  0.5833  2.1630 -0.7644
16999TIP3    H272413   0.072   5.448  16.220 -0.0548  0.6380  0.2676
17000TIP3   OH272414   3.642   3.641   1.346  0.0429 -0.4265 -0.0083
17000TIP3    H172415   3.726   3.633   1.301  0.6333 -0.8655  1.1337
17000TIP3    H272416   3.665   3.650   1.439 -1.1759 -1.5403  0.4362
17001TIP3   OH272417   5.677   6.608   3.180  0.0008 -0.2368 -0.3416
17001TIP3    H172418   5.740   6.548   3.220  0.9044  1.3351  0.7277
17001TIP3    H272419   5.633   6.556   3.113  0.6140 -2.1055  0.6383
17002TIP3   OH272420   6.606   4.829   2.016 -0.4360  0.1515  0.1859
17002TIP3    H172421   6.610   4.761   2.084 -2.0212  1.0725  1.2754
17002TIP3    H272422   6.529   4.806   1.964  0.8716 -0.6579 -1.5087
17003TIP3   OH272423   2.358   4.126   2.897  0.0560 -0.5693  0.1227
17003TIP3    H172424   2.301   4.175   2.838  1.0173  0.6423  0.1592
17003TIP3    H272425   2.328   4.148   2.985  0.9267  0.5998  0.1675
17004TIP3   OH272426   0.024   6.493  13.564 -0.0981  0.0615  0.4537
17004TIP3    H172427   0.036   6.448  13.648 -1.3344  0.4301  0.8496
17004TIP3    H272428   0.110   6.488  13.522 -0.0042 -2.0881  0.7679
17005TIP3   OH272429   5.894   1.121  12.118 -0.8687 -0.6380  0.2215
17005TIP3    H172430   5.863   1.074  12.196  1.6961  0.8817  2.3474
17005TIP3    H272431   5.838   1.198  12.113 -1.1078 -0.7879  0.5534
17006TIP3   OH272432   4.639   3.014  12.588 -0.0277 -0.3288  0.0028
17006TIP3    H172433   4.614   3.004  12.680 -1.2308  1.2870 -0.1116
17006TIP3    H272434   4.730   3.043  12.591 -0.3907  0.7997  0.7602
17007TIP3   OH272435   6.036   6.250  16.360  0.1281  0.0747  0.1779
17007TIP3    H172436   6.018   6.237  16.267 -0.4777 -1.3934  0.4697
17007TIP3    H272437   6.130   6.235  16.369  0.4399  1.5633 -0.3869
17008TIP3   OH272438   5.127   1.255   6.521 -0.0157 -0.4540  0.5163
17008TIP3    H172439   5.103   1.301   6.441  2.9532  0.2905 -0.0349
17008TIP3    H272440   5.043   1.223   6.556 -1.5162  0.1752 -2.2362
17009TIP3   OH272441   3.459   1.408   2.650 -0.1489 -0.5349  0.1336
17009TIP3    H172442   3.478   1.497   2.679 -0.5626 -0.0305 -1.0699
17009TIP3    H272443   3.456   1.414   2.554 -0.0096 -1.8802  0.0236
17010TIP3   OH272444   0.601   5.152   5.742 -0.4857 -0.1706  0.2377
17010TIP3    H172445   0.605   5.181   5.833 -0.9696 -0.9964  0.5319
17010TIP3    H272446   0.535   5.209   5.702 -1.0530 -0.5058  0.6810
17011TIP3   OH272447   0.767   2.730  11.446  0.7121 -0.3249  0.3745
17011TIP3    H172448   0.788   2.669  11.376 -0.1864  0.2158 -0.4025
17011TIP3    H272449   0.840   2.724  11.507  1.0118 -1.5697 -0.0914
17012TIP3   OH272450   5.500   3.826  10.415  0.5345  0.0794 -0.5922
17012TIP3    H172451   5.542   3.790  10.336  0.0060 -0.2614 -0.7190
17012TIP3    H272452   5.484   3.749  10.470  0.7921  0.3041 -0.2034
17013TIP3   OH272453   3.283   1.725  15.188 -0.7616  0.4610  0.0905
17013TIP3    H172454   3.208   1.745  15.244 -1.2853  0.1919 -0.4930
17013TIP3    H272455   3.245   1.714  15.100 -0.5932 -2.9577  0.2930
17014TIP3   OH272456   3.918   2.523   0.430 -0.1858 -0.1279  0.6727
17014TIP3    H172457   3.955   2.573   0.357  0.5768 -2.1326 -0.4030
17014TIP3    H272458   3.824   2.533   0.422 -0.1230 -0.5343 -0.7831
17015TIP3   OH272459   5.318   0.855   1.916  0.1825 -0.3594 -0.0827
17015TIP3    H172460   5.364   0.905   1.983 -0.5630 -0.3266  0.4143
17015TIP3    H272461   5.233   0.899   1.907 -0.4811 -1.5035  0.3472
17016TIP3   OH272462   4.238   5.265  13.517  0.4640  0.1878  0.9515
17016TIP3    H172463   4.229   5.257  13.422 -1.2761 -1.4475  1.1784
17016TIP3    H272464   4.149   5.251  13.550  1.4529 -1.9692  2.9396
17017TIP3   OH272465   3.130   2.124  13.592 -0.0801 -0.5772 -0.0129
17017TIP3    H172466   3.035   2.131  13.582 -0.3434 -0.1063  2.1642
17017TIP3    H272467   3.144   2.038  13.633  0.4296 -0.6556 -0.3432
17018TIP3   OH272468   5.883   4.976   3.809  0.1984  0.0599  0.0359
17018TIP3    H172469   5.800   5.001   3.770  0.0646 -0.6069 -0.1038
17018TIP3    H272470   5.930   4.930   3.739  0.2640 -0.4645  0.4182
17019TIP3   OH272471   3.537   5.243  11.609  0.1270 -0.3145  0.2533
17019TIP3    H172472   3.540   5.164  11.554 -0.0859 -0.1235 -0.0354
17019TIP3    H272473   3.449   5.278  11.596  0.9311  1.2579 -1.4444
17020TIP3   OH272474   0.888   4.327   1.468  0.3986  0.5253  0.2658
17020TIP3    H172475   0.917   4.300   1.555  2.1734 -0.1154 -0.4806
17020TIP3    H272476   0.929   4.412   1.454  0.6347  0.3401 -0.1874
17021TIP3   OH272477   2.026   6.741  16.507 -1.0181 -0.3500  0.0092
17021TIP3    H172478   2.071   6.674  16.559 -0.5766  0.6246  0.9211
17021TIP3    H272479   1.946   6.760  16.556 -0.8132  0.2663  0.1160
17022TIP3   OH272480   2.469   4.349  13.345 -0.1132  0.6082  0.1768
17022TIP3    H172481   2.527   4.411  13.300  1.0597 -0.8087 -0.3582
17022TIP3    H272482   2.381   4.375  13.318  0.4047  1.4711 -0.7623
17023TIP3   OH272483   2.924   6.285   0.063 -0.2197 -0.0241 -0.4477
17023TIP3    H172484   2.956   6.200   0.096 -2.0242 -1.2625 -1.7194
17023TIP3    H272485   2.947   6.347   0.132  0.5865 -1.6587  0.8297
17024TIP3   OH272486   2.212   4.462   4.338 -0.2483  0.1133 -0.3727
17024TIP3    H172487   2.269   4.447   4.414 -1.5804 -1.5098  0.3802
17024TIP3    H272488   2.154   4.533   4.365  0.5979  0.9400 -0.6805
17025TIP3   OH272489   3.309   3.777   0.837 -0.1529 -0.2669 -0.3346
17025TIP3    H172490   3.376   3.709   0.842 -0.4247 -0.6172 -1.2232
17025TIP3    H272491   3.340   3.846   0.895  0.0828 -1.1843  0.6755
17026TIP3   OH272492   0.392   5.235   5.910 -0.1980  0.2006 -0.0172
17026TIP3    H172493   0.312   5.253   5.861  0.1407  0.8280 -0.3500
17026TIP3    H272494   0.363   5.180   5.983 -0.7537 -0.5080 -0.7488
17027TIP3   OH272495   3.158   6.754   4.521  0.7765  0.4519  0.2666
17027TIP3    H172496   3.200   6.761   4.435 -1.5633 -0.5491 -1.0403
17027TIP3    H272497   3.175   6.664   4.549 -1.9577 -0.6495 -1.2083
17028TIP3   OH272498   4.857   2.544   4.339 -0.0839 -0.1011 -0.5620
17028TIP3    H172499   4.886   2.479   4.275  0.5223 -0.5091  0.1162
17028TIP3    H272500   4.789   2.593   4.294  1.3503  0.6069 -2.0709
17029TIP3   OH272501   1.904   4.679   5.307  0.0701  0.0133  0.3349
17029TIP3    H172502   1.980   4.662   5.251 -0.4886  0.8106 -0.7071
17029TIP3    H272503   1.829   4.660   5.251 -0.5301  2.2515  0.2940
17030TIP3   OH272504   1.130   4.054  15.221 -0.0191 -0.2077  0.2833
17030TIP3    H172505   1.171   4.120  15.277  1.5936 -1.9120  1.2165
17030TIP3    H272506   1.154   4.080  15.132  1.2914  0.0650  0.6879
17031TIP3   OH272507   6.076   0.158  13.378  0.6350 -0.8565  0.0071
17031TIP3    H172508   6.121   0.086  13.334  1.8703  0.7297 -1.4503
17031TIP3    H272509   6.146   0.209  13.418  0.0765  0.9126 -1.1483
17032TIP3   OH272510   6.314   0.056  14.033  1.0649 -0.2961 -0.6286
17032TIP3    H172511   6.301  -0.017  13.973  1.0904  0.6437 -1.8099
17032TIP3    H272512   6.386   0.107  13.995 -0.8252  1.9494 -1.4875
17033TIP3   OH272513   4.607   2.942  14.359  0.7787 -0.0891 -0.0089
17033TIP3    H172514   4.539   2.876  14.343  0.5551  0.2384 -0.4069
17033TIP3    H272515   4.680   2.892  14.395  0.1069 -0.3651  1.0244
17034TIP3   OH272516   6.603   0.726  16.777 -0.5099  0.3539 -0.2394
17034TIP3    H172517   6.627   0.819  16.772  0.9641 -0.0452 -1.4398
17034TIP3    H272518   6.571   0.714  16.866 -0.1831  1.9000  0.1131
17035TIP3   OH272519   2.878   0.226  16.077  0.4565  0.3653 -0.6760
17035TIP3    H172520   2.786   0.199  16.073  0.7508 -0.6473 -0.9454
17035TIP3    H272521   2.920   0.162  16.133  1.1218  0.4550 -1.0570
17036TIP3   OH272522   6.397   1.850  16.777  0.0689 -0.1236  0.7275
17036TIP3    H172523   6.310   1.838  16.815  0.5830 -1.9227  1.4264
17036TIP3    H272524   6.423   1.938  16.804 -1.1309  0.0521  1.3680
17037TIP3   OH272525   2.560   2.244  11.801 -0.1157 -0.0797 -0.5216
17037TIP3    H172526   2.521   2.160  11.825 -0.7383 -0.4572 -2.5869
17037TIP3    H272527   2.489   2.308  11.814  0.4519  0.2153  1.3436
17038TIP3   OH272528   3.510   5.599  17.034 -0.2687 -0.3963 -0.5711
17038TIP3    H172529   3.552   5.548  16.965  3.0954  1.6610 -0.2772
17038TIP3    H272530   3.519   5.690  17.004 -1.2839  0.3658  1.2947
17039TIP3   OH272531   1.430   1.318  17.080 -0.7492 -0.8350  0.4061
17039TIP3    H172532   1.341   1.343  17.102 -1.0225  0.0053 -1.4876
17039TIP3    H272533   1.467   1.286  17.162 -1.9761  1.1673  1.8086
17040TIP3   OH272534   0.019   4.456  12.734  0.0662  0.4602  0.8031
17040TIP3    H172535  -0.001   4.400  12.809  0.2979  0.2309  0.6952
17040TIP3    H272536  -0.026   4.415  12.660  0.4545  0.2733  0.6738
17041TIP3   OH272537   2.436   4.390  13.749 -0.6013  0.1762  0.2198
17041TIP3    H172538   2.492   4.463  13.773 -0.8555  1.0636 -1.6905
17041TIP3    H272539   2.356   4.430  13.717 -0.6652 -0.8890 -1.0782
17042TIP3   OH272540   6.132   4.042  12.531 -0.3905  0.2621 -0.0978
17042TIP3    H172541   6.206   3.990  12.563 -0.4875 -0.2422 -0.6726
17042TIP3    H272542   6.156   4.065  12.441 -0.1562  1.5988  0.2864
17043TIP3   OH272543   0.730   1.888  11.898 -0.1411 -0.0716 -0.4454
17043TIP3    H172544   0.807   1.932  11.933 -0.7229  0.1280  0.5960
17043TIP3    H272545   0.739   1.898  11.803  0.8549  0.3761 -0.3237
17044TIP3   OH272546   1.784   5.833  11.476 -0.4210 -0.3811  0.3206
17044TIP3    H172547   1.743   5.823  11.390 -0.3394  0.0197  0.2329
17044TIP3    H272548   1.786   5.744  11.512 -0.1085 -0.6171 -0.2510
17045TIP3   OH272549   1.799   3.104  16.288 -0.4652 -0.0077  0.0692
17045TIP3    H172550   1.789   3.198  16.302  0.8986  0.1639 -0.0594
17045TIP3    H272551   1.804   3.066  16.376  1.2189  0.3056  0.1316
17046TIP3   OH272552   1.547   3.159   1.705  0.5557  0.2033 -0.6735
17046TIP3    H172553   1.533   3.243   1.661  0.1142  0.1828 -0.5738
17046TIP3    H272554   1.503   3.095   1.649 -1.4002  0.3667  0.5832
17047TIP3   OH272555   5.039   3.407   0.729 -0.1887  0.8418  0.0471
17047TIP3    H172556   4.984   3.333   0.705 -1.4160  1.2553  1.4361
17047TIP3    H272557   5.126   3.370   0.741 -0.9443 -0.5742  1.5364
17048TIP3   OH272558   0.909   5.978  14.497 -0.1102  0.3251  0.3642
17048TIP3    H172559   0.988   6.025  14.525  0.3679  0.2632 -0.8448
17048TIP3    H272560   0.880   5.932  14.576  1.2067  0.1476  0.7731
17049TIP3   OH272561   1.694   0.426  16.623 -0.2837 -0.7598  0.0559
17049TIP3    H172562   1.734   0.471  16.548 -1.9361  1.2403  0.2671
17049TIP3    H272563   1.768   0.389  16.671  0.9441 -0.6763 -1.6793
17050TIP3   OH272564   6.484   1.085   3.647  0.1021  0.3789  0.1051
17050TIP3    H172565   6.409   1.134   3.681 -0.9747 -0.3540 -1.1157
17050TIP3    H272566   6.550   1.153   3.628 -0.2623  1.0404  1.1259
17051TIP3   OH272567   2.007   2.487   4.873  0.1058  0.0918 -0.1961
17051TIP3    H172568   2.040   2.425   4.807 -1.0879  0.2595 -0.9908
17051TIP3    H272569   1.990   2.433   4.950  0.9826 -0.2135 -0.2070
17052TIP3   OH272570   3.727   4.535  15.441 -0.1911 -0.0465  0.5018
17052TIP3    H172571   3.734   4.450  15.486  0.2843  0.3466  1.1967
17052TIP3    H272572   3.682   4.515  15.359  1.7160 -1.3359 -0.3170
17053TIP3   OH272573   4.226   1.869  11.582  0.0766  0.5030 -0.1009
17053TIP3    H172574   4.256   1.806  11.517 -1.8084  0.2428 -0.7729
17053TIP3    H272575   4.226   1.953  11.537  1.0573  0.7310  0.3094
17054TIP3   OH272576   2.301   6.401   2.559  0.0692  0.5992 -0.1434
17054TIP3    H172577   2.205   6.403   2.558  0.0652  0.5086 -0.0431
17054TIP3    H272578   2.327   6.411   2.468 -0.0794 -1.5457 -0.4804
17055TIP3   OH272579   5.969   2.906  15.447 -0.1611 -0.0728 -0.3615
17055TIP3    H172580   6.006   2.844  15.383 -2.4557 -0.6766 -1.2065
17055TIP3    H272581   5.962   2.855  15.528 -2.3541 -1.1468 -1.1394
17056TIP3   OH272582   3.124   6.244   2.683 -0.2620 -0.2161 -0.1743
17056TIP3    H172583   3.151   6.239   2.775 -0.8582 -0.8076 -0.0197
17056TIP3    H272584   3.194   6.200   2.635 -0.2671 -0.4882  0.0673
17057TIP3   OH272585   5.189   4.813  15.472  0.3178 -0.4544 -0.3779
17057TIP3    H172586   5.275   4.856  15.470  1.2559 -2.1989  0.0717
17057TIP3    H272587   5.210   4.720  15.486 -1.6851 -0.8139  0.4654
17058TIP3   OH272588   5.055   1.007  16.958 -0.0036 -0.7564  0.6305
17058TIP3    H172589   5.105   0.968  17.030  1.3447  1.0844  0.7476
17058TIP3    H272590   5.117   1.012  16.886  0.8920  3.5903  1.4238
17059TIP3   OH272591   4.274   6.567   1.706  0.7151 -0.3340 -0.0196
17059TIP3    H172592   4.296   6.510   1.779  0.3524 -2.8961 -1.7577
17059TIP3    H272593   4.187   6.601   1.726  0.3835 -1.4501  0.5254
17060TIP3   OH272594   5.817   6.017  12.556  0.5140  0.1331  0.3831
17060TIP3    H172595   5.844   6.052  12.471  0.9899 -0.6892  0.1925
17060TIP3    H272596   5.791   5.927  12.538  0.4467  0.0093  1.0793
17061TIP3   OH272597   0.812   4.383  11.061  0.0725 -0.2861  0.0960
17061TIP3    H172598   0.774   4.360  10.977 -0.2873  1.9649 -0.4342
17061TIP3    H272599   0.739   4.378  11.123 -0.5438  1.4917 -0.4352
17062TIP3   OH272600   3.106   6.388   0.509  0.3022  0.3371 -0.1422
17062TIP3    H172601   3.174   6.328   0.540 -1.9349 -1.4372  1.7155
17062TIP3    H272602   3.064   6.419   0.589  0.1132  2.9275 -1.1554
17063TIP3   OH272603   1.286   3.898  11.414 -0.6358  0.1699 -0.0068
17063TIP3    H172604   1.336   3.830  11.459 -0.3116 -0.1204 -0.7780
17063TIP3    H272605   1.353   3.954  11.375 -0.8819 -0.4556 -1.3955
17064TIP3   OH272606   6.596   4.129  17.055 -0.3170  0.5456  0.0374
17064TIP3    H172607   6.553   4.129  16.970 -0.2762  1.1696  0.0115
17064TIP3    H272608   6.610   4.036  17.075 -1.0201  0.3686 -0.2799
17065TIP3   OH272609   6.444   5.302   1.670 -0.2484  0.2224 -0.3310
17065TIP3    H172610   6.510   5.283   1.603 -0.9239 -1.2128 -0.6285
17065TIP3    H272611   6.369   5.247   1.646 -1.3214  1.3391  0.3699
17066TIP3   OH272612   4.662   1.720   1.807 -0.1234  0.0357  0.2803
17066TIP3    H172613   4.754   1.746   1.808 -0.5429  1.5948  1.1377
17066TIP3    H272614   4.614   1.800   1.787 -1.2644 -0.9489 -1.1113
17067TIP3   OH272615   2.687   0.081  13.795 -0.3482  0.1295 -0.1401
17067TIP3    H172616   2.759   0.102  13.736  0.6447  1.7719  1.5474
17067TIP3    H272617   2.617   0.140  13.769 -0.3145  0.0683 -0.3783
17068TIP3   OH272618   5.466   2.216  13.491 -0.0694 -0.2295 -0.6990
17068TIP3    H172619   5.512   2.136  13.465  0.4856  0.4975 -2.1182
17068TIP3    H272620   5.517   2.250  13.565 -0.3249 -1.1935 -0.0747
17069TIP3   OH272621   0.359   4.475  11.389 -0.5715  0.3038  0.2640
17069TIP3    H172622   0.287   4.413  11.379  0.8777 -1.9499  2.4767
17069TIP3    H272623   0.320   4.553  11.427 -2.2773  0.4078 -1.5524
17070TIP3   OH272624   1.122   6.042   6.324  0.2747  0.0399 -0.0886
17070TIP3    H172625   1.205   5.999   6.303  1.4814  2.4760 -0.6267
17070TIP3    H272626   1.138   6.083   6.409 -0.7004 -0.2031  0.2163
17071TIP3   OH272627   5.316   2.296  17.362 -0.0965 -0.1081 -0.2103
17071TIP3    H172628   5.378   2.224  17.365 -1.0794 -0.9451  0.8668
17071TIP3    H272629   5.358   2.365  17.413  0.4025 -0.2671 -0.3922
17072TIP3   OH272630   1.493   4.460   0.092 -0.5199  0.2060  0.2324
17072TIP3    H172631   1.540   4.417   0.164 -0.3554  1.2082  0.7461
17072TIP3    H272632   1.516   4.409   0.015 -0.7356 -0.9265  0.8860
17073TIP3   OH272633   4.640   6.401  16.828  0.0033  0.5454  0.0810
17073TIP3    H172634   4.666   6.438  16.913  3.1523 -1.6067  0.2181
17073TIP3    H272635   4.620   6.477  16.774  0.0255  2.0899  2.1131
17074TIP3   OH272636   5.251   5.154   5.942  0.1781  0.2684  0.1631
17074TIP3    H172637   5.319   5.208   5.982  0.3696  0.3339 -0.2441
17074TIP3    H272638   5.171   5.207   5.949  0.3785  0.6412 -0.2971
17075TIP3   OH272639   6.371   0.638  14.490 -0.3413 -0.2937  0.5191
17075TIP3    H172640   6.386   0.611  14.581  1.3415 -0.2777  0.2676
17075TIP3    H272641   6.310   0.712  14.497  1.2826  0.9953  1.8071
17076TIP3   OH272642   3.287   5.492   4.900  0.3449  0.5039 -0.1197
17076TIP3    H172643   3.211   5.534   4.941 -0.5198  1.7157 -2.7142
17076TIP3    H272644   3.350   5.563   4.888  0.5972  0.1786 -0.7731
17077TIP3   OH272645   3.626   5.880  14.338 -0.0899 -0.2472 -0.5388
17077TIP3    H172646   3.660   5.968  14.357 -0.1581 -0.2064 -0.6053
17077TIP3    H272647   3.704   5.826  14.326  0.0089  0.3651 -3.2079
17078TIP3   OH272648   2.255   4.127  13.210  0.3115 -0.0720 -0.0206
17078TIP3    H172649   2.258   4.092  13.120 -0.0122  0.1609 -0.1259
17078TIP3    H272650   2.184   4.079  13.252  0.7072 -0.4455  0.2285
17079TIP3   OH272651   5.745   4.517   0.918 -0.2934  0.1279  0.2669
17079TIP3    H172652   5.724   4.435   0.874 -1.4772  0.3075  0.4586
17079TIP3    H272653   5.720   4.502   1.009  2.1819 -0.2579  0.9633
17080TIP3   OH272654   6.357   2.637   0.921 -0.1831 -0.5789  0.0038
17080TIP3    H172655   6.412   2.560   0.911  0.7908  0.2058 -0.9960
17080TIP3    H272656   6.408   2.708   0.882 -1.6730  0.2940 -0.4611
17081TIP3   OH272657   2.464   5.242   6.197  0.0555 -0.3607 -0.4544
17081TIP3    H172658   2.486   5.331   6.170 -0.9118  1.1037  2.9140
17081TIP3    H272659   2.463   5.191   6.117 -1.2390  3.0797 -2.8629
17082TIP3   OH272660   1.812   5.726  14.155 -0.3289 -0.0823  0.2390
17082TIP3    H172661   1.754   5.795  14.122  1.3018  0.9943 -0.4556
17082TIP3    H272662   1.807   5.735  14.250 -2.7268 -1.2572  0.3059
17083TIP3   OH272663   3.115   0.251  13.554 -0.0734  0.1215 -0.1192
17083TIP3    H172664   3.150   0.290  13.474  0.7848 -0.2932  0.0495
17083TIP3    H272665   3.151   0.304  13.625  0.8736 -0.7754  0.0956
17084TIP3   OH272666   6.025   4.443  15.666  0.1763  0.0594 -0.5177
17084TIP3    H172667   6.104   4.482  15.702  0.4763  1.3501 -2.4231
17084TIP3    H272668   5.963   4.516  15.661 -1.2408 -0.9519  1.0599
17085TIP3   OH272669   0.479   0.770   0.479 -0.0137  0.1794 -0.0770
17085TIP3    H172670   0.443   0.814   0.555  0.4866  1.7904 -0.7399
17085TIP3    H272671   0.418   0.791   0.408  1.2751  1.5256 -0.8305
17086TIP3   OH272672   2.496   0.195   4.236 -0.2802 -0.8860 -0.2060
17086TIP3    H172673   2.436   0.162   4.303 -1.8116  1.1682 -0.4736
17086TIP3    H272674   2.532   0.116   4.195  0.7512 -2.2492  2.9603
17087TIP3   OH272675   6.682   3.895   1.239  0.0278 -0.4227  0.0051
17087TIP3    H172676   6.596   3.861   1.213  1.0472 -2.3034 -1.1155
17087TIP3    H272677   6.666   3.937   1.323 -1.6218 -2.5377  0.8368
17088TIP3   OH272678   4.710   1.802  11.930 -0.2313  0.5850 -0.1236
17088TIP3    H172679   4.758   1.883  11.946  0.1358  0.4692 -0.5956
17088TIP3    H272680   4.640   1.827  11.870 -0.5758  0.6942  0.3202
17089TIP3   OH272681   6.324   3.853  12.420 -0.1253 -0.0798  0.8410
17089TIP3    H172682   6.348   3.914  12.351  0.5200  0.1772  1.2725
17089TIP3    H272683   6.392   3.786  12.418 -0.2282 -0.1948  1.0705
17090TIP3   OH272684   5.379   3.673  13.574 -0.2950 -0.6456 -0.0862
17090TIP3    H172685   5.441   3.644  13.507  0.6805 -0.9026  0.8993
17090TIP3    H272686   5.329   3.595  13.595 -0.1522 -0.7250 -0.0401
17091TIP3   OH272687   0.332   2.042   4.364 -0.6116 -0.5223  0.2338
17091TIP3    H172688   0.422   2.075   4.366 -0.3091 -1.3373  0.6513
17091TIP3    H272689   0.322   2.004   4.277 -0.8229  0.2683 -0.0980
17092TIP3   OH272690   1.883   3.419   0.925 -0.0951  0.5063  0.1857
17092TIP3    H172691   1.789   3.435   0.915 -0.0261  1.4759  0.8927
17092TIP3    H272692   1.924   3.503   0.903  0.6399 -0.0203 -0.5061
17093TIP3   OH272693   0.573   5.257  11.617 -0.2268 -0.3460  0.1135
17093TIP3    H172694   0.656   5.270  11.663 -0.6795 -0.8880  1.1244
17093TIP3    H272695   0.507   5.290  11.676 -0.8005 -0.6655 -0.3346
17094TIP3   OH272696   5.963   2.627  17.131 -0.4818  0.4281  0.5734
17094TIP3    H172697   5.940   2.720  17.134 -1.5771  0.1428  3.3559
17094TIP3    H272698   6.058   2.625  17.142  0.2104  1.2659 -3.4535
17095TIP3   OH272699   5.689   0.515  11.614  0.2069  0.6669 -0.6604
17095TIP3    H172700   5.715   0.523  11.522  1.5772  2.5741 -0.1694
17095TIP3    H272701   5.596   0.538  11.615  0.6465  2.7364 -1.3742
17096TIP3   OH272702   2.366   0.583  14.507 -0.1294  0.6475  0.5386
17096TIP3    H172703   2.339   0.672  14.530 -1.5962  0.2850  0.3466
17096TIP3    H272704   2.452   0.572  14.546  0.2276  2.2734  0.2684
17097TIP3   OH272705   4.096   0.996  15.029  0.4843 -0.1900  0.2582
17097TIP3    H172706   4.067   1.042  14.950  0.0216  1.4370  1.3385
17097TIP3    H272707   4.039   0.919  15.034 -2.2276  1.7462  1.1004
17098TIP3   OH272708   3.589   0.381  11.239  0.0808 -0.9020 -0.9556
17098TIP3    H172709   3.509   0.432  11.245  0.0024 -1.0612 -0.6131
17098TIP3    H272710   3.628   0.388  11.326  2.4816  2.4309 -2.0966
17099TIP3   OH272711   2.891   3.048  16.496 -0.0223 -0.3385  0.1824
17099TIP3    H172712   2.976   3.081  16.524  0.7531 -1.2626 -0.9446
17099TIP3    H272713   2.889   2.958  16.528  0.1238 -0.8317 -1.1204
17100TIP3   OH272714   2.870   3.935  14.013  0.3896  0.1713 -0.2961
17100TIP3    H172715   2.845   4.026  13.997  0.4157 -0.0089 -1.4429
17100TIP3    H272716   2.853   3.891  13.930 -0.1516 -0.9953  0.4119
17101TIP3   OH272717   2.638   3.909   5.275  0.2840 -0.2361 -0.0765
17101TIP3    H172718   2.678   3.980   5.325 -2.2863  1.9152 -0.8113
17101TIP3    H272719   2.631   3.837   5.337  1.9468  0.5249  1.0562
17102TIP3   OH272720   0.159   1.106  13.133 -0.6665 -0.2876  0.7473
17102TIP3    H172721   0.229   1.063  13.181 -0.9029 -0.2178  1.1668
17102TIP3    H272722   0.098   1.035  13.112  0.4847 -0.7092 -1.4035
17103TIP3   OH272723   2.707   4.361  16.094  0.1005 -0.2859 -0.4065
17103TIP3    H172724   2.615   4.364  16.067  0.7401 -1.5450 -3.0916
17103TIP3    H272725   2.736   4.273  16.070  2.2574  0.4005 -0.5521
17104TIP3   OH272726   5.074   3.444  16.408 -0.1220  0.4789  0.5354
17104TIP3    H172727   5.134   3.409  16.343 -0.0346 -0.2168  0.9736
17104TIP3    H272728   5.130   3.492  16.470 -0.0836  0.3037  0.6358
17105TIP3   OH272729   3.464   5.985   1.825  0.1717 -0.4477  0.2436
17105TIP3    H172730   3.538   5.927   1.843  1.3527  0.9836  0.1118
17105TIP3    H272731   3.481   6.063   1.878 -0.4746  0.5030 -0.9145
17106TIP3   OH272732   6.627   3.401  16.269  0.7416  0.0528  0.6321
17106TIP3    H172733   6.638   3.464  16.340 -0.3153  0.0377  0.8251
17106TIP3    H272734   6.632   3.316  16.313 -0.7258  0.0503  0.8409
17107TIP3   OH272735   6.225   2.936   0.813 -0.0190 -0.3082  0.0235
17107TIP3    H172736   6.252   2.931   0.721 -1.8500 -2.1220 -0.4884
17107TIP3    H272737   6.158   3.004   0.815  0.1179 -0.1720  0.0684
17108TIP3   OH272738   6.520   6.096   2.160  0.1085  0.1571  0.1984
17108TIP3    H172739   6.596   6.095   2.101  0.2330 -1.1063  0.3370
17108TIP3    H272740   6.445   6.113   2.103  0.4920  1.5648  0.0801
17109TIP3   OH272741   5.846   1.613   4.402 -0.3016  0.1657 -0.1971
17109TIP3    H172742   5.892   1.602   4.485 -1.7754 -1.8974  0.4512
17109TIP3    H272743   5.888   1.551   4.343 -0.3059  0.4315 -0.4764
17110TIP3   OH272744   4.908   3.347   4.805  0.1942 -0.3801 -0.0374
17110TIP3    H172745   4.934   3.299   4.726  1.3278  0.6847 -0.3334
17110TIP3    H272746   4.905   3.279   4.873 -0.0187 -1.1755 -0.8105
17111TIP3   OH272747   2.090   2.767  11.305 -0.5266 -0.3726  0.0335
17111TIP3    H172748   2.090   2.840  11.244 -0.4771 -0.0875  0.3729
17111TIP3    H272749   2.002   2.729  11.298 -0.3576 -0.6664 -0.5938
17112TIP3   OH272750   0.830   1.914   3.906  0.3769 -0.8101  0.1102
17112TIP3    H172751   0.896   1.847   3.888  1.2333  0.2450 -0.8005
17112TIP3    H272752   0.873   1.997   3.883 -0.7918  0.0190  0.8293
17113TIP3   OH272753   0.062   3.827  14.600 -0.4752  0.2307  0.7039
17113TIP3    H172754   0.019   3.854  14.518 -0.3072 -0.6284  0.3222
17113TIP3    H272755   0.009   3.867  14.669 -2.0381 -0.9596  0.2559
17114TIP3   OH272756   2.558   6.209  12.332  0.1609 -0.0534 -0.0932
17114TIP3    H172757   2.479   6.185  12.282 -1.4843  1.9307  1.3587
17114TIP3    H272758   2.594   6.284  12.285  0.8850 -0.6157 -0.4443
17115TIP3   OH272759   1.892   2.452   2.258  0.5636 -0.5312 -0.0896
17115TIP3    H172760   1.927   2.371   2.294  1.2132 -1.1545 -1.9712
17115TIP3    H272761   1.945   2.522   2.297  2.1643 -1.2694 -0.8328
17116TIP3   OH272762   1.079   4.401  14.858  0.0135  0.4604  0.1631
17116TIP3    H172763   1.091   4.396  14.763 -0.4648  1.8742  0.0012
17116TIP3    H272764   1.135   4.474  14.886 -0.5462  0.6581  0.8138
17117TIP3   OH272765   3.178   5.250   0.528 -0.8464 -0.4087  0.2454
17117TIP3    H172766   3.222   5.335   0.526  1.0714 -1.3543 -1.2009
17117TIP3    H272767   3.199   5.215   0.615 -0.9373  0.2305  0.5328
17118TIP3   OH272768   5.286   3.583   5.597 -0.0778 -0.0894 -0.1933
17118TIP3    H172769   5.274   3.662   5.650  0.5213  0.4533 -0.8577
17118TIP3    H272770   5.343   3.610   5.525  0.0393 -1.0989 -0.4960
17119TIP3   OH272771   0.743   0.318   3.613  0.0964 -0.5540  0.3677
17119TIP3    H172772   0.797   0.240   3.629  0.0741 -0.8618 -0.9213
17119TIP3    H272773   0.673   0.312   3.679  0.5134 -1.2179  0.7704
17120TIP3   OH272774   5.916   2.269  14.674 -0.2795  0.1177 -0.5653
17120TIP3    H172775   5.918   2.362  14.695  1.5686  0.1552 -0.7678
17120TIP3    H272776   5.885   2.265  14.583 -0.7326  0.4897 -0.4316
17121TIP3   OH272777   2.841   2.257   0.284 -0.5473 -0.1693  0.6131
17121TIP3    H172778   2.924   2.281   0.326  0.8128 -1.3253 -1.2379
17121TIP3    H272779   2.841   2.161   0.284 -1.5355 -0.1857 -0.0488
17122TIP3   OH272780   3.801   1.950   2.680  0.7012 -0.4613 -0.1698
17122TIP3    H172781   3.764   2.038   2.680  1.5179 -0.1020  0.1111
17122TIP3    H272782   3.742   1.898   2.734  0.3842 -0.0096 -0.0794
17123TIP3   OH272783   1.229   6.477  16.110 -0.0056  0.0706  0.3420
17123TIP3    H172784   1.322   6.489  16.091 -0.1422  0.5600 -0.0509
17123TIP3    H272785   1.199   6.418  16.041 -0.1910  0.7002 -0.1312
17124TIP3   OH272786   1.185   4.740  11.570  0.8119  1.0411 -0.2476
17124TIP3    H172787   1.244   4.715  11.499  1.0927  1.5797 -0.2010
17124TIP3    H272788   1.118   4.794  11.528  0.4177  0.5461 -0.2749
17125TIP3   OH272789   3.710   3.565  13.419 -0.5625  0.1950  0.0338
17125TIP3    H172790   3.631   3.515  13.441 -0.8521 -0.1853 -1.7625
17125TIP3    H272791   3.688   3.609  13.337  1.4918 -0.8459 -1.1232
17126TIP3   OH272792   5.041   0.794   3.508  0.1388  0.3253 -0.4032
17126TIP3    H172793   5.117   0.836   3.468  0.2917  1.1761  0.7305
17126TIP3    H272794   5.079   0.733   3.573 -0.1381  0.7354  0.1483
17127TIP3   OH272795   4.479   1.242  16.644 -0.2657 -0.1544 -0.0995
17127TIP3    H172796   4.547   1.214  16.706  0.1843 -1.1406 -1.0031
17127TIP3    H272797   4.501   1.333  16.625  1.1391 -0.5958 -0.7688
17128TIP3   OH272798   3.881   0.102   1.645  0.2895  0.2333 -0.3310
17128TIP3    H172799   3.936   0.113   1.567  1.4597  0.3083  0.4703
17128TIP3    H272800   3.799   0.065   1.612  0.1309  1.7893 -1.7981
17129TIP3   OH272801   0.361   4.734  12.503  0.1023 -0.2014 -0.5074
17129TIP3    H172802   0.269   4.709  12.509  0.1000  0.1474  2.4597
17129TIP3    H272803   0.409   4.655  12.532  0.5532  0.3595  0.3303
17130TIP3   OH272804   5.716   1.737   2.948 -0.4044  0.0924 -0.2570
17130TIP3    H172805   5.674   1.678   3.010 -2.0620  1.0289 -0.4292
17130TIP3    H272806   5.782   1.683   2.904 -1.4735 -1.4787 -0.0096
17131TIP3   OH272807   0.780   1.604   2.770  0.0936 -0.4482 -0.5332
17131TIP3    H172808   0.694   1.585   2.808 -0.4258  0.0777 -1.4133
17131TIP3    H272809   0.779   1.698   2.753  1.7877  0.0640  1.7100
17132TIP3   OH272810   3.962   1.323   1.750 -0.0010  0.8287  0.1901
17132TIP3    H172811   3.979   1.353   1.661 -1.3247  0.4151 -0.2210
17132TIP3    H272812   4.029   1.256   1.766  0.7756  1.5014 -0.1586
17133TIP3   OH272813   6.397   3.290   1.436 -0.4770 -0.5213 -0.3717
17133TIP3    H172814   6.308   3.271   1.467 -0.9134  0.7675 -0.7973
17133TIP3    H272815   6.406   3.237   1.357 -0.0233 -2.3981  0.8686
17134TIP3   OH272816   1.608   5.514  14.091  0.0629  0.0184 -0.4540
17134TIP3    H172817   1.609   5.530  13.996  3.6481 -2.1269 -0.9528
17134TIP3    H272818   1.688   5.555  14.123  0.6183 -2.1202  1.0442
17135TIP3   OH272819   3.982   1.281   5.729 -0.1112  0.1854 -0.1696
17135TIP3    H172820   4.014   1.363   5.765  0.6336 -0.0096 -0.3778
17135TIP3    H272821   3.886   1.291   5.730 -0.0286  1.1455 -0.4128
17136TIP3   OH272822   4.524   5.075   0.242 -0.3785  0.0617  0.3620
17136TIP3    H172823   4.605   5.038   0.205 -0.4302  0.3614 -0.0499
17136TIP3    H272824   4.532   5.169   0.228  0.0983  0.3227  2.0815
17137TIP3   OH272825   5.683   6.621   5.192 -0.2643 -0.0178 -0.3949
17137TIP3    H172826   5.729   6.542   5.221  0.0739 -0.1408 -1.2448
17137TIP3    H272827   5.721   6.691   5.245 -0.3875 -0.3805  0.1852
17138TIP3   OH272828   3.833   4.812  14.357 -1.0942 -0.0354  0.5485
17138TIP3    H172829   3.786   4.729  14.362 -1.4538  0.0349 -1.1821
17138TIP3    H272830   3.920   4.788  14.325 -1.2556  0.2575 -0.1320
17139TIP3   OH272831   2.762   5.941  12.067  0.2701  0.0717 -0.7500
17139TIP3    H172832   2.738   5.916  12.156  1.2881  1.6492  0.0030
17139TIP3    H272833   2.681   5.972  12.027 -0.1246 -0.3481 -0.2854
17140TIP3   OH272834   0.780   1.332  14.931 -0.5528  0.0739  0.1596
17140TIP3    H172835   0.740   1.278  14.864  0.1360  0.7502 -0.8205
17140TIP3    H272836   0.775   1.422  14.897 -0.5753  0.4933  1.2001
17141TIP3   OH272837   4.243   4.020  12.448 -0.4078 -0.7193 -0.3345
17141TIP3    H172838   4.228   3.966  12.370 -1.2926 -1.2168  0.1739
17141TIP3    H272839   4.332   4.053  12.436 -0.5358 -0.7569 -1.5778
17142TIP3   OH272840   3.218   1.485   5.879 -0.0206 -0.0813  0.0949
17142TIP3    H172841   3.268   1.407   5.901 -1.1234 -1.3895 -1.7439
17142TIP3    H272842   3.169   1.506   5.959 -0.6151 -2.0289  0.2902
17143TIP3   OH272843   1.470   4.798  15.152  0.1179 -0.0907 -0.0165
17143TIP3    H172844   1.407   4.726  15.142 -0.1925 -0.0434  1.4075
17143TIP3    H272845   1.548   4.769  15.105  1.0343 -2.6252  2.7508
17144TIP3   OH272846   6.315   6.217  11.684  0.2072  0.2763 -0.7180
17144TIP3    H172847   6.234   6.222  11.735 -1.1129  0.0998 -2.6881
17144TIP3    H272848   6.371   6.158  11.735 -0.5174  1.0972  1.1386
17145TIP3   OH272849   2.931   6.236   6.009  0.4979  0.2880 -0.0366
17145TIP3    H172850   2.884   6.309   6.049  0.0963  0.1411 -0.2250
17145TIP3    H272851   2.973   6.191   6.083  0.3045  0.4008  0.1441
17146TIP3   OH272852   0.316   4.350  15.711  0.6536  0.3554 -0.1464
17146TIP3    H172853   0.245   4.382  15.656  1.6359  2.5525 -0.2355
17146TIP3    H272854   0.273   4.289  15.772 -1.1793  1.0686 -0.6476
17147TIP3   OH272855   5.334   0.987  13.575  0.2982 -0.0921  0.2113
17147TIP3    H172856   5.306   0.904  13.536 -0.2897  0.6493 -1.0024
17147TIP3    H272857   5.342   0.967  13.668 -0.5475 -1.3306  0.0535
17148TIP3   OH272858   4.197   0.316   0.256  0.8169  0.3125  0.7869
17148TIP3    H172859   4.212   0.228   0.290  0.5776 -0.1097 -0.1850
17148TIP3    H272860   4.104   0.319   0.234  0.8365  0.7878  0.7465
17149TIP3   OH272861   6.267   0.985  11.252 -0.1791  0.4876  0.2210
17149TIP3    H172862   6.287   0.958  11.162 -1.6642  1.2767 -0.3919
17149TIP3    H272863   6.351   0.981  11.298  0.1578 -2.7205 -0.4256
17150TIP3   OH272864   1.739   6.398   1.719  0.1267 -0.0729 -0.4589
17150TIP3    H172865   1.777   6.353   1.794 -0.4683  0.5663  0.2362
17150TIP3    H272866   1.784   6.483   1.717 -0.0661  0.0252 -0.6594
17151TIP3   OH272867   1.682   3.452   6.013  0.6837  0.0344 -0.4685
17151TIP3    H172868   1.660   3.466   5.921 -1.2291 -3.0670 -0.6212
17151TIP3    H272869   1.661   3.360   6.030  2.9411 -0.1149  2.5705
17152TIP3   OH272870   0.920   2.480  11.788 -0.7867  0.2545  0.0874
17152TIP3    H172871   0.856   2.410  11.771 -1.8926  1.2136  0.1413
17152TIP3    H272872   0.989   2.437  11.839 -0.8875 -1.0441 -0.8163
17153TIP3   OH272873   1.097   4.671   0.452  0.0217  0.0025 -0.3292
17153TIP3    H172874   1.075   4.582   0.425  0.3053  0.5228 -2.4954
17153TIP3    H272875   1.119   4.716   0.370  0.7189  1.8352  0.7964
17154TIP3   OH272876   2.189   3.102   5.133  0.1078 -0.3456 -0.0943
17154TIP3    H172877   2.140   3.020   5.132 -1.1736  0.3731 -1.8501
17154TIP3    H272878   2.186   3.130   5.225  0.4616 -2.1589  0.5155
17155TIP3   OH272879   2.277   2.624   5.183 -0.7657 -0.1709  0.7811
17155TIP3    H172880   2.358   2.574   5.169 -0.8036 -0.6163  2.0494
17155TIP3    H272881   2.289   2.664   5.269 -0.9105  1.7020 -0.0292
17156TIP3   OH272882   1.334   4.478   5.141 -0.6762  0.1552 -0.6429
17156TIP3    H172883   1.419   4.460   5.183 -0.9059  1.7018  0.5680
17156TIP3    H272884   1.307   4.562   5.177 -3.5594 -1.0753  0.3553
17157TIP3   OH272885   0.535   0.106  14.012  0.7229 -0.4153 -0.1938
17157TIP3    H172886   0.548   0.161  14.090 -1.3872 -3.0781  2.2440
17157TIP3    H272887   0.484   0.161  13.953 -1.1907  0.4700  2.0827
17158TIP3   OH272888   1.447   6.486  11.478  0.4984 -0.2089  0.0920
17158TIP3    H172889   1.373   6.502  11.421 -0.0169 -0.8463  0.5688
17158TIP3    H272890   1.435   6.397  11.510  1.1795 -0.1354  0.5990
17159TIP3   OH272891   3.898   2.679   3.449  0.6503  0.3456 -0.3403
17159TIP3    H172892   3.859   2.719   3.527 -0.5874 -0.7492 -0.3526
17159TIP3    H272893   3.824   2.667   3.390  1.5520  1.0576 -1.6745
17160TIP3   OH272894   6.135   1.237  12.394 -0.2678  0.0395  0.1346
17160TIP3    H172895   6.160   1.229  12.302  0.2308 -0.6996  0.3184
17160TIP3    H272896   6.049   1.195  12.399 -0.4263  0.3387 -0.0432
17161TIP3   OH272897   1.178   0.903  14.974  0.5629  0.3036 -0.1633
17161TIP3    H172898   1.111   0.932  14.913  0.1013 -0.0923  0.1517
17161TIP3    H272899   1.160   0.951  15.055  0.2674 -0.2585  0.1162
17162TIP3   OH272900   2.588   1.913   6.081  0.0960  0.5775  0.3876
17162TIP3    H172901   2.665   1.970   6.070  0.6953 -0.6889 -3.1101
17162TIP3    H272902   2.618   1.843   6.139  1.1630  0.8083  0.1356
17163TIP3   OH272903   4.267   6.749  12.763  0.2912 -0.0100 -0.6636
17163TIP3    H172904   4.302   6.783  12.681  0.4690 -0.3006 -0.7065
17163TIP3    H272905   4.202   6.815  12.790  2.9246  2.1174  0.9670
17164TIP3   OH272906   1.069   3.586  11.673 -0.1536  0.6502 -0.4236
17164TIP3    H172907   0.988   3.534  11.667  0.4876 -0.3368 -0.6849
17164TIP3    H272908   1.063   3.646  11.599 -0.7151  0.6855 -0.3576
17165TIP3   OH272909   1.122   2.892  12.366  0.9557  0.6058  0.0027
17165TIP3    H172910   1.066   2.898  12.443  3.6603  2.0753  2.0280
17165TIP3    H272911   1.077   2.944  12.299 -3.0287 -3.2034 -0.7355
17166TIP3   OH272912   3.978   5.722   5.571 -0.0661 -0.1093  0.4658
17166TIP3    H172913   4.019   5.749   5.654  0.9463  0.0828 -0.0738
17166TIP3    H272914   4.004   5.630   5.561  1.7874  0.4738 -0.7258
17167TIP3   OH272915   2.232   4.275   5.645  0.1875 -0.1761  0.2530
17167TIP3    H172916   2.151   4.326   5.643 -1.4936 -2.4467  2.7771
17167TIP3    H272917   2.234   4.230   5.561 -1.3405 -0.3024  0.2615
17168TIP3   OH272918   6.539   0.519   4.920 -0.3329  0.3522  0.1085
17168TIP3    H172919   6.590   0.586   4.874  1.0702  0.0549  1.1672
17168TIP3    H272920   6.577   0.516   5.008 -1.0471 -1.0971  0.3939
17169TIP3   OH272921   1.364   3.925   3.595  0.3374  0.1614  0.2714
17169TIP3    H172922   1.417   3.996   3.631  1.8946 -1.0852  0.5657
17169TIP3    H272923   1.349   3.950   3.503  2.8234 -0.1419 -0.2823
17170TIP3   OH272924   2.787   0.879  11.729  0.0137 -0.3316  0.5753
17170TIP3    H172925   2.878   0.854  11.744  0.5554 -0.2473 -2.0139
17170TIP3    H272926   2.793   0.960  11.678 -1.4452 -1.0701 -0.8599
17171TIP3   OH272927   4.761   3.383  16.005 -0.0334  0.4220  0.2396
17171TIP3    H172928   4.688   3.369  15.944 -0.3230  1.6723  0.2668
17171TIP3    H272929   4.754   3.310  16.067 -0.2589 -0.3883 -0.7108
17172TIP3   OH272930   1.126   1.385   3.792 -0.3132 -0.3432  0.1374
17172TIP3    H172931   1.187   1.430   3.850  1.7062  0.0564 -2.1269
17172TIP3    H272932   1.131   1.293   3.818 -0.3740 -0.0180  1.3394
17173TIP3   OH272933   3.536   4.238  16.677  0.0610 -0.1374 -0.2224
17173TIP3    H172934   3.599   4.288  16.626  0.0443 -1.1006 -1.2421
17173TIP3    H272935   3.470   4.211  16.613 -0.6308 -0.3409  0.5541
17174TIP3   OH272936   0.375   1.417   0.348  0.3035  0.2366  0.1324
17174TIP3    H172937   0.443   1.466   0.301 -1.2010  2.0284 -0.2505
17174TIP3    H272938   0.351   1.473   0.421 -0.8033 -0.3654  0.2465
17175TIP3   OH272939   2.073   3.587  13.738 -0.6824  0.9885 -0.1444
17175TIP3    H172940   2.128   3.523  13.782 -1.0849  1.1414  0.5962
17175TIP3    H272941   2.015   3.535  13.682 -0.6253  0.7476  0.0226
17176TIP3   OH272942   6.219   2.304   2.382 -0.2136  0.7073 -0.3720
17176TIP3    H172943   6.176   2.313   2.467  1.5090  1.9713  0.4487
17176TIP3    H272944   6.170   2.237   2.336 -2.0594  0.9984  1.0748
17177TIP3   OH272945   2.051   1.598  16.787  0.0076 -0.4118 -0.0085
17177TIP3    H172946   2.042   1.678  16.735  0.0738  0.6310  1.5088
17177TIP3    H272947   1.963   1.560  16.788 -0.6624  1.0606  1.3866
17178TIP3   OH272948   0.031   5.925  14.641  0.1718 -0.6707  0.0662
17178TIP3    H172949   0.086   5.962  14.571  1.1276 -0.6268  0.8194
17178TIP3    H272950   0.024   5.832  14.619 -0.5675 -0.4402 -0.7471
17179TIP3   OH272951   5.072   3.683   2.355 -0.2821  0.1426 -0.3341
17179TIP3    H172952   5.095   3.757   2.411  1.6312 -0.0789 -0.7285
17179TIP3    H272953   5.026   3.722   2.281 -1.2688  0.6435  0.5102
17180TIP3   OH272954   5.367   2.462   0.576 -0.1932 -0.1005  0.2007
17180TIP3    H172955   5.302   2.439   0.509 -0.0343 -0.2678  0.1057
17180TIP3    H272956   5.334   2.544   0.613  1.1202  1.5537 -1.9889
17181TIP3   OH272957   4.887   0.890  10.862  0.5827 -0.3540 -0.3462
17181TIP3    H172958   4.867   0.828  10.933  1.0075  1.0624  1.0798
17181TIP3    H272959   4.884   0.976  10.905  0.5994  0.5698 -2.1279
17182TIP3   OH272960   3.026   3.027   5.628 -0.0222  0.3900 -0.2943
17182TIP3    H172961   3.046   2.950   5.682 -0.1987  0.3170 -0.3327
17182TIP3    H272962   2.985   2.991   5.549 -1.2525  0.5841  0.2210
17183TIP3   OH272963   6.677   2.403   1.828  0.1471 -0.0459  0.4185
17183TIP3    H172964   6.761   2.444   1.849 -1.0559  3.3000 -0.5825
17183TIP3    H272965   6.655   2.351   1.905  2.1626  0.6427  1.5260
17184TIP3   OH272966   5.480   1.300   1.606 -0.1664  0.0465  0.3277
17184TIP3    H172967   5.448   1.311   1.516 -1.4684 -1.0490  0.6243
17184TIP3    H272968   5.439   1.372   1.654  0.5850  0.6742  0.0480
17185TIP3   OH272969   5.398   3.646   4.968 -0.1043 -0.3949  0.6896
17185TIP3    H172970   5.483   3.638   5.011  0.3325 -1.2712 -0.2770
17185TIP3    H272971   5.338   3.596   5.023 -0.5268  2.0315  2.5884
17186TIP3   OH272972   4.686   5.362  14.731 -0.3187 -0.6715 -0.9232
17186TIP3    H172973   4.672   5.454  14.753  0.8910 -0.7296  0.2272
17186TIP3    H272974   4.601   5.320  14.748 -0.4594 -0.0328  0.0062
17187TIP3   OH272975   5.045   1.824  12.880 -0.0139 -0.2491  0.0314
17187TIP3    H172976   5.119   1.819  12.940  0.7981 -1.9849 -1.0353
17187TIP3    H272977   5.080   1.868  12.802 -1.3003  2.8417  1.0646
17188TIP3   OH272978   3.292   0.714  14.842  0.6521  0.3755  0.0923
17188TIP3    H172979   3.253   0.694  14.926  1.7724 -0.8342  0.3551
17188TIP3    H272980   3.328   0.631  14.811  0.6338  0.8744 -1.3943
17189TIP3   OH272981   0.204   2.699   1.291 -0.8290  0.3716 -0.0359
17189TIP3    H172982   0.201   2.751   1.211 -0.6150  1.6941  0.7805
17189TIP3    H272983   0.119   2.715   1.333 -0.6524  0.3006  0.3545
17190TIP3   OH272984   0.221   0.001   4.151 -0.0403  0.9824 -0.3087
17190TIP3    H172985   0.272   0.081   4.141  2.8856 -0.6398  0.6131
17190TIP3    H272986   0.193  -0.021   4.062  0.4258  2.1943 -0.7793
17191TIP3   OH272987   3.610   1.361   5.513  0.0124 -0.0309 -0.2371
17191TIP3    H172988   3.536   1.304   5.533  0.4483 -0.6105 -0.2469
17191TIP3    H272989   3.675   1.303   5.473  0.0131  0.6953 -1.3338
17192TIP3   OH272990   2.481   3.234  15.919  0.1550  0.2749 -0.2406
17192TIP3    H172991   2.450   3.322  15.899  1.3320  1.0859  1.3325
17192TIP3    H272992   2.468   3.224  16.013  1.2215 -0.7378 -0.1761
17193TIP3   OH272993   1.164   6.613  16.624  0.3016 -0.2744 -0.1878
17193TIP3    H172994   1.092   6.565  16.664  1.3220 -1.5441  0.1651
17193TIP3    H272995   1.230   6.620  16.692  1.5317 -1.3167 -1.2117
17194TIP3   OH272996   2.187   1.243   0.977  0.7323 -0.4242  0.2702
17194TIP3    H172997   2.196   1.299   0.900  0.6543  2.3225  2.1360
17194TIP3    H272998   2.102   1.200   0.966 -1.0650  2.7847  0.4717
17195TIP3   OH272999   0.704   6.469  12.570  0.0732  0.0965  0.1308
17195TIP3    H173000   0.659   6.471  12.654  0.1355 -2.1703  0.2766
17195TIP3    H273001   0.722   6.561  12.550 -0.0306  0.7002  2.5337
17196TIP3   OH273002   2.730   2.621  16.073 -0.9308  0.3679 -0.3183
17196TIP3    H173003   2.684   2.697  16.108 -1.8876  0.2909 -1.3489
17196TIP3    H273004   2.670   2.585  16.008 -0.0769 -0.6972 -0.5417
17197TIP3   OH273005   2.966   0.490   4.129 -0.2172 -0.4078  0.0759
17197TIP3    H173006   2.890   0.444   4.163  0.0898 -0.4519  0.7347
17197TIP3    H273007   2.994   0.546   4.202  0.7167 -0.8246  0.0549
17198TIP3   OH273008   5.361   2.379  15.719  0.1913 -0.3437 -0.1927
17198TIP3    H173009   5.289   2.330  15.678 -0.8619  0.8076  0.2161
17198TIP3    H273010   5.408   2.418  15.646  0.6854 -1.4489 -0.4898
17199TIP3   OH273011   6.154   4.362  13.914  0.0594  0.4201 -0.7195
17199TIP3    H173012   6.239   4.346  13.872  0.1781  1.2445 -0.7987
17199TIP3    H273013   6.127   4.275  13.946  1.1240  0.2208 -0.3324
17200TIP3   OH273014   4.196   4.703  16.085  0.3033  0.4990  0.9063
17200TIP3    H173015   4.146   4.753  16.021  0.0313  0.7520  1.3110
17200TIP3    H273016   4.266   4.662  16.034 -1.1067 -1.0044  0.0950
17201TIP3   OH273017   5.355   5.995  11.463  0.1571 -0.1106  0.0108
17201TIP3    H173018   5.261   5.992  11.480  0.0932  0.6082 -0.1458
17201TIP3    H273019   5.372   5.920  11.407 -0.6016  0.5704 -1.1811
17202TIP3   OH273020   5.396   5.799  16.039  0.2907  0.2185 -0.3265
17202TIP3    H173021   5.391   5.796  16.134 -0.4707  0.4821 -0.3494
17202TIP3    H273022   5.490   5.800  16.019  0.4662 -1.0093  0.3768
17203TIP3   OH273023   3.395   1.897  13.297 -0.2479  0.4881  0.2017
17203TIP3    H173024   3.468   1.850  13.256 -0.3918  0.4423 -0.0041
17203TIP3    H273025   3.412   1.989  13.278 -1.4856  0.3362 -1.9308
17204TIP3   OH273026   3.563   4.959  12.113 -0.7135 -0.0659 -1.0161
17204TIP3    H173027   3.627   4.939  12.181 -1.8568  0.2983  0.1956
17204TIP3    H273028   3.512   5.032  12.147 -2.0665 -0.6205 -1.7396
17205TIP3   OH273029   2.718   4.755  13.789 -0.2547  0.2823 -0.6773
17205TIP3    H173030   2.739   4.786  13.877 -1.1568  0.5981 -0.5644
17205TIP3    H273031   2.789   4.789  13.734  0.4573 -0.1359 -0.0378
17206TIP3   OH273032   4.615   3.050  14.096  0.3031 -0.4548  0.0202
17206TIP3    H173033   4.700   3.013  14.070  1.3960  1.0356  1.2447
17206TIP3    H273034   4.597   3.009  14.181 -2.1287 -3.5962 -1.8138
17207TIP3   OH273035   3.238   0.323  13.314 -0.1868  0.0652  0.7478
17207TIP3    H173036   3.284   0.404  13.337 -0.5865  0.3682  0.4759
17207TIP3    H273037   3.224   0.330  13.220 -0.7134 -0.0690  0.8170
17208TIP3   OH273038   4.298   3.093  13.783  0.1054 -0.7471  0.1850
17208TIP3    H173039   4.312   3.023  13.719  0.0964  0.2538 -0.9508
17208TIP3    H273040   4.220   3.066  13.832  0.7414 -2.0529  0.5292
17209TIP3   OH273041   1.419   1.468   2.692 -0.2898  0.3214  0.3966
17209TIP3    H173042   1.508   1.435   2.680 -0.8291 -1.0996  0.1452
17209TIP3    H273043   1.395   1.506   2.608  0.1389  0.9187  0.5319
17210TIP3   OH273044   4.782   2.061   1.715  0.3827  0.3909  0.0213
17210TIP3    H173045   4.703   2.086   1.762  0.7231  0.2781  0.6593
17210TIP3    H273046   4.854   2.091   1.770  0.7899 -0.3912 -0.0594
17211TIP3   OH273047   2.924   2.098   2.276  0.2043  0.2476 -0.3783
17211TIP3    H173048   2.867   2.027   2.245 -1.4040  1.1087  0.5057
17211TIP3    H273049   2.877   2.178   2.253  2.9304  1.2338 -3.2748
17212TIP3   OH273050   3.837   1.677  15.061 -0.0316  0.2825  0.2380
17212TIP3    H173051   3.810   1.746  15.121 -0.6703 -0.0019  0.2871
17212TIP3    H273052   3.844   1.599  15.117  2.7861  0.6912  0.6368
17213TIP3   OH273053   5.869   3.220  12.033  0.4758  0.4351 -0.3058
17213TIP3    H173054   5.789   3.259  11.999  0.4018 -0.2616 -0.9727
17213TIP3    H273055   5.848   3.127  12.043  0.8570  0.4375  0.5888
17214TIP3   OH273056   2.080   6.100  12.173  0.2470 -0.0074 -0.2483
17214TIP3    H173057   2.170   6.132  12.159 -0.1061  1.0945 -0.0931
17214TIP3    H273058   2.028   6.180  12.181 -0.8212 -0.6397 -0.7588
17215TIP3   OH273059   3.426   1.968  11.710  0.1398 -0.6011  0.2033
17215TIP3    H173060   3.485   2.034  11.747  0.0930 -1.0954  1.1856
17215TIP3    H273061   3.477   1.929  11.639 -0.4212  1.5823 -1.5125
17216TIP3   OH273062   2.851   3.010  16.062 -0.0513  0.2811 -0.2652
17216TIP3    H173063   2.860   3.094  16.107 -0.1633 -0.0813  0.4571
17216TIP3    H273064   2.802   3.030  15.982 -1.3501  0.6878  0.5918
17217TIP3   OH273065   2.725   1.254  12.585  0.3764  0.0357 -0.2714
17217TIP3    H173066   2.687   1.236  12.671  1.6899  0.6303  0.4618
17217TIP3    H273067   2.760   1.343  12.592  2.2253 -0.6060 -0.7526
17218TIP3   OH273068   5.141   4.294  10.902  0.1523  0.0735  0.1984
17218TIP3    H173069   5.209   4.356  10.877  1.0738 -0.6733  0.7660
17218TIP3    H273070   5.186   4.210  10.908 -0.7566 -0.3904  0.8742
17219TIP3   OH273071   6.046   1.636  13.700  0.0366  0.6725  0.0342
17219TIP3    H173072   6.129   1.615  13.656  0.1292  0.0468  0.4911
17219TIP3    H273073   6.043   1.731  13.702  1.1103  0.7074  0.6777
17220TIP3   OH273074   3.947   4.321   0.006  0.3664  0.3840 -0.0770
17220TIP3    H173075   3.873   4.381  -0.004  0.5048  0.4329 -0.8236
17220TIP3    H273076   3.907   4.236   0.022  0.1676  0.7066  1.3197
17221TIP3   OH273077   3.981   6.575   0.131 -0.1181  0.0993 -0.0921
17221TIP3    H173078   3.970   6.626   0.051 -2.1791  1.7494  1.1471
17221TIP3    H273079   4.076   6.570   0.144  0.2702 -0.2839 -2.6291
17222TIP3   OH273080   4.038   4.984   1.588 -0.2174 -0.6475  0.1260
17222TIP3    H173081   3.942   4.982   1.581 -0.2706 -0.7022  0.7911
17222TIP3    H273082   4.057   4.923   1.659  0.1265  1.2835  1.7694
17223TIP3   OH273083   2.036   6.626  14.485 -0.4868 -0.1419  0.4221
17223TIP3    H173084   1.945   6.616  14.513 -0.5635  0.9763  0.6077
17223TIP3    H273085   2.087   6.587  14.557 -0.8040 -0.7600  0.3248
17224TIP3   OH273086   1.804   5.411  16.780  0.0485 -0.0073 -0.3891
17224TIP3    H173087   1.845   5.326  16.795 -1.1370 -0.6768 -0.8028
17224TIP3    H273088   1.821   5.431  16.688 -0.8756 -0.4729 -0.6656
17225TIP3   OH273089   1.167   2.944  14.834 -0.3756 -0.4624 -0.1747
17225TIP3    H173090   1.131   2.967  14.920  0.7221  0.7789 -0.0085
17225TIP3    H273091   1.260   2.967  14.840 -0.1713 -0.8323 -1.5310
17226TIP3   OH273092   0.578   0.274  15.936 -0.6882  0.2231  0.8144
17226TIP3    H173093   0.558   0.207  16.001  0.0511  0.2651  1.0968
17226TIP3    H273094   0.653   0.321  15.972  0.8629 -0.8522 -0.8247
17227TIP3   OH273095   2.848   2.236   0.662 -0.1376 -1.1993  0.0402
17227TIP3    H173096   2.908   2.162   0.670  0.0689 -0.9880  0.5022
17227TIP3    H273097   2.869   2.277   0.578 -1.2031 -2.4905 -0.9017
17228TIP3   OH273098   2.432   6.527  12.584  0.0113 -0.4441  0.3665
17228TIP3    H173099   2.494   6.454  12.592 -1.4599 -1.9959 -1.3121
17228TIP3    H273100   2.470   6.584  12.518  0.1108 -0.8907  0.0357
17229TIP3   OH273101   2.724   2.372  13.927  0.6544 -0.1601 -0.3748
17229TIP3    H173102   2.783   2.305  13.961  0.2162 -0.0387  0.6632
17229TIP3    H273103   2.772   2.454  13.940  0.3975 -0.0924  0.1737
17230TIP3   OH273104   0.281   5.330   3.907  0.2728  0.3868 -0.0804
17230TIP3    H173105   0.279   5.310   4.001 -0.7520 -0.0161 -0.1745
17230TIP3    H273106   0.364   5.293   3.876  0.6856  0.6522  0.6891
17231TIP3   OH273107   0.025   5.882   1.824 -0.4797  0.8750  0.1710
17231TIP3    H173108   0.104   5.829   1.836 -1.6499 -1.3540 -1.4402
17231TIP3    H273109   0.043   5.935   1.746 -0.6252  0.2219 -0.3139
17232TIP3   OH273110   3.379   4.012   5.792  0.2131  0.0138 -1.0482
17232TIP3    H173111   3.356   3.927   5.754 -0.5331 -0.0941 -0.3915
17232TIP3    H273112   3.472   4.006   5.810  0.1368 -0.7226 -0.8726
17233TIP3   OH273113   2.624   3.826   2.426 -0.2169 -0.3559  0.2754
17233TIP3    H173114   2.696   3.788   2.474  0.2520  0.7720  0.4987
17233TIP3    H273115   2.654   3.829   2.335 -0.5760 -1.2476  0.1188
17234TIP3   OH273116   5.236   3.655  12.413 -0.2394 -0.4589 -0.0683
17234TIP3    H173117   5.185   3.705  12.349  0.1071 -0.5980 -0.4594
17234TIP3    H273118   5.171   3.615  12.469 -0.5217  0.8392  0.5791
17235TIP3   OH273119   5.998   6.400   5.964 -0.0244 -0.3108  0.5251
17235TIP3    H173120   6.090   6.416   5.940  0.1607 -0.4075  1.1499
17235TIP3    H273121   5.982   6.310   5.936 -0.6425  0.4378 -1.6979
17236TIP3   OH273122   6.552   3.817  17.330 -0.1465  0.0057 -0.1369
17236TIP3    H173123   6.595   3.850  17.250 -0.1663  0.0978 -0.1099
17236TIP3    H273124   6.596   3.864  17.401  1.7866 -2.0515  0.1220
17237TIP3   OH273125   5.321   1.244  16.610 -0.0119  0.1618 -0.1750
17237TIP3    H173126   5.402   1.258  16.561 -0.2257  0.4905 -0.4376
17237TIP3    H273127   5.277   1.329  16.609 -0.6128 -0.1449 -0.5052
17238TIP3   OH273128   6.099   5.615  15.900 -0.4823  0.1245  0.6312
17238TIP3    H173129   6.040   5.689  15.883 -0.0759  0.1064 -1.0564
17238TIP3    H273130   6.183   5.642  15.862 -0.3897 -1.2715 -0.2523
17239TIP3   OH273131   4.673   2.376  13.909 -0.5462 -0.5812  0.3332
17239TIP3    H173132   4.692   2.295  13.956 -1.1918 -0.3712  0.9743
17239TIP3    H273133   4.582   2.368  13.881 -0.6022 -0.0969  0.3615
17240TIP3   OH273134   2.770   2.188  14.276 -0.0703 -0.0657  0.7733
17240TIP3    H173135   2.698   2.127  14.263  0.2750 -0.1983 -0.5933
17240TIP3    H273136   2.844   2.148  14.231 -0.2255  2.0993 -1.6201
17241TIP3   OH273137   5.912   1.486  13.529 -0.4808 -0.5566  0.3598
17241TIP3    H173138   5.953   1.540  13.595 -1.8403 -0.6826  1.3613
17241TIP3    H273139   5.851   1.545  13.484  0.6711 -0.3864 -1.0454
17242TIP3   OH273140   0.204   2.081   4.985  0.0946  0.0422  0.1420
17242TIP3    H173141   0.216   1.987   4.970 -0.4059 -0.0996  0.6180
17242TIP3    H273142   0.181   2.116   4.899 -0.3821 -0.3770  0.0968
17243TIP3   OH273143   5.274   5.151  13.872  0.3821 -0.5409  0.3790
17243TIP3    H173144   5.183   5.180  13.867  0.3328 -0.2370  2.1708
17243TIP3    H273145   5.283   5.085  13.803 -0.7306  0.5549 -0.8675
17244TIP3   OH273146   3.068   0.267  12.063  1.0684 -0.0242  0.3656
17244TIP3    H173147   3.111   0.247  12.146 -1.5492  0.2497  1.8746
17244TIP3    H273148   3.039   0.358  12.072  0.5964 -0.0368 -0.8019
17245TIP3   OH273149   3.500   6.556  15.571 -0.1016 -0.3067  0.1463
17245TIP3    H173150   3.471   6.595  15.653 -1.9673 -0.1337 -0.5418
17245TIP3    H273151   3.419   6.530  15.527  0.5977  2.0007 -2.8255
17246TIP3   OH273152   5.252   2.036  14.095  0.0914 -0.0931 -0.6811
17246TIP3    H173153   5.345   2.040  14.076  0.3496  0.3671  0.6417
17246TIP3    H273154   5.237   2.102  14.162 -1.2902  0.2222 -1.2597
17247TIP3   OH273155   5.119   5.508  17.286 -0.1108 -0.0258 -0.7468
17247TIP3    H173156   5.154   5.578  17.232  0.6413 -0.7058 -1.1624
17247TIP3    H273157   5.113   5.546  17.374 -1.2768  1.0593 -1.2686
17248TIP3   OH273158   0.127   4.765  14.621  0.2233 -0.3319 -0.1280
17248TIP3    H173159   0.127   4.860  14.630  1.7507 -0.4396  1.7241
17248TIP3    H273160   0.214   4.745  14.585  0.1579 -1.0605  0.1005
17249TIP3   OH273161   0.196   1.919  16.205  0.4507 -0.3625 -0.3059
17249TIP3    H173162   0.122   1.979  16.204  0.4197 -0.3983 -0.2171
17249TIP3    H273163   0.247   1.941  16.127  0.5701 -0.0607 -0.1438
17250TIP3   OH273164   3.186   6.667   0.222  0.4204 -0.0342  0.4190
17250TIP3    H173165   3.108   6.612   0.231  0.8339 -0.6478  0.3781
17250TIP3    H273166   3.153   6.756   0.213 -0.2782 -0.3182  0.1463
17251TIP3   OH273167   2.386   6.473  14.973  0.1958 -0.0905 -0.2829
17251TIP3    H173168   2.298   6.454  15.005 -0.6823  1.9448 -1.3132
17251TIP3    H273169   2.444   6.422  15.030 -1.5605 -0.3354  1.3783
17252TIP3   OH273170   2.652   5.174  16.288  0.0066  0.0023 -0.3989
17252TIP3    H173171   2.599   5.129  16.353 -0.6414  0.6850 -0.4415
17252TIP3    H273172   2.736   5.191  16.332 -0.5860  0.8769  0.4310
17253TIP3   OH273173   3.327   1.148   0.094 -0.1472  0.4140  0.1429
17253TIP3    H173174   3.246   1.100   0.076  0.7291 -1.1361  0.1413
17253TIP3    H273175   3.337   1.144   0.189  0.6769 -0.7420  0.0307
17254TIP3   OH273176   2.488   3.981  15.635  0.0410  0.0370 -0.2781
17254TIP3    H173177   2.486   3.962  15.729  3.9176  0.1480 -0.0361
17254TIP3    H273178   2.476   3.896  15.593 -0.6842 -0.1579  0.2955
17255TIP3   OH273179   2.933   2.008  17.014 -0.0651 -0.0677  0.1081
17255TIP3    H173180   2.956   1.958  17.092  0.7817 -1.6981 -1.1442
17255TIP3    H273181   3.013   2.056  16.992 -0.3888  0.6165  0.3650
17256TIP3   OH273182   3.341   3.246   2.656 -0.7006  0.2932  0.5736
17256TIP3    H173183   3.375   3.159   2.636  0.9727  0.8327  0.9824
17256TIP3    H273184   3.313   3.281   2.572 -0.6282 -0.3077  0.2952
17257TIP3   OH273185   5.875   2.259  13.125 -0.1075  0.1077 -0.1596
17257TIP3    H173186   5.931   2.296  13.056 -0.6910  0.7537 -0.3007
17257TIP3    H273187   5.789   2.295  13.106 -0.5687 -0.8670  0.0701
17258TIP3   OH273188   5.199   5.960   2.782 -0.0225 -0.4263  0.3147
17258TIP3    H173189   5.236   6.004   2.705  1.0945  0.9198  1.5513
17258TIP3    H273190   5.135   5.898   2.747  0.6775 -0.0673 -1.6983
17259TIP3   OH273191   0.482   4.733   4.375 -0.1306 -0.3516  0.1769
17259TIP3    H173192   0.400   4.726   4.325 -0.6737 -1.0782  1.1314
17259TIP3    H273193   0.468   4.678   4.452  1.6458 -1.3568 -0.1450
17260TIP3   OH273194   0.441   1.452   5.876 -0.4104  0.3548  0.5578
17260TIP3    H173195   0.506   1.401   5.926 -0.7800  0.1627  0.8431
17260TIP3    H273196   0.409   1.391   5.809 -0.8844  0.1916  0.9268
17261TIP3   OH273197   3.316   2.966   3.119 -0.3263  0.2774 -0.0599
17261TIP3    H173198   3.390   2.960   3.058 -0.1436 -1.0097  0.2493
17261TIP3    H273199   3.258   2.894   3.093 -0.6882  0.2911  0.6918
17262TIP3   OH273200   5.649   0.968   6.619  0.1695  0.3651 -0.3636
17262TIP3    H173201   5.688   0.965   6.532  2.3311  0.2291  0.5275
17262TIP3    H273202   5.627   0.876   6.638  1.0440  0.1766 -0.2223
17263TIP3   OH273203   0.375   3.518  17.357 -0.3338 -0.1006  0.6054
17263TIP3    H173204   0.366   3.505  17.262 -2.2297 -0.7962  0.8316
17263TIP3    H273205   0.434   3.593  17.365 -0.3624  0.1571 -1.1339
17264TIP3   OH273206   1.859   4.806  16.129 -0.4855  0.0980 -0.0932
17264TIP3    H173207   1.777   4.804  16.079 -0.8758  1.0755  0.4720
17264TIP3    H273208   1.835   4.849  16.211  0.2793 -0.9616  0.6935
17265TIP3   OH273209   2.411   5.400  17.202  0.0179  0.5027  0.0725
17265TIP3    H173210   2.389   5.465  17.268  1.0723  0.6509  0.2936
17265TIP3    H273211   2.413   5.448  17.119  0.5594  0.7162  0.2026
17266TIP3   OH273212   1.774   2.244  13.749  0.3242  0.4325  0.3454
17266TIP3    H173213   1.842   2.215  13.689  2.1682 -0.0471  2.5334
17266TIP3    H273214   1.718   2.167  13.760  0.7213  0.1252  0.2492
17267TIP3   OH273215   2.551   2.013  16.474  0.1861  0.3285  0.3028
17267TIP3    H173216   2.475   2.071  16.483 -0.1773 -0.0102 -0.5005
17267TIP3    H273217   2.548   1.958  16.552 -1.7527 -1.2293 -0.7664
17268TIP3   OH273218   5.629   0.285   2.441  0.0756 -0.1432  0.2836
17268TIP3    H173219   5.673   0.238   2.512  0.1667 -0.5370 -0.0269
17268TIP3    H273220   5.535   0.275   2.460  0.0912 -0.5296  0.1761
17269TIP3   OH273221   2.974   3.569  15.553 -0.8410 -0.5692 -0.1513
17269TIP3    H173222   2.941   3.592  15.639  0.0197 -0.8340  0.2553
17269TIP3    H273223   2.899   3.527  15.509 -2.1460  2.0180 -0.5734
17270TIP3   OH273224   4.469   3.743  10.950 -0.0429 -0.4626  0.3285
17270TIP3    H173225   4.477   3.837  10.970 -1.6496 -0.0832 -0.6379
17270TIP3    H273226   4.386   3.717  10.992 -1.4881 -0.5490 -2.3645
17271TIP3   OH273227   0.444   3.351   2.121 -0.2107  0.0960  0.4260
17271TIP3    H173228   0.415   3.291   2.052  3.5402 -0.4732 -0.8998
17271TIP3    H273229   0.415   3.437   2.092 -2.3414 -0.5719  0.3917
17272TIP3   OH273230   0.977   0.897   1.704 -0.0703 -0.3261  0.2707
17272TIP3    H173231   0.938   0.837   1.641 -1.4364 -0.9675  1.6842
17272TIP3    H273232   0.918   0.896   1.779  0.0989  2.4435  0.5489
17273TIP3   OH273233   1.755   5.057  13.350 -0.2230 -0.1781  0.5316
17273TIP3    H173234   1.672   5.104  13.362 -0.5259  0.0319 -1.9232
17273TIP3    H273235   1.743   4.975  13.397 -1.7465 -0.0665  0.3885
17274TIP3   OH273236   2.671   1.594   1.185 -0.2375  0.3084  0.1716
17274TIP3    H173237   2.744   1.627   1.237 -1.4187  1.4225  1.1938
17274TIP3    H273238   2.656   1.505   1.218 -0.0619  0.4891  0.7527
17275TIP3   OH273239   3.655   6.499  13.287  0.4537 -0.0906 -0.4907
17275TIP3    H173240   3.566   6.524  13.264  0.3274 -0.5975 -0.5523
17275TIP3    H273241   3.648   6.455  13.372  0.3363 -2.1175 -1.5050
17276TIP3   OH273242   1.511   2.753  12.703  0.0630 -0.5500 -0.0949
17276TIP3    H173243   1.480   2.808  12.631  0.5239 -0.6927 -0.4039
17276TIP3    H273244   1.437   2.696  12.723 -0.7274  0.7122  0.7794
17277TIP3   OH273245   5.878   5.846  11.514 -0.6792  0.0562 -0.4929
17277TIP3    H173246   5.798   5.890  11.541 -1.2615 -2.1169  1.7277
17277TIP3    H273247   5.948   5.908  11.535 -1.5332  0.4395  1.4530
17278TIP3   OH273248   4.938   6.086  16.003  0.2427  0.2228  0.5523
17278TIP3    H173249   4.847   6.058  15.998  0.3207 -0.2479  1.5804
17278TIP3    H273250   4.940   6.171  15.958 -0.0481 -1.2025 -2.3820
17279TIP3   OH273251   5.655   2.891  15.988 -0.4138  1.2813  0.0031
17279TIP3    H173252   5.680   2.979  15.961  0.6917  0.8912 -0.2846
17279TIP3    H273253   5.636   2.899  16.081  1.3358  1.5051  0.3735
17280TIP3   OH273254   0.096   3.910  10.834  0.4858  0.4766 -0.1521
17280TIP3    H173255   0.031   3.972  10.866 -0.4298  0.2641 -1.5227
17280TIP3    H273256   0.163   3.965  10.792  0.1466  0.6010 -0.5393
17281TIP3   OH273257   0.049   4.549   1.534 -0.4170  0.5143  0.3281
17281TIP3    H173258   0.078   4.605   1.606 -0.4312  0.5282  0.3228
17281TIP3    H273259  -0.041   4.525   1.556 -1.2263  2.3435 -0.7821
17282TIP3   OH273260   3.359   1.234  13.869  0.4222 -0.0873 -0.8284
17282TIP3    H173261   3.435   1.291  13.882  1.5726 -1.3856 -1.5148
17282TIP3    H273262   3.291   1.271  13.925  1.4002  1.3987 -0.5564
17283TIP3   OH273263   0.111   3.053  14.141 -0.5362  0.2411  0.3186
17283TIP3    H173264   0.198   3.022  14.117 -1.0454 -1.0865  0.0553
17283TIP3    H273265   0.121   3.147  14.156  0.6902  0.3398 -0.8962
17284TIP3   OH273266   2.450   2.786  11.851 -0.5483  0.1993  0.4290
17284TIP3    H173267   2.459   2.821  11.762 -0.0575  0.3671  0.5424
17284TIP3    H273268   2.394   2.710  11.841  0.5648 -0.5589 -0.2276
17285TIP3   OH273269   1.272   0.568   2.903  0.2515  0.2828  0.0623
17285TIP3    H173270   1.286   0.489   2.851  1.9208  0.2012  0.5897
17285TIP3    H273271   1.192   0.606   2.867  0.9467 -0.1397 -2.0820
17286TIP3   OH273272   1.156   6.739  15.150 -0.2337 -0.4398 -0.3012
17286TIP3    H173273   1.089   6.807  15.161  0.7785  0.7722 -1.3735
17286TIP3    H273274   1.118   6.677  15.089 -1.0344 -0.6615  0.4095
17287TIP3   OH273275   1.343   6.558   2.062 -0.1170 -0.1631  0.3742
17287TIP3    H173276   1.341   6.631   2.001 -1.4289 -0.2648  0.2710
17287TIP3    H273277   1.308   6.484   2.012  1.1929 -0.8775  0.4741
17288TIP3   OH273278   6.213   5.271   5.598  0.4584 -0.1198 -0.9297
17288TIP3    H173279   6.268   5.343   5.569 -2.0209  1.3931 -2.1513
17288TIP3    H273280   6.133   5.279   5.547 -0.8747 -2.3187  0.6340
17289TIP3   OH273281   1.165   5.988   4.324  0.2811  0.0583 -0.2381
17289TIP3    H173282   1.209   5.913   4.364  0.9355  0.7550  0.3761
17289TIP3    H273283   1.230   6.059   4.328 -1.3481  1.5266  1.9775
17290TIP3   OH273284   5.769   2.151   3.734  0.3630 -0.5979 -0.7842
17290TIP3    H173285   5.838   2.123   3.794  0.5123  1.5761  0.1526
17290TIP3    H273286   5.809   2.222   3.683 -0.6350 -0.5348 -1.5143
17291TIP3   OH273287   0.520   5.462   2.389  0.4121  0.4207  0.2890
17291TIP3    H173288   0.536   5.493   2.478  0.4126  0.4060  0.2940
17291TIP3    H273289   0.425   5.463   2.380  0.4459  1.5493 -0.1063
17292TIP3   OH273290   5.405   1.965  15.061  0.2419 -0.2258 -0.2037
17292TIP3    H173291   5.404   2.044  15.116 -1.1306 -0.8602  0.7360
17292TIP3    H273292   5.468   1.985  14.992 -0.9559  2.2054 -0.7160
17293TIP3   OH273293   0.411   3.954   2.452  0.3186 -0.0402 -0.4208
17293TIP3    H173294   0.414   3.984   2.543  2.6756 -1.0730 -0.0678
17293TIP3    H273295   0.362   4.021   2.406  1.1498  1.7747  1.2008
17294TIP3   OH273296   4.042   1.648  17.001 -0.1370 -0.2220 -0.4670
17294TIP3    H173297   4.131   1.635  17.033  0.3904  0.3995 -1.6247
17294TIP3    H273298   4.047   1.728  16.949 -1.8398  1.0254  1.1310
17295TIP3   OH273299   5.802   1.916  12.689 -0.2812 -0.0790  0.4531
17295TIP3    H173300   5.770   2.003  12.714  2.3278  1.1414 -0.0609
17295TIP3    H273301   5.740   1.886  12.622 -1.3172  1.3032  0.7356
17296TIP3   OH273302   5.126   2.865   4.215 -0.0276  0.4265 -0.0594
17296TIP3    H173303   5.056   2.904   4.267 -0.9107 -0.7489 -0.3215
17296TIP3    H273304   5.186   2.828   4.280  1.2336  2.8009  0.2177
17297TIP3   OH273305   1.231   0.130   5.017  0.0641 -0.2058 -0.0491
17297TIP3    H173306   1.199   0.111   5.105  2.0681 -1.0485  0.5575
17297TIP3    H273307   1.308   0.073   5.007  1.4863  1.8154 -1.3228
17298TIP3   OH273308   1.837   5.577   1.639  0.1120  0.4172 -0.0956
17298TIP3    H173309   1.846   5.494   1.592 -0.0515  0.1559  0.3304
17298TIP3    H273310   1.820   5.552   1.730 -0.9512  0.9075 -0.1370
17299TIP3   OH273311   3.344   4.321   0.458  0.1480  0.2020 -0.4533
17299TIP3    H173312   3.333   4.412   0.432  1.5537  0.5526  0.0643
17299TIP3    H273313   3.364   4.275   0.377 -0.7111  0.3122 -0.7375
17300TIP3   OH273314   5.712   0.863   2.950 -0.1451  0.3448  0.3005
17300TIP3    H173315   5.696   0.808   2.874 -2.0881  0.7854  0.3417
17300TIP3    H273316   5.695   0.806   3.025  0.9838  0.1401  0.4262
17301TIP3   OH273317   5.165   3.133   1.854 -0.3538  0.0062  0.3535
17301TIP3    H173318   5.242   3.186   1.835  0.5025 -0.8897  1.1778
17301TIP3    H273319   5.125   3.116   1.768  0.3675  0.4887 -0.0830
17302TIP3   OH273320   5.606   1.071  11.748  0.1894  0.0119 -0.9189
17302TIP3    H173321   5.617   1.000  11.812  0.9421  0.4580 -0.5294
17302TIP3    H273322   5.566   1.142  11.799 -0.5098 -0.1021 -1.2934
17303TIP3   OH273323   5.613   0.597  14.620 -0.1009  0.0438 -0.8888
17303TIP3    H173324   5.622   0.669  14.683  0.7312 -0.8573  0.0597
17303TIP3    H273325   5.611   0.640  14.535 -0.9734  1.2772 -0.2741
17304TIP3   OH273326   6.537   2.538  16.436  0.1909  0.2344  0.2107
17304TIP3    H173327   6.466   2.549  16.373 -2.0359 -1.4153  2.2110
17304TIP3    H273328   6.534   2.617  16.490  0.1226  0.3304  0.0665
17305TIP3   OH273329   6.193   1.215   0.386 -0.2848 -0.3564  0.4056
17305TIP3    H173330   6.103   1.244   0.394 -0.3554  0.0266 -1.3057
17305TIP3    H273331   6.245   1.286   0.423 -0.4598  2.1482 -3.5163
17306TIP3   OH273332   4.636   3.437   4.846  0.7220  0.5745 -0.2542
17306TIP3    H173333   4.723   3.403   4.825  0.1922 -0.9980 -0.0346
17306TIP3    H273334   4.581   3.409   4.773  0.2944  1.1902 -0.1807
17307TIP3   OH273335   3.673   4.734   2.741  0.0892 -0.8318  0.1103
17307TIP3    H173336   3.685   4.642   2.766  0.6441 -0.4701  1.2040
17307TIP3    H273337   3.581   4.738   2.712 -0.3623 -1.4455  1.3641
17308TIP3   OH273338   0.832   6.023   4.825 -0.4220  0.6730  0.1789
17308TIP3    H173339   0.819   5.935   4.788  2.4708  0.7953 -1.4679
17308TIP3    H273340   0.771   6.078   4.776 -0.7051 -0.1024 -0.3694
17309TIP3   OH273341   5.641   2.686  13.399 -0.3066  0.5860  0.2117
17309TIP3    H173342   5.583   2.676  13.323 -1.0194 -1.2314  0.9414
17309TIP3    H273343   5.690   2.605  13.403  0.1163  0.8808  1.3901
17310TIP3   OH273344   2.020   6.197   0.125 -0.0125  0.6350  0.0137
17310TIP3    H173345   1.938   6.230   0.161 -0.3869  0.8322 -1.0023
17310TIP3    H273346   2.069   6.165   0.202 -1.4978 -0.5207  0.5236
17311TIP3   OH273347   2.025   3.129   4.338  0.1793  0.6065  0.2941
17311TIP3    H173348   2.101   3.074   4.358 -0.4718 -0.3226  0.2507
17311TIP3    H273349   1.961   3.106   4.406 -0.5420  0.4188 -0.4384
17312TIP3   OH273350   3.170   3.632  14.089  0.0570 -0.2974  0.5983
17312TIP3    H173351   3.185   3.592  14.175  1.5594  1.4855  1.2357
17312TIP3    H273352   3.197   3.723  14.100  0.3935 -0.0443 -1.7878
17313TIP3   OH273353   1.848   0.754  10.391  0.4976  0.4204  0.0147
17313TIP3    H173354   1.900   0.706  10.455 -0.9662 -1.6488 -0.2385
17313TIP3    H273355   1.760   0.754  10.427 -0.1442  0.1491 -1.4588
17314TIP3   OH273356   0.287   0.393   1.653 -0.4852  0.0656 -0.9753
17314TIP3    H173357   0.255   0.373   1.565 -2.9619 -0.0746 -0.1183
17314TIP3    H273358   0.273   0.313   1.703 -0.0276  0.4473 -0.2035
17315TIP3   OH273359   6.208   5.769  12.337 -0.1994 -0.2259 -0.3826
17315TIP3    H173360   6.274   5.719  12.385 -0.5239  0.8387  1.2201
17315TIP3    H273361   6.217   5.738  12.246 -0.4949 -3.2986  0.5052
17316TIP3   OH273362   5.714   4.285  16.542 -0.7545 -0.3395 -0.4897
17316TIP3    H173363   5.631   4.292  16.495 -1.7100  0.5186  1.2150
17316TIP3    H273364   5.776   4.335  16.490 -1.9038  1.0590 -0.5745
17317TIP3   OH273365   6.017   3.066   4.324  0.2061 -0.1187 -0.8219
17317TIP3    H173366   6.086   3.001   4.340 -0.2860 -0.0390  2.4208
17317TIP3    H273367   6.056   3.149   4.351 -0.1683  0.4504 -1.9918
17318TIP3   OH273368   5.175   6.500   0.718  0.3698  0.0119  0.2823
17318TIP3    H173369   5.195   6.542   0.635  0.7104  0.4711  0.5929
17318TIP3    H273370   5.079   6.492   0.719  0.1825  1.8033  0.6939
17319TIP3   OH273371   4.172   4.018   3.276  0.2448 -0.4721 -0.3069
17319TIP3    H173372   4.146   3.934   3.311 -0.8211  0.5459  1.4839
17319TIP3    H273373   4.091   4.058   3.244  0.8110 -0.3047 -1.6315
17320TIP3   OH273374   1.943   3.732  15.237  0.1551 -0.0777 -0.2469
17320TIP3    H173375   1.932   3.670  15.310 -1.5591 -0.8182 -1.0730
17320TIP3    H273376   2.001   3.686  15.176  0.4115 -0.0711 -0.0113
17321TIP3   OH273377   3.063   5.147  14.133  0.1538 -0.3721 -0.1705
17321TIP3    H173378   3.066   5.242  14.150 -0.9960 -0.3128 -0.2150
17321TIP3    H273379   3.151   5.125  14.105  0.1149  0.9357 -1.4635
17322TIP3   OH273380   2.550   1.355  15.183  0.4087  0.3112  0.5140
17322TIP3    H173381   2.505   1.273  15.162 -0.1976  0.5288  0.9364
17322TIP3    H273382   2.642   1.331  15.188  0.1302 -0.6020  1.8229
17323TIP3   OH273383   3.318   4.553  17.345 -0.0122 -0.2266 -0.3110
17323TIP3    H173384   3.293   4.500  17.269  1.7046 -0.4312 -0.7611
17323TIP3    H273385   3.376   4.497  17.396 -0.4808  0.2117  0.7394
17324TIP3   OH273386   3.375   1.244  11.293 -0.2789 -0.3516 -0.7095
17324TIP3    H173387   3.311   1.309  11.264 -1.9094 -2.3417 -1.8897
17324TIP3    H273388   3.325   1.162  11.298  1.6572 -1.5304  0.7596
17325TIP3   OH273389   0.622   5.642   4.069 -0.1920  0.1436 -0.4930
17325TIP3    H173390   0.549   5.674   4.016 -0.8418 -0.6146 -0.0929
17325TIP3    H273391   0.687   5.612   4.006 -0.0772  1.1376 -0.8579
17326TIP3   OH273392   1.118   2.405  12.004 -0.2226 -0.8205 -0.0676
17326TIP3    H173393   1.178   2.331  12.010  1.1383  0.3198  1.1394
17326TIP3    H273394   1.175   2.483  12.007 -1.5638  0.2835 -1.7329
17327TIP3   OH273395   6.691   5.216  13.570  1.0965  0.0550  0.5198
17327TIP3    H173396   6.762   5.264  13.525  0.4721  1.1721  0.6824
17327TIP3    H273397   6.681   5.135  13.520  2.5358 -0.1622  0.5349
17328TIP3   OH273398   3.389   5.970   2.699 -0.5915 -0.0534  0.3041
17328TIP3    H173399   3.321   5.999   2.637 -1.5562 -2.3341  0.2027
17328TIP3    H273400   3.470   5.972   2.648 -1.0664 -0.0919 -0.4767
17329TIP3   OH273401   6.676   0.112  11.492  0.0782 -0.6087  0.5653
17329TIP3    H173402   6.657   0.205  11.504  0.0849 -0.6486  0.8920
17329TIP3    H273403   6.692   0.102  11.398  1.9850  0.0663  0.7763
17330TIP3   OH273404   1.924   0.773   0.361 -0.1359 -0.2531  0.3035
17330TIP3    H173405   1.967   0.760   0.276 -1.2630 -1.3555 -0.1478
17330TIP3    H273406   1.972   0.716   0.421  0.7331  0.6097  0.4485
17331TIP3   OH273407   6.115   2.701  15.308 -0.0725 -0.3021  0.0263
17331TIP3    H173408   6.166   2.780  15.290  0.8077 -0.4527  1.7090
17331TIP3    H273409   6.179   2.630  15.308 -0.6164 -0.8017  0.0656
17332TIP3   OH273410   4.215   4.468   1.957 -0.1348 -0.2501 -0.4782
17332TIP3    H173411   4.200   4.535   1.890  0.8978  0.4133 -0.0610
17332TIP3    H273412   4.306   4.480   1.983 -0.4222 -0.7129  0.8119
17333TIP3   OH273413   5.886   4.596   1.190 -0.2133  0.3279  0.1564
17333TIP3    H173414   5.823   4.663   1.161 -1.1113 -0.1859  0.8668
17333TIP3    H273415   5.860   4.577   1.280 -0.5056 -1.5775 -0.2974
17334TIP3   OH273416   1.960   6.459   1.253  0.1141  0.4852 -0.6203
17334TIP3    H173417   1.961   6.470   1.158 -1.6011  0.5086 -0.6605
17334TIP3    H273418   1.917   6.375   1.268 -1.0173  1.1813  0.1706
17335TIP3   OH273419   6.260   0.555  12.302 -0.4451 -0.2010 -0.3105
17335TIP3    H173420   6.171   0.541  12.269  0.1905 -4.9574 -0.7332
17335TIP3    H273421   6.313   0.567  12.223 -0.1335 -2.4731 -0.5002
17336TIP3   OH273422   3.386   4.715  11.377  0.0337 -0.4163  0.5525
17336TIP3    H173423   3.337   4.677  11.304 -2.4130  2.6717  0.3714
17336TIP3    H273424   3.473   4.732  11.340 -0.3310 -1.2711 -0.7974
17337TIP3   OH273425   2.538   5.424  15.228  0.2425 -0.0899 -0.0733
17337TIP3    H173426   2.531   5.356  15.295  0.7952 -0.1065 -0.0267
17337TIP3    H273427   2.612   5.397  15.174  1.8942  1.5336  1.2050
17338TIP3   OH273428   2.103   4.049  15.995  0.9971  0.0837 -0.6011
17338TIP3    H173429   2.105   4.012  15.907  1.4896 -1.2983 -0.0431
17338TIP3    H273430   2.189   4.090  16.005  1.7942 -1.6492 -0.0261
17339TIP3   OH273431   4.634   0.585   0.702 -0.4673  0.1737 -0.2498
17339TIP3    H173432   4.659   0.556   0.614  0.6934  0.3504  0.0011
17339TIP3    H273433   4.604   0.675   0.689 -2.7236 -0.5957 -0.8153
17340TIP3   OH273434   6.679   6.546   2.668 -0.1559 -0.0570 -0.8243
17340TIP3    H173435   6.615   6.488   2.710  0.6658 -0.3038  0.1159
17340TIP3    H273436   6.741   6.568   2.737  1.3824 -0.6640 -1.9661
17341TIP3   OH273437   5.379   4.666   3.995  0.1613  0.0537  0.1284
17341TIP3    H173438   5.375   4.645   3.902  0.3755 -0.5596  0.2504
17341TIP3    H273439   5.414   4.755   3.998  1.1071 -0.2890 -0.3480
17342TIP3   OH273440   0.220   3.080   0.586  1.3674  0.4070  0.2427
17342TIP3    H173441   0.235   2.995   0.629  0.1914 -0.9715 -1.8977
17342TIP3    H273442   0.302   3.098   0.540  0.3693 -1.7899 -2.7306
17343TIP3   OH273443   1.491   1.163  12.355  0.1770  0.0433  0.4359
17343TIP3    H173444   1.410   1.115  12.336  1.3101 -2.2094  0.8871
17343TIP3    H273445   1.521   1.193  12.270  0.1551 -1.3583 -0.1018
17344TIP3   OH273446   1.423   4.016  12.124  0.0748 -0.6953 -0.1805
17344TIP3    H173447   1.478   4.002  12.201  0.3454 -0.4929 -0.3382
17344TIP3    H273448   1.383   4.101  12.138 -0.7607 -1.1462  0.2773
17345TIP3   OH273449   4.085   0.319   3.980  0.2410  0.3908 -0.4830
17345TIP3    H173450   4.108   0.239   3.932 -1.4194 -0.0949 -0.5113
17345TIP3    H273451   4.093   0.294   4.073 -1.0971 -0.1005 -0.4755
17346TIP3   OH273452   4.945   2.709   5.216  0.8752  0.0932 -0.3523
17346TIP3    H173453   5.033   2.713   5.253  0.4541  0.6341  0.6304
17346TIP3    H273454   4.920   2.617   5.223  0.8750  0.1553  0.5590
17347TIP3   OH273455   0.742   2.312   3.581 -0.1768  0.6839  0.3308
17347TIP3    H173456   0.668   2.341   3.527  0.2636  0.4162 -0.4311
17347TIP3    H273457   0.718   2.223   3.608  0.3246  0.1895 -0.7978
17348TIP3   OH273458   3.285   4.506   4.347  0.3202 -0.3090 -0.0502
17348TIP3    H173459   3.305   4.574   4.283  0.3280  1.4445  1.7129
17348TIP3    H273460   3.211   4.459   4.309 -1.6066  2.5178 -0.1798
17349TIP3   OH273461   3.111   3.163   1.130  0.0384  0.3647  0.3681
17349TIP3    H173462   3.112   3.097   1.061  1.2724 -0.4345  1.1026
17349TIP3    H273463   3.031   3.145   1.180 -1.6361  1.8289 -1.5770
17350TIP3   OH273464   5.066   3.629   1.211 -0.3325  0.0964 -0.4810
17350TIP3    H173465   5.110   3.558   1.258  0.2198  1.1143  0.5854
17350TIP3    H273466   5.087   3.708   1.260 -1.2875  0.9643 -1.3947
17351TIP3   OH273467   6.029   2.902  13.350 -0.6377  0.0572  0.3068
17351TIP3    H173468   6.097   2.949  13.302  0.5173 -0.4041  1.4487
17351TIP3    H273469   5.954   2.962  13.349 -0.1325  0.7012 -0.7138
17352TIP3   OH273470   3.468   6.366   4.399  0.1297  0.1228  0.0688
17352TIP3    H173471   3.376   6.340   4.407 -0.2155  1.5905  1.2432
17352TIP3    H273472   3.465   6.456   4.367  1.0838  0.7052  1.5007
17353TIP3   OH273473   2.360   1.795  16.106 -0.0002 -0.0209  0.1206
17353TIP3    H173474   2.400   1.759  16.185 -1.4088 -0.0235  0.8678
17353TIP3    H273475   2.317   1.719  16.065  0.8350 -0.0449 -0.7244
17354TIP3   OH273476   5.246   6.471  14.092 -0.1136 -0.0892 -0.5124
17354TIP3    H173477   5.321   6.470  14.033  0.0728 -1.5160 -0.2772
17354TIP3    H273478   5.282   6.445  14.177 -1.1911 -3.0916 -0.8534
17355TIP3   OH273479   4.026   4.039  11.585  0.4225  0.0881  0.0447
17355TIP3    H173480   4.075   3.989  11.520 -0.3191 -1.4475  0.6111
17355TIP3    H273481   4.080   4.036  11.664  1.7850  2.7609 -0.6521
17356TIP3   OH273482   5.060   3.174  11.044  0.1422  0.0831 -0.3743
17356TIP3    H173483   4.979   3.219  11.070  1.2944  1.0817  1.6711
17356TIP3    H273484   5.113   3.242  11.003  0.8698 -0.0268  0.3829
17357TIP3   OH273485   0.945   5.405   1.224  0.3039 -0.1958 -0.0678
17357TIP3    H173486   0.958   5.411   1.318  0.9737  0.7986 -0.2036
17357TIP3    H273487   1.025   5.363   1.192 -0.7628 -2.4360 -0.0235
17358TIP3   OH273488   6.531   6.471   4.394 -0.5548 -0.0678 -0.5239
17358TIP3    H173489   6.616   6.486   4.352 -0.4925  0.2622 -0.2861
17358TIP3    H273490   6.470   6.526   4.346 -0.2792  1.1851  0.5093
17359TIP3   OH273491   1.480   6.090  14.690 -0.4400  0.4571 -0.2644
17359TIP3    H173492   1.519   6.046  14.766 -1.1983  3.3713  2.0117
17359TIP3    H273493   1.519   6.047  14.614  1.1387 -1.9582  1.7745
17360TIP3   OH273494   2.235   1.713  14.493 -0.3342  0.7361  0.4935
17360TIP3    H173495   2.305   1.735  14.430  0.5595 -0.7085  0.9147
17360TIP3    H273496   2.171   1.664  14.441  0.6374 -0.8805  0.7450
17361TIP3   OH273497   5.858   6.055   1.581 -0.1118  0.1241  0.1582
17361TIP3    H173498   5.775   6.009   1.570  0.1494  0.0008 -1.5329
17361TIP3    H273499   5.923   5.986   1.596  0.1281 -0.0289 -1.4362
17362TIP3   OH273500   2.160   5.710  10.835 -0.1989  0.1443  0.2049
17362TIP3    H173501   2.094   5.715  10.766 -0.6055  0.5745  0.6217
17362TIP3    H273502   2.243   5.706  10.788 -0.3744  1.8639 -0.3125
17363TIP3   OH273503   1.797   6.262   4.029 -0.0492 -0.0184 -0.2971
17363TIP3    H173504   1.765   6.298   4.112 -1.2383 -2.2231  0.2782
17363TIP3    H273505   1.781   6.332   3.965 -1.4381  0.8079  0.8837
17364TIP3   OH273506   4.204   3.818  11.478  0.2901  0.0447  0.4522
17364TIP3    H173507   4.161   3.834  11.394 -0.9051 -0.1517  1.0029
17364TIP3    H273508   4.295   3.846  11.464  0.7464 -2.1726 -1.6128
17365TIP3   OH273509   6.193   3.094  10.649 -0.3668  0.3257  0.1660
17365TIP3    H173510   6.285   3.113  10.628 -0.8725  1.5532 -1.1282
17365TIP3    H273511   6.179   3.005  10.618  0.7033 -0.3769  1.5701
17366TIP3   OH273512   5.442   2.890  16.460 -0.2568  0.5968  0.5146
17366TIP3    H173513   5.495   2.810  16.461 -0.6520  0.3221  0.0937
17366TIP3    H273514   5.357   2.862  16.424 -0.1647  1.3462 -0.3255
17367TIP3   OH273515   2.490   5.768  11.835 -0.1124 -0.1266 -0.0142
17367TIP3    H173516   2.522   5.841  11.783  0.0107 -0.4464 -0.3906
17367TIP3    H273517   2.490   5.800  11.925  1.8030 -0.2988  0.0739
17368TIP3   OH273518   3.322   6.658   6.582  0.1007  0.2045  0.2947
17368TIP3    H173519   3.376   6.585   6.553  2.2337  1.9616 -0.4806
17368TIP3    H273520   3.370   6.695   6.656 -0.9239  0.8335  0.6584
17369TIP3   OH273521   5.600   6.597  14.602  0.5177 -0.4768  0.5764
17369TIP3    H173522   5.649   6.673  14.632 -1.0528  0.2899  1.3114
17369TIP3    H273523   5.554   6.627  14.524  1.1155 -1.1497 -0.0451
17370TIP3   OH273524   6.347   3.664   2.032  0.0442  0.3613  0.3966
17370TIP3    H173525   6.392   3.583   2.008  0.9921 -0.5667  4.5518
17370TIP3    H273526   6.254   3.646   2.016  0.4638 -0.4957 -1.2514
17371TIP3   OH273527   2.935   1.632   2.188 -0.1449 -0.4286 -0.3342
17371TIP3    H173528   2.966   1.630   2.097  2.0736  0.1726  0.3387
17371TIP3    H273529   2.858   1.576   2.188  1.4663 -2.8802 -2.0438
17372TIP3   OH273530   4.752   1.457   1.878  0.5090 -0.1754 -0.3800
17372TIP3    H173531   4.678   1.401   1.901 -0.3322  0.5865 -1.1486
17372TIP3    H273532   4.717   1.546   1.882  0.9457  0.1261 -2.2338
17373TIP3   OH273533   3.987   4.459  13.574 -0.1919 -0.3323  0.6712
17373TIP3    H173534   3.994   4.488  13.483  1.4553 -0.7274  0.6391
17373TIP3    H273535   3.942   4.375  13.568  0.6218 -0.7483  0.1061
17374TIP3   OH273536   1.860   4.782  12.484  0.0810  0.2568 -0.2104
17374TIP3    H173537   1.849   4.703  12.430 -0.4014  0.4293 -0.3790
17374TIP3    H273538   1.861   4.854  12.420 -1.8444  0.5805  0.0604
17375TIP3   OH273539   3.754   2.729  16.521 -0.2567 -0.8014 -0.1504
17375TIP3    H173540   3.791   2.762  16.603 -1.5806 -1.8149  0.8965
17375TIP3    H273541   3.732   2.638  16.539  0.1150 -1.2787 -1.8890
17376TIP3   OH273542   2.630   6.237   5.851  0.2238 -0.1071 -0.1612
17376TIP3    H173543   2.561   6.273   5.796 -0.3617 -2.0467 -0.7687
17376TIP3    H273544   2.704   6.223   5.792  1.1388  1.7515  0.4442
17377TIP3   OH273545   4.221   1.913   5.054  0.1526  0.0766 -0.3968
17377TIP3    H173546   4.298   1.969   5.058  0.1685 -0.0162  1.4611
17377TIP3    H273547   4.171   1.947   4.980  1.4901  0.7443 -1.0488
17378TIP3   OH273548   0.085   0.709  14.022 -0.1786 -0.5792 -0.1030
17378TIP3    H173549   0.068   0.614  14.024  1.2146 -0.8512  1.3502
17378TIP3    H273550   0.167   0.719  14.071 -0.9154  1.5146  0.7882
17379TIP3   OH273551   3.736   3.304  14.942 -0.3954  0.1844 -0.0834
17379TIP3    H173552   3.744   3.285  15.036 -1.7576 -1.4394 -0.2505
17379TIP3    H273553   3.822   3.339  14.918  0.0649  0.4054  1.7068
17380TIP3   OH273554   3.916   3.102   4.288 -0.0950  0.4340  0.0452
17380TIP3    H173555   3.911   3.181   4.342  2.0013  1.1770 -0.7312
17380TIP3    H273556   3.930   3.134   4.199  0.4092 -0.8001 -0.3469
17381TIP3   OH273557   3.154   5.814  10.882  0.1844  0.0263  0.6689
17381TIP3    H173558   3.183   5.890  10.831 -0.0532  0.1298  0.6825
17381TIP3    H273559   3.219   5.806  10.952 -0.0316  0.4932  0.9297
17382TIP3   OH273560   5.717   4.997  17.200 -0.2041 -0.1948  0.7566
17382TIP3    H173561   5.738   5.021  17.110  0.5912  1.9525  1.4427
17382TIP3    H273562   5.648   4.931  17.192  0.5438 -0.7943 -1.4147
17383TIP3   OH273563   2.696   1.368   5.038 -0.7340 -0.4185 -0.0668
17383TIP3    H173564   2.774   1.410   5.001 -0.0838 -1.1702  0.4027
17383TIP3    H273565   2.625   1.393   4.979 -0.5246  1.9144  0.5875
17384TIP3   OH273566   6.039   1.630   4.600  0.2786  0.0861  0.0458
17384TIP3    H173567   6.061   1.586   4.682 -1.9699 -0.0352  0.6527
17384TIP3    H273568   6.002   1.714   4.628 -0.5630  0.0229 -0.8445
17385TIP3   OH273569   4.468   3.205  15.357 -0.8293  0.3298 -0.6354
17385TIP3    H173570   4.452   3.299  15.368  0.1355  0.4762 -0.3508
17385TIP3    H273571   4.391   3.172  15.311 -0.5408  1.5468 -2.0678
17386TIP3   OH273572   3.432   6.190  14.293  0.6020  0.2551  0.3942
17386TIP3    H173573   3.386   6.174  14.210  1.4423  2.6279 -0.6122
17386TIP3    H273574   3.523   6.202  14.267  0.6686  2.4013  1.4467
17387TIP3   OH273575   1.921   4.591   6.030 -0.1724 -0.1836 -0.4971
17387TIP3    H173576   1.976   4.645   5.973 -0.9383  0.5189 -0.6039
17387TIP3    H273577   1.975   4.516   6.053  1.4267  1.2545  0.7029
17388TIP3   OH273578   2.266   0.903   1.866  0.3707  0.0383 -0.2276
17388TIP3    H173579   2.263   0.978   1.924 -0.0361 -0.1028 -0.0630
17388TIP3    H273580   2.250   0.827   1.923  1.6816 -0.2643 -0.2376
17389TIP3   OH273581   0.879   1.996  12.642 -0.0695 -0.3424 -0.0083
17389TIP3    H173582   0.857   2.046  12.563  0.7114 -1.0424 -0.7006
17389TIP3    H273583   0.899   1.908  12.609 -0.7336 -0.9382  1.0949
17390TIP3   OH273584   4.417   4.733   3.151  0.4847 -0.0051  0.8501
17390TIP3    H173585   4.374   4.818   3.154  0.3776 -0.0473  0.5602
17390TIP3    H273586   4.506   4.749   3.183  0.7579  0.4019 -0.0939
17391TIP3   OH273587   2.253   6.057  11.203  0.6901  0.0860 -0.2909
17391TIP3    H173588   2.216   5.972  11.227 -0.0132  0.5579  0.3536
17391TIP3    H273589   2.257   6.055  11.108 -0.7350 -0.1112 -0.3780
17392TIP3   OH273590   2.273   5.162   3.357  0.1726  0.8186  0.0311
17392TIP3    H173591   2.269   5.143   3.263  0.6631 -0.5024  0.2448
17392TIP3    H273592   2.280   5.257   3.362  1.2632  0.8485 -1.3145
17393TIP3   OH273593   6.734   4.043   0.056  0.0132 -0.2314 -0.5104
17393TIP3    H173594   6.813   4.001   0.088  0.1769  0.6783  0.3204
17393TIP3    H273595   6.762   4.130   0.029 -0.7566  0.2216  0.1034
17394TIP3   OH273596   2.749   3.163   2.942 -0.2300 -0.2483  0.3394
17394TIP3    H173597   2.785   3.149   3.030 -1.7941 -3.7989  0.6165
17394TIP3    H273598   2.668   3.212   2.957 -1.5756 -2.5938  1.2690
17395TIP3   OH273599   6.228   1.756  13.182  0.2370  0.3766  0.1818
17395TIP3    H173600   6.206   1.833  13.234  1.2261  1.6288 -1.1759
17395TIP3    H273601   6.305   1.782  13.131  0.6517 -1.5398 -0.2586
17396TIP3   OH273602   3.245   6.327  15.090 -0.0386 -0.2629  0.3070
17396TIP3    H173603   3.215   6.368  15.009 -0.3512 -1.1169 -0.0310
17396TIP3    H273604   3.218   6.387  15.160  0.7621  0.7770 -0.2538
17397TIP3   OH273605   0.665   3.397   5.912  0.3618  0.1424 -0.4956
17397TIP3    H173606   0.625   3.475   5.872 -0.4536 -1.2766 -2.6771
17397TIP3    H273607   0.744   3.430   5.955 -0.4444  2.2970 -0.5388
17398TIP3   OH273608   5.230   5.929   1.875 -0.1191  0.6743  0.2104
17398TIP3    H173609   5.235   5.960   1.965  0.0825  0.9394  0.1129
17398TIP3    H273610   5.269   5.842   1.877 -0.1170  0.6788  0.3788
17399TIP3   OH273611   5.205   1.419  12.328  0.0044  0.8161 -0.5521
17399TIP3    H173612   5.128   1.414  12.384 -1.2565  0.5128 -2.2524
17399TIP3    H273613   5.251   1.336  12.342 -0.6136  0.4959 -0.4177
17400TIP3   OH273614   3.464   6.399   5.252  0.3420 -0.0303 -0.4480
17400TIP3    H173615   3.439   6.434   5.338  1.6602  0.4817 -0.2553
17400TIP3    H273616   3.419   6.315   5.247  0.3428 -0.1241  0.7981
17401TIP3   OH273617   5.095   3.974   3.500 -0.1444 -0.1817 -0.1643
17401TIP3    H173618   5.116   3.907   3.565  1.2282 -0.3233 -0.7089
17401TIP3    H273619   5.163   4.041   3.512 -1.3321  1.0173  0.1946
17402TIP3   OH273620   0.643   4.772   3.810  0.2432  0.1854  0.2785
17402TIP3    H173621   0.641   4.811   3.897  1.3883  0.9060  0.0022
17402TIP3    H273622   0.676   4.842   3.753  1.5090 -0.8876 -0.3771
17403TIP3   OH273623   6.467   0.129   2.304 -0.1227  0.2553 -0.2334
17403TIP3    H173624   6.539   0.181   2.340  1.5364 -2.0202  0.0211
17403TIP3    H273625   6.398   0.134   2.370  0.0190  2.0006 -0.1834
17404TIP3   OH273626   0.709   4.043   5.720 -0.0909  0.1255 -0.1503
17404TIP3    H173627   0.659   4.119   5.750 -1.9810 -1.0428 -0.1975
17404TIP3    H273628   0.644   3.988   5.675  0.8436 -2.2925  1.3040
17405TIP3   OH273629   4.621   1.570   1.324 -0.1334  0.6314  0.1395
17405TIP3    H173630   4.674   1.642   1.358  0.1455  0.1627  0.7105
17405TIP3    H273631   4.625   1.502   1.392  0.6212 -0.4150 -0.9042
17406TIP3   OH273632   4.101   5.828   1.633 -0.0523 -0.2729  0.0978
17406TIP3    H173633   4.097   5.922   1.650  0.9963 -0.1120 -0.4454
17406TIP3    H273634   4.127   5.821   1.542 -0.6681 -1.1016 -0.0254
17407TIP3   OH273635   5.777   1.264   0.904 -0.3662 -0.2005 -0.4090
17407TIP3    H173636   5.825   1.332   0.857 -1.3670  0.7154 -0.1414
17407TIP3    H273637   5.739   1.308   0.980 -1.6750 -0.8605 -0.6413
17408TIP3   OH273638   3.117   3.194   2.787  0.1126 -0.2592 -0.0205
17408TIP3    H173639   3.099   3.273   2.837 -0.5087  0.7055 -1.6749
17408TIP3    H273640   3.200   3.212   2.743  1.6828 -1.8711  2.0836
17409TIP3   OH273641   0.059   4.621   3.174  0.0543 -0.1455  0.3774
17409TIP3    H173642   0.062   4.526   3.159 -0.5453 -0.1797  0.4472
17409TIP3    H273643   0.044   4.659   3.088  2.1261  0.0200  0.0401
17410TIP3   OH273644   1.221   5.040  14.361 -0.8561 -0.2271  0.1590
17410TIP3    H173645   1.233   5.071  14.272 -1.8661  0.3708  0.2199
17410TIP3    H273646   1.290   5.083  14.411  1.4839 -2.6460 -0.7438
17411TIP3   OH273647   3.980   0.985   0.746  0.3117 -0.0041  0.5128
17411TIP3    H173648   3.963   1.023   0.833  1.0969 -0.7159  0.9915
17411TIP3    H273649   3.924   0.907   0.744  2.3318 -1.5798  1.5438
17412TIP3   OH273650   3.730   5.327  13.651  0.1780 -0.0287  0.6282
17412TIP3    H173651   3.702   5.287  13.569 -1.0759  1.1595  0.4485
17412TIP3    H273652   3.653   5.374  13.682  0.9759  0.4638  1.9259
17413TIP3   OH273653   6.113   2.778   2.746 -0.0147 -0.1796  0.1125
17413TIP3    H173654   6.119   2.789   2.651 -0.8859 -0.5633  0.0075
17413TIP3    H273655   6.023   2.803   2.768 -0.2560 -1.4327  0.6391
17414TIP3   OH273656   2.050   6.221   0.855 -0.0844 -0.0558  0.6053
17414TIP3    H173657   2.025   6.135   0.821  1.4226 -1.2313  2.2797
17414TIP3    H273658   2.038   6.280   0.781  2.5084 -2.3181 -1.8872
17415TIP3   OH273659   1.603   3.000  11.750  0.7757 -0.0617  0.6844
17415TIP3    H173660   1.529   3.051  11.783 -0.3854  0.5882 -2.5929
17415TIP3    H273661   1.680   3.050  11.777 -0.2228  1.9756 -0.0482
17416TIP3   OH273662   1.351   6.220   2.124  0.4070 -0.0233 -0.0084
17416TIP3    H173663   1.354   6.136   2.170 -2.1296  0.2088  0.7750
17416TIP3    H273664   1.380   6.200   2.035 -0.2640 -1.7877  0.1241
17417TIP3   OH273665   1.259   1.638   3.913 -0.0645 -0.1552  0.6643
17417TIP3    H173666   1.314   1.681   3.847 -1.4639 -0.8920 -1.0555
17417TIP3    H273667   1.320   1.583   3.962  1.3198  1.7764  1.2623
17418TIP3   OH273668   5.626   4.600  11.635 -0.4660  0.2882  0.2302
17418TIP3    H173669   5.640   4.684  11.593  0.2338  0.5176  0.9009
17418TIP3    H273670   5.664   4.610  11.723 -1.6266 -0.2626  0.8302
17419TIP3   OH273671   6.544   4.019   4.279 -0.2071 -0.2818  0.2911
17419TIP3    H173672   6.593   4.003   4.360  0.7242 -1.0389 -0.3942
17419TIP3    H273673   6.549   4.114   4.267 -0.2408 -0.1767  1.0443
17420TIP3   OH273674   5.072   5.617   5.237 -0.7782  1.1677  0.1573
17420TIP3    H173675   5.040   5.536   5.198 -0.0841  1.4864 -1.1170
17420TIP3    H273676   5.049   5.685   5.174  0.8143  1.6245  0.0269
17421TIP3   OH273677   6.675   5.878  16.814  0.6967 -0.3641 -0.0812
17421TIP3    H173678   6.636   5.892  16.900  0.3583 -3.3153  0.3555
17421TIP3    H273679   6.646   5.952  16.761 -0.4355  0.6591  1.8888
17422TIP3   OH273680   5.921   1.426  12.508 -0.2710  0.3719 -0.0427
17422TIP3    H173681   5.901   1.482  12.433 -0.2397  0.4088 -0.0243
17422TIP3    H273682   5.847   1.437  12.567 -0.7835 -0.4306 -0.5087
17423TIP3   OH273683   1.401   1.520  16.192 -0.2592  0.1651  0.3794
17423TIP3    H173684   1.462   1.593  16.196 -1.0432  0.9402 -0.9239
17423TIP3    H273685   1.317   1.557  16.220  0.0363 -1.2177  3.5791
17424TIP3   OH273686   2.644   5.520   5.137 -0.1272  0.6035  0.2168
17424TIP3    H173687   2.676   5.497   5.050 -1.7997  0.2936 -0.3547
17424TIP3    H273688   2.666   5.612   5.148  3.1469 -0.1369  0.9199
17425TIP3   OH273689   6.379   6.369   1.956  0.0217 -0.3413 -0.5126
17425TIP3    H173690   6.342   6.448   1.997  0.1920  0.1135 -1.2136
17425TIP3    H273691   6.334   6.296   1.999 -0.7237  0.1638 -0.4129
17426TIP3   OH273692   0.214   2.399   1.218  0.2767  0.3898 -0.4562
17426TIP3    H173693   0.218   2.494   1.229  4.0651  0.2750  0.5632
17426TIP3    H273694   0.282   2.380   1.153 -0.7552 -1.6189 -1.0309
17427TIP3   OH273695   4.373   0.324  15.434 -0.3242 -0.0384  0.7109
17427TIP3    H173696   4.278   0.328  15.448 -0.4301  2.0513 -0.2391
17427TIP3    H273697   4.383   0.329  15.339  0.7589  2.0964  0.8802
17428TIP3   OH273698   6.235   0.829   1.874 -0.1184  0.1272 -0.3002
17428TIP3    H173699   6.306   0.873   1.920  0.6185 -2.0331  0.7835
17428TIP3    H273700   6.262   0.737   1.871 -2.2899 -0.5485 -0.9883
17429TIP3   OH273701   4.155   2.077  17.308 -0.2777  0.0219 -0.7121
17429TIP3    H173702   4.204   2.071  17.227  0.0160  2.2172 -0.7466
17429TIP3    H273703   4.113   2.163  17.306 -0.1301  0.2262  1.5225
17430TIP3   OH273704   1.936   5.461  14.133  0.0003  0.6357 -0.4882
17430TIP3    H173705   1.900   5.547  14.113 -2.4702 -0.1986  0.0816
17430TIP3    H273706   1.977   5.471  14.219 -2.0270  0.8297  0.5079
17431TIP3   OH273707   3.010   2.424   1.146  0.2671  0.3017  0.5212
17431TIP3    H173708   3.069   2.451   1.075 -1.6950 -0.8839 -1.7087
17431TIP3    H273709   3.000   2.330   1.134  0.1187  0.0130  2.6302
17432TIP3   OH273710   5.595   5.885  14.184 -0.4072 -0.5224  0.4180
17432TIP3    H173711   5.670   5.830  14.209  0.6111  1.4644  1.9809
17432TIP3    H273712   5.533   5.874  14.256 -0.6682 -0.4754  0.1982
17433TIP3   OH273713   4.890   1.764   0.446  0.2172 -0.6568  0.4266
17433TIP3    H173714   4.872   1.857   0.431 -0.4861 -0.9893 -0.9541
17433TIP3    H273715   4.805   1.727   0.469  0.2815 -1.1518 -0.1210
17434TIP3   OH273716   6.414   1.887   5.638 -0.1645 -0.0090  0.0100
17434TIP3    H173717   6.415   1.870   5.732  0.3826  1.7521  0.3436
17434TIP3    H273718   6.329   1.928   5.622  0.0416  0.3631 -0.1349
17435TIP3   OH273719   0.076   3.561  15.742  0.1139  0.6590  0.1538
17435TIP3    H173720   0.088   3.576  15.648 -1.0756  0.1982 -0.0964
17435TIP3    H273721   0.110   3.473  15.757  0.2867  0.7252  0.1537
17436TIP3   OH273722   1.892   1.226   1.125 -0.0483  0.5835  0.4292
17436TIP3    H173723   1.816   1.203   1.179 -0.2095  0.7207  0.2625
17436TIP3    H273724   1.887   1.167   1.050  0.8710 -0.4650  1.1625
17437TIP3   OH273725   6.285   2.077  15.943  0.2434  0.1009  0.1965
17437TIP3    H173726   6.352   2.026  15.988 -1.0307 -1.0334  0.9201
17437TIP3    H273727   6.262   2.147  16.004  1.1223  0.8318 -0.2833
17438TIP3   OH273728   2.602   2.432   1.916  0.2187 -0.3540  0.2920
17438TIP3    H173729   2.624   2.464   2.003  0.4279 -0.4898  0.2894
17438TIP3    H273730   2.517   2.471   1.897 -0.0561 -0.7074  0.7611
17439TIP3   OH273731   5.381   6.743  14.131  0.4492  0.2041  0.3175
17439TIP3    H173732   5.290   6.718  14.142 -0.2476  0.8949 -2.8459
17439TIP3    H273733   5.378   6.837  14.111  1.8458  0.1977 -0.0231
17440TIP3   OH273734   5.697   0.819   6.077 -0.0755 -0.3142 -0.1823
17440TIP3    H173735   5.732   0.908   6.079 -1.7686  0.4397 -1.6393
17440TIP3    H273736   5.770   0.764   6.106  1.1287  1.4969  0.3829
17441TIP3   OH273737   6.075   2.731  11.228 -0.1082  0.4810  0.6422
17441TIP3    H173738   6.135   2.776  11.169  0.3967  1.8765  2.1321
17441TIP3    H273739   5.992   2.726  11.180  0.0872  2.2447  0.0682
17442TIP3   OH273740   4.991   1.930  14.068  0.5349  0.6478 -0.4029
17442TIP3    H173741   5.078   1.939  14.030  0.9833  0.5234  0.5552
17442TIP3    H273742   4.987   1.998  14.136 -0.4088  1.1667 -0.9438
17443TIP3   OH273743   2.815   1.096   1.665  0.0320 -0.2270  0.0012
17443TIP3    H173744   2.752   1.152   1.711 -2.2385 -0.4426 -2.5765
17443TIP3    H273745   2.843   1.149   1.590 -0.1404 -1.5211 -1.0288
17444TIP3   OH273746   4.610   4.029   1.070  0.6387  0.2741 -0.2855
17444TIP3    H173747   4.600   4.056   1.161 -0.0583 -0.6391 -0.0769
17444TIP3    H273748   4.586   4.106   1.019  0.4629  0.6138  0.2998
17445TIP3   OH273749   6.032   3.038   1.880  0.2889  0.1302 -0.3820
17445TIP3    H173750   6.044   2.966   1.818 -1.0730  0.6031 -1.2300
17445TIP3    H273751   6.046   2.998   1.966 -0.0156 -1.0544 -0.8652
17446TIP3   OH273752   5.920   0.687   6.132 -0.3380 -0.5249  0.2532
17446TIP3    H173753   5.906   0.642   6.215 -2.5295  2.0837  1.4767
17446TIP3    H273754   6.001   0.737   6.146  0.2492 -1.4449  0.1568
17447TIP3   OH273755   0.350   5.652  11.771 -0.4122  0.3731  0.2513
17447TIP3    H173756   0.310   5.668  11.856  0.2678 -0.7335  0.8090
17447TIP3    H273757   0.280   5.613  11.719 -1.5699  3.2874 -0.5663
17448TIP3   OH273758   2.135   6.537   1.789  0.7026 -0.2603 -0.2520
17448TIP3    H173759   2.160   6.614   1.737 -1.6631  0.7853  0.0469
17448TIP3    H273760   2.046   6.517   1.761 -0.1899 -0.4588  2.4180
17449TIP3   OH273761   5.325   5.645   4.435 -0.0535  0.1656 -0.2079
17449TIP3    H173762   5.316   5.580   4.505  2.0112  1.5199  1.4524
17449TIP3    H273763   5.334   5.593   4.355 -1.7830 -1.4545  0.5731
17450TIP3   OH273764   0.666   2.124  14.635 -0.1035 -0.4675 -0.3627
17450TIP3    H173765   0.743   2.175  14.656 -0.7333 -0.8473  3.4620
17450TIP3    H273766   0.695   2.033  14.638 -0.8289 -0.6718  2.2458
17451TIP3   OH273767   6.214   4.067  11.952 -0.3295  0.5886  0.7271
17451TIP3    H173768   6.281   3.998  11.946 -0.3099  0.6644 -0.0956
17451TIP3    H273769   6.264   4.148  11.964 -0.3489  0.4736  1.6197
17452TIP3   OH273770   4.220   5.669  16.014 -0.5121 -0.0197 -0.6728
17452TIP3    H173771   4.209   5.579  16.044  0.0581  0.1336  0.0386
17452TIP3    H273772   4.137   5.691  15.971 -1.3491 -0.2610  0.7705
17453TIP3   OH273773   0.338   4.267   3.256 -0.2879 -0.0845 -0.0237
17453TIP3    H173774   0.354   4.185   3.303 -0.8055 -0.1193  0.1049
17453TIP3    H273775   0.385   4.257   3.174  1.5653  0.4244  0.9205
17454TIP3   OH273776   3.774   6.563  14.777  0.5983 -0.0196  0.0105
17454TIP3    H173777   3.717   6.612  14.718  0.5494 -0.1222 -0.0282
17454TIP3    H273778   3.723   6.553  14.858  0.3088 -0.6652 -0.2450
17455TIP3   OH273779   2.449   3.326   2.002 -0.4348 -0.6142 -0.6289
17455TIP3    H173780   2.521   3.300   2.060 -1.4565 -0.6520  0.6626
17455TIP3    H273781   2.493   3.356   1.922  1.0919  0.6454  0.6169
17456TIP3   OH273782   4.231   1.194  13.893 -0.1229 -0.0173  0.3169
17456TIP3    H173783   4.239   1.154  13.980 -0.0694 -0.1159  0.2656
17456TIP3    H273784   4.292   1.146  13.838 -0.8746 -0.6093 -0.0118
17457TIP3   OH273785   6.496   5.856   1.928 -0.2284  0.3801  0.5908
17457TIP3    H173786   6.584   5.881   1.899  0.6639 -2.9685  0.0766
17457TIP3    H273787   6.438   5.919   1.885  1.6899  0.6716 -1.7728
17458TIP3   OH273788   3.763   6.692   1.044  0.1629  0.1932  0.1608
17458TIP3    H173789   3.734   6.642   1.120 -2.4782  0.9681 -0.2350
17458TIP3    H273790   3.724   6.647   0.969 -0.9956  1.9171 -0.3286
17459TIP3   OH273791   4.690   1.985   3.224 -0.4970 -0.4525 -0.6215
17459TIP3    H173792   4.641   2.063   3.248 -0.4883 -0.8968  0.9968
17459TIP3    H273793   4.690   1.932   3.304  1.4239 -1.0801 -0.9927
17460TIP3   OH273794   1.942   3.301   5.048 -0.2430  0.1840 -0.1464
17460TIP3    H173795   1.927   3.309   4.953  0.9578  0.6440 -0.3200
17460TIP3    H273796   2.032   3.268   5.055 -0.2078  0.4539  0.8360
17461TIP3   OH273797   4.074   1.747   5.966  0.5532  0.0646  0.5863
17461TIP3    H173798   4.052   1.829   6.010 -0.3571 -0.6087  1.4126
17461TIP3    H273799   4.155   1.718   6.007  1.5901  1.1493 -0.5714
17462TIP3   OH273800   5.201   2.118   0.536 -0.1262 -0.7919  0.4130
17462TIP3    H173801   5.127   2.179   0.540  0.3304 -0.2783  1.2587
17462TIP3    H273802   5.162   2.032   0.552 -0.9598 -0.9246 -1.8957
17463TIP3   OH273803   0.539   3.828  13.353  0.1114  0.2174  0.4623
17463TIP3    H173804   0.598   3.843  13.427  0.1563  1.5331  0.1885
17463TIP3    H273805   0.582   3.869  13.279 -0.4961 -0.0417 -0.0477
17464TIP3   OH273806   3.469   2.649  14.592  0.1765  0.0107  0.2124
17464TIP3    H173807   3.441   2.737  14.614 -2.2239 -1.3465  3.3430
17464TIP3    H273808   3.408   2.620  14.524  0.5173  0.4951 -0.3044
17465TIP3   OH273809   0.864   1.828   3.587  0.1411 -0.6468 -0.0988
17465TIP3    H173810   0.910   1.796   3.665  1.4810 -0.1435 -0.6521
17465TIP3    H273811   0.929   1.825   3.518 -0.1452  1.6729 -0.5476
17466TIP3   OH273812   4.583   4.029  14.829 -0.4175 -0.0263 -0.5753
17466TIP3    H173813   4.533   4.091  14.882  1.1080 -1.2530  2.5754
17466TIP3    H273814   4.659   4.079  14.798 -0.2190  0.2052  0.2638
17467TIP3   OH273815   3.097   3.420   2.940  0.5618 -0.4495  0.1520
17467TIP3    H173816   3.078   3.485   3.007  0.2038  0.8055 -1.1033
17467TIP3    H273817   3.185   3.388   2.960  0.7193  0.3841  0.8168
17468TIP3   OH273818   1.237   0.713  15.603 -0.1658 -0.6646  0.0568
17468TIP3    H173819   1.327   0.734  15.627 -0.6742  0.9866  0.6678
17468TIP3    H273820   1.205   0.791  15.558 -1.1400 -1.4223 -0.6239
17469TIP3   OH273821   6.675   4.801   4.830  0.2839  0.3400  0.2706
17469TIP3    H173822   6.629   4.720   4.853 -1.1511  1.2377  0.7105
17469TIP3    H273823   6.751   4.802   4.888  0.0202 -0.4344  0.6433
17470TIP3   OH273824   1.059   3.142   0.913 -0.8794 -0.4391 -0.3130
17470TIP3    H173825   1.054   3.048   0.926  0.9161 -0.2395  2.7607
17470TIP3    H273826   1.153   3.160   0.904 -1.0376  1.1820  0.7937
17471TIP3   OH273827   1.712   0.978   5.620 -0.1049  1.3388 -0.0656
17471TIP3    H173828   1.682   0.893   5.654  1.2176  1.0693  0.4991
17471TIP3    H273829   1.690   0.975   5.527  0.0784  0.2832 -0.0934
17472TIP3   OH273830   1.255   3.795  15.497 -0.2703 -0.6951  0.3144
17472TIP3    H173831   1.347   3.788  15.520  0.5725  2.4559 -1.4816
17472TIP3    H273832   1.239   3.721  15.438  1.1120 -1.2657  0.6227
17473TIP3   OH273833   6.207   2.088   3.785  0.0575  0.1145  0.0885
17473TIP3    H173834   6.152   2.021   3.744  1.5448 -2.0195  1.3643
17473TIP3    H273835   6.149   2.134   3.845 -0.7147 -1.0233  0.2483
17474TIP3   OH273836   0.571   0.588   2.600 -0.0795 -0.0046 -0.4920
17474TIP3    H173837   0.592   0.497   2.621 -0.9411 -0.1910 -0.3710
17474TIP3    H273838   0.576   0.592   2.505  2.1916  0.4170 -0.4054
17475TIP3   OH273839   4.672   0.801   0.115  0.6227 -0.2374 -0.5370
17475TIP3    H173840   4.643   0.794   0.025  1.0449  2.0431 -0.9083
17475TIP3    H273841   4.737   0.731   0.125  1.3818  0.1665 -2.3310
17476TIP3   OH273842   5.447   6.271   3.714  0.2690 -0.2689  0.3407
17476TIP3    H173843   5.507   6.254   3.788  0.9411 -0.4317 -0.2308
17476TIP3    H273844   5.486   6.346   3.669 -0.6108  0.3795  0.6454
17477TIP3   OH273845   2.638   3.407  13.987 -0.2303 -0.1873  0.0161
17477TIP3    H173846   2.693   3.482  13.966  1.1605 -1.0376  0.4931
17477TIP3    H273847   2.551   3.445  14.004  0.2499  1.2100 -0.5060
17478TIP3   OH273848   1.968   4.459  13.727  0.3384  0.8310  0.5960
17478TIP3    H173849   1.945   4.396  13.795  0.8750  2.0120  1.9319
17478TIP3    H273850   1.888   4.468  13.675 -0.1501  0.0377  1.1798
17479TIP3   OH273851   3.944   3.088   2.033 -0.0435 -0.0093 -0.0280
17479TIP3    H173852   3.850   3.074   2.023  0.2231 -1.4758 -0.7050
17479TIP3    H273853   3.982   3.061   1.949  0.9973  0.3563  0.3086
17480TIP3   OH273854   0.550   6.296  16.231  0.0892  0.4434  0.1068
17480TIP3    H173855   0.632   6.346  16.237  0.3846 -0.1842  1.5542
17480TIP3    H273856   0.562   6.241  16.153  1.9907 -1.1982  1.4476
17481TIP3   OH273857   3.777   1.521  12.113  0.4029 -0.0876 -0.3462
17481TIP3    H173858   3.782   1.564  12.028 -1.9100  2.3094  0.5904
17481TIP3    H273859   3.804   1.431  12.096  2.0088  0.7950 -3.1617
17482TIP3   OH273860   3.603   4.479  13.361  0.4748 -0.0760  0.2721
17482TIP3    H173861   3.620   4.563  13.405  0.3111  0.1975 -0.1721
17482TIP3    H273862   3.657   4.483  13.282 -0.1219 -0.0550 -0.1419
17483TIP3   OH273863   6.151   0.470  16.927  0.0019  0.1355  0.1306
17483TIP3    H173864   6.104   0.463  17.010 -0.0162  1.1535  0.2151
17483TIP3    H273865   6.093   0.427  16.864  0.2772 -1.1688  0.7252
17484TIP3   OH273866   4.173   6.037   4.092  0.1786 -0.1501  0.4442
17484TIP3    H173867   4.185   6.092   4.169  0.5821 -0.9745  0.9838
17484TIP3    H273868   4.121   5.963   4.123 -0.6488  0.0815 -0.3498
17485TIP3   OH273869   1.532   3.414  11.833 -0.5576 -0.1013 -0.1115
17485TIP3    H173870   1.465   3.348  11.815 -0.8859 -0.2881  1.6159
17485TIP3    H273871   1.486   3.498  11.820 -0.1759 -0.1757 -2.1706
17486TIP3   OH273872   3.794   2.527   0.801  1.1312  0.2727 -0.0280
17486TIP3    H173873   3.701   2.505   0.792  1.3747 -1.4591  1.2695
17486TIP3    H273874   3.795   2.621   0.815 -0.4276  0.3224 -0.0676
17487TIP3   OH273875   4.949   0.736   4.454  0.3903 -0.2688  0.3124
17487TIP3    H173876   4.949   0.690   4.370  0.6596  0.3247 -0.0253
17487TIP3    H273877   4.867   0.785   4.455  0.2089 -0.5746  0.5700
17488TIP3   OH273878   4.153   1.216   2.725  0.0788  0.4382  0.3589
17488TIP3    H173879   4.162   1.309   2.748  1.9516  0.9132 -1.8946
17488TIP3    H273880   4.069   1.211   2.680 -0.1208  1.0018  0.6514
17489TIP3   OH273881   4.037   2.577  16.891 -0.1571 -0.6034 -0.2167
17489TIP3    H173882   4.026   2.499  16.945 -0.6888  1.0917  2.2736
17489TIP3    H273883   4.105   2.628  16.934  0.1849  0.3526 -1.7797
17490TIP3   OH273884   2.978   5.941   2.688 -0.6100  0.0669 -0.6780
17490TIP3    H173885   3.058   5.975   2.728  0.8318 -3.5708 -0.0845
17490TIP3    H273886   2.983   5.972   2.597  3.2462 -2.4559 -1.5860
17491TIP3   OH273887   3.334   4.952  11.977  0.2968  0.0145  0.1774
17491TIP3    H173888   3.358   4.941  11.885  1.4858  0.7178  0.3859
17491TIP3    H273889   3.410   4.921  12.025  0.0104  0.4313  0.9064
17492TIP3   OH273890   3.700   4.459   3.765 -0.4964 -0.0868 -0.5277
17492TIP3    H173891   3.679   4.542   3.722 -0.8362  0.6322  0.9770
17492TIP3    H273892   3.639   4.453   3.838 -0.0658 -1.3684 -0.2441
17493TIP3   OH273893   3.390   2.253  16.525  0.1678  0.2572 -0.2221
17493TIP3    H173894   3.319   2.306  16.489 -0.3826  0.3872  1.0052
17493TIP3    H273895   3.414   2.194  16.454 -1.5468 -0.1689 -0.4954
17494TIP3   OH273896   2.031   3.124  17.050  0.5975  0.2576 -0.7018
17494TIP3    H173897   2.057   3.033  17.063 -1.7991 -0.2095  1.7216
17494TIP3    H273898   1.949   3.118  17.001  1.3895  1.2903 -2.2558
17495TIP3   OH273899   2.409   3.547  14.097  0.9031  0.1715  0.3241
17495TIP3    H173900   2.380   3.628  14.055  0.0889 -0.0313  0.4691
17495TIP3    H273901   2.328   3.500  14.116  1.3930 -0.9986 -0.3805
17496TIP3   OH273902   0.377   5.103   0.012 -0.2439  0.4797 -0.4813
17496TIP3    H173903   0.465   5.066   0.004 -0.0092  0.9947 -0.3215
17496TIP3    H273904   0.374   5.173  -0.053 -0.7139  0.1389 -0.8358
17497TIP3   OH273905   3.828   2.824   1.120  0.0650 -0.6914  0.2813
17497TIP3    H173906   3.805   2.747   1.172 -0.8856  1.0537  2.6330
17497TIP3    H273907   3.788   2.897   1.167  0.1912  1.1699 -2.3249
17498TIP3   OH273908   3.650   3.907   5.775  0.2178 -0.1980 -0.0769
17498TIP3    H173909   3.707   3.888   5.701  1.3023  0.6234  0.5251
17498TIP3    H273910   3.621   3.821   5.806 -0.0277 -0.5560 -1.2704
17499TIP3   OH273911   5.287   1.269   2.023 -0.2066 -0.5337  0.1043
17499TIP3    H173912   5.324   1.183   2.044  0.5065  0.2661  2.4816
17499TIP3    H273913   5.315   1.325   2.095 -0.0650  1.8959 -1.7206
17500TIP3   OH273914   0.246   6.265  11.207  0.2798  0.2447  0.2091
17500TIP3    H173915   0.332   6.225  11.194  1.1891  2.1383 -0.0055
17500TIP3    H273916   0.213   6.280  11.118 -0.3103 -0.5319  0.2930
17501TIP3   OH273917   3.373   1.902  17.335 -0.5179 -0.0861  0.5713
17501TIP3    H173918   3.416   1.890  17.420  0.4068 -0.9787 -0.0038
17501TIP3    H273919   3.431   1.960  17.287 -1.2894  0.8204  0.7043
17502TIP3   OH273920   5.665   5.744   4.497  0.0005  0.0380  0.4341
17502TIP3    H173921   5.652   5.836   4.516 -1.5844 -0.2717  0.9635
17502TIP3    H273922   5.613   5.698   4.563 -1.7975 -1.1766 -1.7076
17503TIP3   OH273923   2.724   4.674  14.885 -0.2175 -0.1745  0.2210
17503TIP3    H173924   2.769   4.706  14.807  0.7681  0.7116  1.1280
17503TIP3    H273925   2.683   4.752  14.923 -0.7525 -0.6067  0.5459
17504TIP3   OH273926   2.597   3.990  14.836  0.1365 -0.1624 -0.0674
17504TIP3    H173927   2.629   4.072  14.873  1.2289 -0.8397  0.5362
17504TIP3    H273928   2.506   4.009  14.813 -0.1508  0.7268  1.6125
17505TIP3   OH273929   2.500   4.664  13.251  0.9614  0.0305 -0.3467
17505TIP3    H173930   2.511   4.759  13.245  2.9894 -0.0778  0.7124
17505TIP3    H273931   2.465   4.649  13.338 -1.5811 -0.1213 -1.3013
17506TIP3   OH273932   0.839   3.718  16.843  0.1290 -0.3839 -0.0472
17506TIP3    H173933   0.807   3.800  16.807 -2.9870 -1.5498 -0.2031
17506TIP3    H273934   0.920   3.742  16.889 -0.3779  2.6240 -0.5337
17507TIP3   OH273935   1.965   2.583  15.009  0.2506 -0.2147  0.1187
17507TIP3    H173936   1.884   2.631  14.992 -0.0332 -1.0344 -0.9462
17507TIP3    H273937   1.992   2.611  15.096 -0.1962  1.4534 -0.2530
17508TIP3   OH273938   6.272   6.407   3.003  0.0365  0.1666  0.5973
17508TIP3    H173939   6.205   6.346   2.969  1.9831 -1.1769 -1.0633
17508TIP3    H273940   6.247   6.492   2.966  0.6639 -0.7956 -2.3779
17509TIP3   OH273941   6.399   2.399  15.291 -0.1407 -0.8131 -0.5104
17509TIP3    H173942   6.471   2.375  15.233  0.3020  0.7079 -0.6528
17509TIP3    H273943   6.421   2.360  15.375  0.7621 -0.5339 -0.6075
17510TIP3   OH273944   1.616   1.478   0.284  0.4861  0.0301  0.1600
17510TIP3    H173945   1.701   1.473   0.242  0.3615  0.5946 -0.1698
17510TIP3    H273946   1.555   1.437   0.222  0.2516  1.1417 -0.3743
17511TIP3   OH273947   5.031   3.528  12.569 -0.2402  0.3728 -0.0397
17511TIP3    H173948   5.087   3.467  12.619 -0.5766 -1.1023 -1.3999
17511TIP3    H273949   5.012   3.598  12.631  4.9106  2.2106 -0.0277
17512TIP3   OH273950   4.686   2.606  10.803 -0.5543 -0.1229  0.4038
17512TIP3    H173951   4.743   2.535  10.834 -0.6624 -1.2866 -1.8864
17512TIP3    H273952   4.688   2.670  10.874  2.0861 -0.9750  1.2251
17513TIP3   OH273953   4.868   6.421  12.164  0.7209 -1.1168 -0.3492
17513TIP3    H173954   4.878   6.456  12.075 -0.7188  0.4891  0.0683
17513TIP3    H273955   4.893   6.494  12.221  0.2997 -1.6719  0.5662
17514TIP3   OH273956   5.160   3.317  14.006  0.0743 -0.0493 -0.4486
17514TIP3    H173957   5.179   3.408  13.984 -3.1874  1.1328  0.9633
17514TIP3    H273958   5.065   3.311  14.001  0.0506 -2.8713  1.3610
17515TIP3   OH273959   5.599   1.477  15.005  0.1488 -0.4005 -0.1515
17515TIP3    H173960   5.573   1.531  14.930  2.0687  0.7450 -0.0355
17515TIP3    H273961   5.694   1.471  14.999  0.4868  0.5973  2.7456
17516TIP3   OH273962   2.961   4.552   4.481 -0.2026 -0.1061  0.1123
17516TIP3    H173963   2.868   4.543   4.459 -0.0157  1.2357 -1.3313
17516TIP3    H273964   3.003   4.578   4.400  1.1891  0.9175  1.1141
17517TIP3   OH273965   0.089   0.553   2.565  0.7996  0.0249  0.3693
17517TIP3    H173966  -0.001   0.551   2.596  0.0585 -0.5439 -1.6775
17517TIP3    H273967   0.095   0.482   2.502  2.8983 -0.4010  0.9561
17518TIP3   OH273968   1.794   0.805  11.686 -0.4501 -0.0419 -0.2379
17518TIP3    H173969   1.727   0.740  11.668 -0.1840 -0.1233 -0.9454
17518TIP3    H273970   1.790   0.818  11.781 -0.0103 -1.6370  0.0204
17519TIP3   OH273971   6.745   3.563   3.862 -0.2066 -0.6022 -0.4783
17519TIP3    H173972   6.816   3.521   3.813  1.6047  2.1155 -0.4112
17519TIP3    H273973   6.736   3.510   3.940  2.6621 -0.4428  0.0840
17520TIP3   OH273974   2.786   4.695   4.959 -0.7937  0.2833 -0.5604
17520TIP3    H173975   2.801   4.727   4.870 -0.4149 -0.5028 -0.7898
17520TIP3    H273976   2.840   4.616   4.965 -1.0756  0.1468  0.2567
17521TIP3   OH273977   2.708   2.326  16.463 -0.0701  0.4537  0.0903
17521TIP3    H173978   2.639   2.383  16.497 -0.7161  0.0757 -0.5446
17521TIP3    H273979   2.667   2.280  16.390  0.4994 -0.6960  0.4739
17522TIP3   OH273980   5.574   2.668  16.421 -0.6118  0.0425  0.0382
17522TIP3    H173981   5.536   2.597  16.369 -0.8823 -1.2266  1.8678
17522TIP3    H273982   5.616   2.624  16.495 -1.4300  1.8098  1.6393
17523TIP3   OH273983   1.500   0.562   1.366 -0.5844  0.2179  0.0676
17523TIP3    H173984   1.554   0.642   1.365  0.0493 -0.2056 -0.7329
17523TIP3    H273985   1.428   0.581   1.305 -1.3584  0.7815  1.1321
17524TIP3   OH273986   5.374   0.141  15.336  0.8215 -0.4736  0.0256
17524TIP3    H173987   5.406   0.173  15.252  2.0286 -1.5752  0.0423
17524TIP3    H273988   5.287   0.107  15.317  1.0018 -0.5248 -0.7306
17525TIP3   OH273989   1.020   2.826  13.966  0.0675  0.7528 -0.2088
17525TIP3    H173990   0.991   2.827  14.057  3.0563  2.4108  0.8661
17525TIP3    H273991   0.995   2.739  13.934  1.0366 -0.8792  2.9669
17526TIP3   OH273992   1.592   0.874  16.425  0.3137  0.1839  0.3083
17526TIP3    H173993   1.660   0.889  16.360  0.8851  0.2735  0.9127
17526TIP3    H273994   1.547   0.795  16.395  0.9316 -0.0944  0.1005
17527TIP3   OH273995   4.596   1.139   0.952  0.1422  0.3756  0.0995
17527TIP3    H173996   4.603   1.201   1.024  0.2269 -0.8509  1.1847
17527TIP3    H273997   4.592   1.193   0.874  0.1588  1.7384  1.0142
17528TIP3   OH273998   2.451   5.867  17.337  0.0992 -0.4487 -0.2338
17528TIP3    H173999   2.446   5.797  17.272 -2.0555 -0.4770 -0.1270
17528TIP3    H274000   2.513   5.835  17.403  1.6262 -0.8039 -1.7867
17529TIP3   OH274001   6.435   0.581  12.085 -0.3235 -0.2529  0.2771
17529TIP3    H174002   6.363   0.622  12.036 -2.8728 -1.9934  2.3029
17529TIP3    H274003   6.482   0.655  12.124 -1.6236  0.9288 -0.2900
17530TIP3   OH274004   4.535   6.166  14.920  0.2149 -0.7730 -0.5370
17530TIP3    H174005   4.616   6.160  14.971  0.2930  0.4940 -0.4827
17530TIP3    H274006   4.511   6.075  14.903  1.8480 -1.1863 -0.8719
17531TIP3   OH274007   4.048   5.555   1.851  0.3038  0.5698 -0.1876
17531TIP3    H174008   4.043   5.607   1.771  1.9204  0.7849 -0.1697
17531TIP3    H274009   3.999   5.475   1.831 -0.2019  1.0734 -1.0131
17532TIP3   OH274010   2.944   4.358   0.853 -0.4718 -0.0473 -0.6196
17532TIP3    H174011   2.852   4.379   0.837 -0.2613  0.9587 -0.5826
17532TIP3    H274012   2.993   4.417   0.796  0.1575 -1.5006 -1.6733
17533TIP3   OH274013   1.782   0.063  11.496 -0.1902  0.5723  0.0973
17533TIP3    H174014   1.863   0.020  11.525  0.0792  2.3179  2.2475
17533TIP3    H274015   1.714   0.029  11.554 -0.7963 -0.0064 -0.9272
17534TIP3   OH274016   2.449   2.138   1.992  0.0681 -0.3107  0.0407
17534TIP3    H174017   2.506   2.121   1.918  0.6535  0.8758  0.2080
17534TIP3    H274018   2.388   2.064   1.993 -0.5882  0.1433 -2.2151
17535TIP3   OH274019   5.118   6.338  15.388  0.1355 -0.4446  0.3792
17535TIP3    H174020   5.087   6.262  15.340  0.4054 -0.1317 -0.3041
17535TIP3    H274021   5.193   6.306  15.437 -0.4940 -0.9058  1.0688
17536TIP3   OH274022   0.881   1.956  15.627  0.7249  0.0296  0.1942
17536TIP3    H174023   0.974   1.942  15.644  0.9120 -0.2284 -0.9487
17536TIP3    H274024   0.837   1.892  15.683  1.1591  0.8286  1.5125
17537TIP3   OH274025   0.827   2.400   5.715 -0.9005  0.0627  0.1878
17537TIP3    H174026   0.752   2.458   5.701 -1.3499 -1.1771 -3.5591
17537TIP3    H274027   0.788   2.319   5.748 -1.0687 -0.1239 -0.4544
17538TIP3   OH274028   3.711   2.742   4.316 -0.1918  0.6872 -0.8866
17538TIP3    H174029   3.772   2.767   4.247 -0.9029  1.4495 -1.2639
17538TIP3    H274030   3.666   2.665   4.282  0.3407  0.3031 -0.7312
17539TIP3   OH274031   1.529   0.973  13.623  0.7673 -1.0023  0.3576
17539TIP3    H174032   1.495   1.043  13.677  1.7313 -0.7559  0.6653
17539TIP3    H274033   1.539   1.013  13.536 -0.2278 -1.2321  0.1323
17540TIP3   OH274034   5.545   4.328  16.315  0.4659  0.1533  0.5462
17540TIP3    H174035   5.564   4.399  16.253  0.4663 -1.0415 -0.8624
17540TIP3    H274036   5.527   4.252  16.260 -0.9845 -0.6104  1.9822
17541TIP3   OH274037   4.803   2.631  12.645  0.3257 -0.4754 -0.7625
17541TIP3    H174038   4.810   2.548  12.597  1.9864 -0.2558 -0.9699
17541TIP3    H274039   4.836   2.611  12.732 -2.1373 -0.7280  0.1857
17542TIP3   OH274040   2.001   1.110   1.589  0.4752 -0.2022  0.0334
17542TIP3    H174041   2.096   1.113   1.575  0.5532  0.3493  0.6376
17542TIP3    H274042   1.981   1.193   1.632 -0.5246  0.3996 -1.5093
17543TIP3   OH274043   2.948   3.160  14.880  0.1421 -0.1883 -0.7469
17543TIP3    H174044   3.041   3.158  14.905  0.2756 -0.3296 -1.2445
17543TIP3    H274045   2.948   3.141  14.786 -0.1631  2.7181 -1.4125
17544TIP3   OH274046   6.094   4.881   0.773 -0.0801  0.0710  0.3280
17544TIP3    H174047   6.041   4.858   0.696 -2.6095 -1.5154  2.3788
17544TIP3    H274048   6.087   4.976   0.779 -2.6155 -0.0279  0.3336
17545TIP3   OH274049   0.800   6.022  13.412  0.0966 -0.1614 -0.0915
17545TIP3    H174050   0.723   6.011  13.468 -1.0781 -1.1278 -1.8178
17545TIP3    H274051   0.800   6.116  13.390 -2.9001 -0.6827 -3.0720
17546TIP3   OH274052   1.089   1.465  14.569 -0.4732 -0.0692 -0.0115
17546TIP3    H174053   1.077   1.525  14.643 -1.3890  0.9574 -0.9652
17546TIP3    H274054   1.014   1.405  14.575 -1.2624  0.8044 -0.8118
17547TIP3   OH274055   1.021   4.187  13.577 -0.5422  0.1751 -0.7490
17547TIP3    H174056   1.098   4.135  13.552  0.2922  0.8858  0.2877
17547TIP3    H274057   0.985   4.141  13.652  0.0424  0.9318  0.0042
17548TIP3   OH274058   1.929   1.195  16.997  0.1472  0.0987 -0.0492
17548TIP3    H174059   1.970   1.209  16.911 -0.8099 -1.7154 -0.8657
17548TIP3    H274060   1.835   1.203  16.981  0.0100  1.3630  1.2063
17549TIP3   OH274061   5.746   5.257  14.828 -0.0033  0.0567 -0.4498
17549TIP3    H174062   5.840   5.276  14.823  0.0948 -0.5430 -1.0608
17549TIP3    H274063   5.738   5.169  14.791 -1.1306  1.1099 -2.8497
17550TIP3   OH274064   2.410   4.515  12.180  0.3679  0.0064  0.5754
17550TIP3    H174065   2.439   4.441  12.127 -1.1195 -0.9515  1.0083
17550TIP3    H274066   2.406   4.589  12.119  1.8957 -0.2437  0.1407
17551TIP3   OH274067   5.114   5.406  16.338  0.3556 -0.2563  0.0577
17551TIP3    H174068   5.136   5.419  16.245 -1.7929  1.7812 -0.2705
17551TIP3    H274069   5.142   5.486  16.381 -1.1212 -0.0014  0.6193
17552TIP3   OH274070   0.178   5.927   3.938 -0.0717  0.1371 -0.5256
17552TIP3    H174071   0.138   5.894   4.018  0.2035 -0.8951 -0.7883
17552TIP3    H274072   0.244   5.989   3.967 -1.7582  1.7902 -0.0858
17553TIP3   OH274073   5.981   4.764  16.121 -0.9275 -0.1198 -0.5530
17553TIP3    H174074   6.001   4.687  16.068 -2.4394 -0.4173 -0.7444
17553TIP3    H274075   6.010   4.838  16.068  0.4300 -0.5430 -0.4197
17554TIP3   OH274076   6.231   0.475  14.034 -0.1211  0.4222  0.1231
17554TIP3    H174077   6.322   0.444  14.032  0.7192  2.6516  1.0334
17554TIP3    H274078   6.232   0.557  13.985 -1.8661  0.0253 -0.6384
17555TIP3   OH274079   0.755   1.277   1.361 -0.2003  0.3078 -0.5855
17555TIP3    H174080   0.734   1.184   1.355  1.7536 -0.2494  0.2034
17555TIP3    H274081   0.777   1.291   1.454  0.7413  1.2412 -0.9207
17556TIP3   OH274082   0.239   0.737   5.630 -0.5271 -0.0879  0.3785
17556TIP3    H174083   0.265   0.693   5.712 -1.9209 -1.2762  0.2356
17556TIP3    H274084   0.209   0.823   5.658  1.9990  0.7785  0.7065
17557TIP3   OH274085   4.676   1.281  15.620 -0.0938 -0.5477 -0.3481
17557TIP3    H174086   4.765   1.305  15.592  0.1033 -1.4573 -0.5165
17557TIP3    H274087   4.675   1.186  15.620 -1.3683 -0.5613 -1.2947
17558TIP3   OH274088   2.267   1.642  14.927  0.3682  0.7024 -0.3745
17558TIP3    H174089   2.303   1.582  14.862  1.7228 -0.9694  1.7830
17558TIP3    H274090   2.172   1.633  14.918  0.4659  1.2389 -2.6552
17559TIP3   OH274091   0.061   5.159   2.753 -0.4395 -0.1278 -0.4520
17559TIP3    H174092   0.109   5.214   2.816 -2.6388  0.9673  0.3700
17559TIP3    H274093   0.023   5.089   2.806 -0.1377 -0.7360 -1.0222
17560TIP3   OH274094   6.380   2.615  10.732  0.0748  0.0657 -0.4728
17560TIP3    H174095   6.377   2.667  10.652  1.1381  0.8164 -0.0496
17560TIP3    H274096   6.302   2.641  10.781  0.1139  0.5934 -0.6864
17561TIP3   OH274097   2.240   3.585   0.743  0.2186  0.2691  0.3730
17561TIP3    H174098   2.210   3.664   0.697 -2.9643 -0.7169  0.5337
17561TIP3    H274099   2.288   3.536   0.676 -0.6298  0.8297 -0.6886
17562TIP3   OH274100   5.494   1.632   3.899 -0.5681 -0.8352  0.1644
17562TIP3    H174101   5.535   1.623   3.813 -0.0509  0.4966  0.2363
17562TIP3    H274102   5.411   1.676   3.882  1.3937  3.5592  0.6099
17563TIP3   OH274103   3.259   5.842  13.874  0.5923  0.3723  0.1316
17563TIP3    H174104   3.344   5.797  13.870  0.1812 -0.5758  1.5990
17563TIP3    H274105   3.254   5.889  13.790  2.0108 -0.5462 -0.5155
17564TIP3   OH274106   3.872   3.689  17.332  0.4118 -0.5955  0.3216
17564TIP3    H174107   3.780   3.662  17.327 -0.4974  2.0571  0.9477
17564TIP3    H274108   3.896   3.709  17.241 -0.1145  0.0527  0.3159
17565TIP3   OH274109   2.816   1.355  13.751  0.1806  0.1139 -0.0261
17565TIP3    H174110   2.911   1.366  13.751  0.1729  0.1750  0.1235
17565TIP3    H274111   2.802   1.264  13.727  0.2982 -0.1094  0.7322
17566TIP3   OH274112   3.989   0.630  13.445  0.1015 -0.3865  0.1863
17566TIP3    H174113   3.903   0.598  13.420 -0.4029 -0.7658  2.2157
17566TIP3    H274114   4.006   0.589  13.530  0.7710  2.3324  1.4721
17567TIP3   OH274115   2.917   1.653   4.475  0.3635 -0.7271 -0.1120
17567TIP3    H174116   3.001   1.634   4.433  0.7277  0.2625  0.1416
17567TIP3    H274117   2.939   1.713   4.546 -0.6256 -0.0784 -0.3404
17568TIP3   OH274118   3.923   5.361   5.954  0.5954  0.1627 -0.0760
17568TIP3    H174119   3.912   5.447   5.913 -0.6673  0.0244 -0.0557
17568TIP3    H274120   3.835   5.335   5.980  1.0597 -0.8236  0.5777
17569TIP3   OH274121   5.687   4.304   3.179  0.2972 -0.1603 -0.4988
17569TIP3    H174122   5.683   4.211   3.157  0.3155 -0.4227  0.5995
17569TIP3    H274123   5.644   4.311   3.264  1.6771  0.5986  0.1668
17570TIP3   OH274124   1.107   3.002   3.257 -0.9391 -0.8653  0.4361
17570TIP3    H174125   1.071   3.064   3.321 -1.3478  1.2687 -1.7439
17570TIP3    H274126   1.199   3.027   3.248 -1.1453 -0.4393 -0.5720
17571TIP3   OH274127   4.609   3.247  14.329  0.3841  0.2000  0.6144
17571TIP3    H174128   4.704   3.255  14.324  0.3236  0.4794 -0.3630
17571TIP3    H274129   4.593   3.153  14.343  0.7681 -0.1776 -1.1988
17572TIP3   OH274130   4.433   2.605  15.618 -0.0072  0.2997 -0.2577
17572TIP3    H174131   4.339   2.589  15.607 -0.0231 -1.0012  1.3705
17572TIP3    H274132   4.472   2.582  15.534 -1.0737  0.3057 -0.7645
17573TIP3   OH274133   0.336   2.017   5.390 -0.1198 -0.3571 -0.3934
17573TIP3    H174134   0.245   2.036   5.367  0.2147  2.5830  0.3017
17573TIP3    H274135   0.383   2.020   5.307 -0.4382 -0.4393 -0.5779
17574TIP3   OH274136   2.092   6.559  13.155 -0.1935  0.6064 -0.2343
17574TIP3    H174137   2.112   6.502  13.081 -0.1540 -1.8371  1.5296
17574TIP3    H274138   2.148   6.635  13.142  0.2185  0.0069 -2.3889
17575TIP3   OH274139   5.147   4.971  13.360  0.6981  0.3825  0.1107
17575TIP3    H174140   5.199   4.918  13.421 -0.4767 -0.1616  0.6787
17575TIP3    H274141   5.094   5.027  13.416  0.1994  0.4627 -0.4330
17576TIP3   OH274142   1.607   4.467   4.956  0.5466  0.3637 -0.1611
17576TIP3    H174143   1.633   4.558   4.940  0.1926  0.5514  0.3213
17576TIP3    H274144   1.633   4.420   4.877  1.3189  0.7655 -0.1535
17577TIP3   OH274145   3.538   5.647   3.638  0.4261  0.1609  0.0492
17577TIP3    H174146   3.477   5.720   3.627  1.6438  1.4435  1.2433
17577TIP3    H274147   3.490   5.583   3.690 -0.3925  0.4894 -0.2879
17578TIP3   OH274148   1.416   6.198  16.201 -0.1658  0.5499 -0.5266
17578TIP3    H174149   1.428   6.289  16.174  1.4644  0.6073  0.2892
17578TIP3    H274150   1.456   6.193  16.288 -0.0093 -1.0081 -0.6545
17579TIP3   OH274151   5.662   1.476  14.467  0.0652  0.4025  0.4971
17579TIP3    H174152   5.725   1.537  14.430  2.3266 -1.5930  0.7898
17579TIP3    H274153   5.693   1.461  14.556 -0.1528 -1.4414  0.3070
17580TIP3   OH274154   2.566   3.187  13.588  0.5368 -0.2555 -0.3486
17580TIP3    H174155   2.518   3.123  13.640  0.3913 -0.2282 -0.4483
17580TIP3    H274156   2.616   3.238  13.652 -2.5832  2.3880  0.2461
17581TIP3   OH274157   1.996   3.194   2.829 -0.7257  0.0456  0.1184
17581TIP3    H174158   1.904   3.220   2.824 -0.6103  0.6323  0.8437
17581TIP3    H274159   1.994   3.108   2.870 -0.9033  0.5376  1.1907
17582TIP3   OH274160   2.673   3.779  14.442  0.2996  0.4289  0.1491
17582TIP3    H174161   2.662   3.694  14.398 -1.0901  0.5256  0.2718
17582TIP3    H274162   2.737   3.825  14.388  1.0643 -0.6714  0.0622
17583TIP3   OH274163   0.398   1.866   1.081 -0.6005 -0.0536 -0.0270
17583TIP3    H174164   0.476   1.919   1.064 -1.7558  1.8064  0.1888
17583TIP3    H274165   0.416   1.822   1.164 -0.0065  0.8238  0.3190
17584TIP3   OH274166   2.825   0.731  14.375 -0.2939  0.1089 -0.5516
17584TIP3    H174167   2.910   0.691  14.393 -0.1776  0.3256 -0.6171
17584TIP3    H274168   2.794   0.687  14.296 -0.4501 -0.2879 -0.2793
17585TIP3   OH274169   6.325   1.894  13.642  0.1231 -0.3965  0.1944
17585TIP3    H174170   6.363   1.807  13.634 -1.4429 -1.0022 -1.2352
17585TIP3    H274171   6.383   1.940  13.703  1.6215 -2.0606  0.1098
17586TIP3   OH274172   4.865   3.381   1.476  0.0096  0.2032 -0.5646
17586TIP3    H174173   4.909   3.401   1.558  0.9165 -0.6806 -0.8133
17586TIP3    H274174   4.902   3.297   1.449 -1.6234 -0.4374 -0.9381
17587TIP3   OH274175   4.988   6.701   4.135 -0.3520  0.7458  0.0242
17587TIP3    H174176   4.987   6.620   4.187 -1.1188  0.3540 -0.5608
17587TIP3    H274177   4.908   6.746   4.160 -0.2488  1.0091 -0.1215
17588TIP3   OH274178   6.681   2.367   2.813 -0.1097  0.0539  0.0767
17588TIP3    H174179   6.649   2.376   2.903  2.0745  2.6111  0.7498
17588TIP3    H274180   6.773   2.343   2.823  0.3557  1.0656 -1.4154
17589TIP3   OH274181   1.102   4.034  12.156 -0.6369 -0.0479  0.0630
17589TIP3    H174182   1.013   4.012  12.182 -1.0213 -0.3238 -1.3666
17589TIP3    H274183   1.112   3.994  12.069  1.0707 -0.5007  0.4236
17590TIP3   OH274184   2.097   0.773  11.668 -0.3658  0.1230  0.6072
17590TIP3    H174185   2.006   0.791  11.694 -0.1477 -0.6452  2.0098
17590TIP3    H274186   2.091   0.693  11.615 -0.5283  0.1550  0.5757
17591TIP3   OH274187   3.506   0.474  17.184 -0.2462  0.8175 -0.6679
17591TIP3    H174188   3.507   0.460  17.279 -1.2037 -1.9312 -0.9678
17591TIP3    H274189   3.596   0.499  17.163 -0.0053  1.4184  0.9299
17592TIP3   OH274190   0.785   3.618   2.126  0.0424  0.4128 -0.4522
17592TIP3    H174191   0.729   3.694   2.142 -1.0713 -0.2570 -1.0125
17592TIP3    H274192   0.867   3.638   2.171 -0.4752  1.6370 -0.0168
17593TIP3   OH274193   2.745   2.370   3.109 -0.7073 -0.0259 -0.0118
17593TIP3    H174194   2.831   2.327   3.117 -0.9029 -0.3133  0.6573
17593TIP3    H274195   2.734   2.384   3.015 -0.2439 -0.6549 -0.1714
17594TIP3   OH274196   2.251   2.053  11.633 -0.2621 -0.0699  0.7659
17594TIP3    H174197   2.302   1.987  11.586 -0.5739  0.7965 -0.8775
17594TIP3    H274198   2.268   2.035  11.726  0.0793 -2.0953  0.3666
17595TIP3   OH274199   3.612   3.523   1.605 -0.0697 -0.0692  0.6693
17595TIP3    H174200   3.690   3.574   1.585  0.0986 -0.2674  0.8077
17595TIP3    H274201   3.573   3.566   1.681 -0.9624  0.9559 -0.3385
17596TIP3   OH274202   5.525   2.738  13.149  0.5847  0.5956  0.2608
17596TIP3    H174203   5.598   2.712  13.093 -0.4961 -0.6680 -0.6112
17596TIP3    H274204   5.457   2.766  13.088  0.2573  1.6012  1.0570
17597TIP3   OH274205   0.153   0.288  13.756  0.7150  0.1511 -0.2358
17597TIP3    H174206   0.098   0.365  13.744  1.5787  0.7489 -0.5188
17597TIP3    H274207   0.136   0.234  13.679 -0.7806 -0.5284  0.5413
17598TIP3   OH274208   4.748   2.432  14.604 -1.1737  0.0714  0.1478
17598TIP3    H174209   4.807   2.505  14.622 -0.3944 -0.6689  0.6680
17598TIP3    H274210   4.747   2.381  14.686 -1.2041 -0.8385 -0.4012
17599TIP3   OH274211   6.712   0.912   3.695 -0.4931  0.2037  0.8903
17599TIP3    H174212   6.627   0.955   3.706 -0.9707  0.1214 -1.8932
17599TIP3    H274213   6.703   0.829   3.742 -2.2313 -0.1091  0.0837
17600TIP3   OH274214   6.220   1.002   0.692  0.2734  0.0108 -0.0575
17600TIP3    H174215   6.264   0.990   0.776  1.0436 -0.5527 -0.5209
17600TIP3    H274216   6.222   1.097   0.678 -1.2111  0.2756  1.2345
17601TIP3   OH274217   1.546   1.137  14.598 -0.3530 -0.2075  0.2269
17601TIP3    H174218   1.583   1.150  14.511 -2.0031 -1.7648 -0.7670
17601TIP3    H274219   1.471   1.197  14.602  1.3693  2.0400  1.7761
17602TIP3   OH274220   3.751   0.973   4.998  0.2833  0.0191 -0.0628
17602TIP3    H174221   3.732   0.928   5.080  1.0127  0.7874  0.5511
17602TIP3    H274222   3.709   1.058   5.007 -0.5265 -0.2756 -0.9353
17603TIP3   OH274223   1.934   1.564   2.620  0.2588  0.3397  0.6132
17603TIP3    H174224   1.842   1.549   2.642  0.2073  1.2214  1.0481
17603TIP3    H274225   1.942   1.536   2.529 -0.4397  0.2585  0.5715
17604TIP3   OH274226   2.591   2.914  12.077  0.2892  0.1910  0.0606
17604TIP3    H174227   2.563   2.845  12.137  1.4833 -0.3980 -0.0337
17604TIP3    H274228   2.545   2.893  11.995  0.4964 -0.3970  0.0853
17605TIP3   OH274229   4.825   0.878  13.524 -0.1270  0.8916  0.0147
17605TIP3    H174230   4.830   0.783  13.513 -1.2754  0.7817  0.3391
17605TIP3    H274231   4.882   0.897  13.599 -0.7863  0.3103  0.6769
17606TIP3   OH274232   5.756   1.482  15.903  0.7065  0.9970 -0.1989
17606TIP3    H174233   5.725   1.441  15.822  1.1936 -0.5024  0.3350
17606TIP3    H274234   5.851   1.469  15.902  0.8264  1.7991  0.1751
17607TIP3   OH274235   5.848   2.501  15.289  0.0304  0.2372  0.2132
17607TIP3    H174236   5.856   2.421  15.340 -1.5835 -1.3129 -1.8220
17607TIP3    H274237   5.855   2.571  15.353  1.0068 -1.5212  2.1279
17608TIP3   OH274238   3.602   0.350   1.582 -0.2454 -0.5078 -0.2558
17608TIP3    H174239   3.585   0.292   1.656  0.0349 -0.0081  0.1974
17608TIP3    H274240   3.654   0.422   1.618 -0.0723 -0.2805 -0.9405
17609TIP3   OH274241   1.897   6.435   5.053 -0.5909  0.1850  0.3725
17609TIP3    H174242   1.839   6.490   5.107 -0.3335  0.6838  0.1496
17609TIP3    H274243   1.910   6.485   4.973 -2.0460 -1.1521 -0.7454
17610TIP3   OH274244   4.216   3.045  12.565  0.0276 -0.0313  0.1222
17610TIP3    H174245   4.262   3.059  12.482 -0.6961  1.9596 -0.0012
17610TIP3    H274246   4.243   2.958  12.593 -1.1413 -1.6179 -3.1312
17611TIP3   OH274247   1.945   5.112  14.802  0.1160 -0.0831  0.0890
17611TIP3    H174248   1.998   5.079  14.730  1.6969  1.2040  0.5796
17611TIP3    H274249   1.867   5.057  14.803  0.5561 -0.8060 -1.9037
17612TIP3   OH274250   4.933   0.349   2.613  0.0810  0.0304 -0.4552
17612TIP3    H174251   4.934   0.326   2.520 -0.5899 -0.1266 -0.4265
17612TIP3    H274252   4.865   0.416   2.621  0.4498  0.3786 -0.1512
17613TIP3   OH274253   2.224   5.984  13.225  0.7614  0.4131 -0.2745
17613TIP3    H174254   2.168   6.058  13.203  1.3706  1.1749  0.6450
17613TIP3    H274255   2.191   5.952  13.309  0.9586  0.1120 -0.3069
17614TIP3   OH274256   6.126   3.470  12.228  0.0361 -0.9361 -0.2862
17614TIP3    H174257   6.153   3.411  12.298  0.1335 -1.5721 -0.8483
17614TIP3    H274258   6.170   3.437  12.150  0.0412 -0.1502 -0.6252
17615TIP3   OH274259   0.097   0.660   3.492 -0.4061 -0.3350  0.1521
17615TIP3    H174260   0.021   0.602   3.500 -0.4353 -0.0436  2.6944
17615TIP3    H274261   0.167   0.614   3.537 -0.0042  0.8889  0.8210
17616TIP3   OH274262   4.307   1.977  13.391 -0.4438 -0.3438  0.1794
17616TIP3    H174263   4.232   1.970  13.331 -0.7717 -0.1990  0.5647
17616TIP3    H274264   4.295   1.904  13.452 -0.3210 -0.2637  0.2987
17617TIP3   OH274265   6.540   0.670   3.020 -0.4246 -0.0465 -0.8019
17617TIP3    H174266   6.553   0.765   3.022  0.3537 -0.1353 -1.0905
17617TIP3    H274267   6.482   0.652   3.094 -0.3964  0.6273 -0.6087
17618TIP3   OH274268   6.166   2.962  12.949 -0.6336  0.5107  0.1652
17618TIP3    H174269   6.084   2.962  12.899 -0.7651  1.3138  0.3729
17618TIP3    H274270   6.138   2.958  13.041 -0.3824 -1.8946  0.2049
17619TIP3   OH274271   1.346   3.844   2.456  0.1241 -0.0942  0.9060
17619TIP3    H174272   1.430   3.890   2.464  0.8932 -1.2214 -0.3652
17619TIP3    H274273   1.324   3.850   2.363  0.2452 -2.2528  0.7023
17620TIP3   OH274274   3.512   3.196  17.084  0.2230  0.2254  0.0466
17620TIP3    H174275   3.535   3.180  16.992  0.8916  1.2114  0.0216
17620TIP3    H274276   3.596   3.203  17.129 -0.0915  0.4042  0.6206
17621TIP3   OH274277   4.160   0.371   3.042  0.6241 -0.4701  0.5448
17621TIP3    H174278   4.079   0.321   3.031  0.6895 -0.2531 -1.1464
17621TIP3    H274279   4.202   0.367   2.956  0.8722  2.0702  0.4806
17622TIP3   OH274280   0.972   3.658   2.522 -0.2474 -0.3272 -0.2433
17622TIP3    H174281   0.933   3.744   2.539  0.5498  0.2116 -1.0310
17622TIP3    H274282   0.936   3.601   2.591 -3.4625 -0.2211 -1.6426
17623TIP3   OH274283   3.028   3.544  16.749  0.1790  0.5118  0.1447
17623TIP3    H174284   3.023   3.600  16.827  2.2178  0.5899  0.2890
17623TIP3    H274285   3.096   3.586  16.695 -0.7090  0.0664 -1.3542
17624TIP3   OH274286   2.094   2.740  16.170  0.2698  0.1120  0.1346
17624TIP3    H174287   2.133   2.808  16.116 -0.9597  1.2375  0.6216
17624TIP3    H274288   2.121   2.762  16.259  1.1296 -0.9393  0.1596
17625TIP3   OH274289   5.423   5.760  11.341 -0.3489  0.3030  0.3300
17625TIP3    H174290   5.515   5.737  11.346 -0.0938  1.4477  1.6716
17625TIP3    H274291   5.387   5.703  11.274  1.1266 -0.8338  0.4600
17626TIP3   OH274292   0.187   5.662  14.450  0.6488  0.2228 -0.2520
17626TIP3    H174293   0.265   5.700  14.409  1.1724  0.7767  1.1687
17626TIP3    H274294   0.222   5.607  14.520 -0.2278  0.5646  0.4695
17627TIP3   OH274295   5.037   2.823   4.903 -0.3306  0.3139  0.2062
17627TIP3    H174296   5.011   2.829   4.995 -0.2446  0.2783  0.2321
17627TIP3    H274297   4.970   2.766   4.863 -0.4207  0.4049  0.2264
17628TIP3   OH274298   2.429   5.085  16.099  0.4466  0.0707  0.0462
17628TIP3    H174299   2.348   5.131  16.078 -0.2807 -1.2420 -0.1547
17628TIP3    H274300   2.417   5.055  16.189  0.7897  0.0327  0.0793
17629TIP3   OH274301   1.417   0.183   2.985 -0.0773  0.5513 -0.3258
17629TIP3    H174302   1.373   0.162   3.067 -0.9905  0.5523 -0.8111
17629TIP3    H274303   1.510   0.182   3.007 -0.1663 -1.6982  0.2123
17630TIP3   OH274304   2.767   1.470  15.499  0.2283  0.0093  0.5010
17630TIP3    H174305   2.801   1.426  15.421  0.6305  0.3240  0.4945
17630TIP3    H274306   2.744   1.399  15.558 -0.0122 -0.2312  0.1241
17631TIP3   OH274307   2.349   0.056   2.194 -0.2208  0.0910  0.4238
17631TIP3    H174308   2.353  -0.039   2.179  3.2072 -0.0874  1.5625
17631TIP3    H274309   2.343   0.094   2.106 -3.5003 -1.0774  0.0010
17632TIP3   OH274310   4.386   4.240  11.524 -0.2381 -0.0314 -0.2169
17632TIP3    H174311   4.464   4.191  11.497  0.4580  1.0223 -0.1637
17632TIP3    H274312   4.339   4.180  11.582  0.0053 -1.0520 -1.0388
17633TIP3   OH274313   2.702   2.331   2.512 -0.3763 -0.0444 -0.7031
17633TIP3    H174314   2.661   2.280   2.442 -1.4661  1.1532 -0.9791
17633TIP3    H274315   2.641   2.324   2.585 -0.6992  1.0823 -0.8455
17634TIP3   OH274316   2.557   4.188   6.549  0.0111 -0.8070 -0.0191
17634TIP3    H174317   2.604   4.242   6.485 -1.0553 -0.5848 -0.6379
17634TIP3    H274318   2.622   4.171   6.617  0.3487  1.4020  0.2844
17635TIP3   OH274319   4.034   5.664  11.170 -0.3108 -0.3629  0.3467
17635TIP3    H174320   4.002   5.688  11.257  1.4440  0.7506  0.7298
17635TIP3    H274321   3.956   5.668  11.115 -0.9454  2.0542  1.2830
17636TIP3   OH274322   6.648   1.310  16.630  0.3383 -0.2641  0.7364
17636TIP3    H174323   6.642   1.371  16.557  0.9881 -0.0409  0.8629
17636TIP3    H274324   6.557   1.286  16.649 -0.1401  2.2476  2.0249
17637TIP3   OH274325   0.880   0.090   6.599 -0.1185 -0.0510 -1.0401
17637TIP3    H174326   0.851   0.180   6.618 -0.2708 -0.1371 -0.8629
17637TIP3    H274327   0.800   0.045   6.570 -1.1958 -1.4237  3.3082
17638TIP3   OH274328   0.365   2.792  14.964  0.9005 -0.0187  0.5025
17638TIP3    H174329   0.308   2.716  14.951  1.8258 -0.5923 -0.3634
17638TIP3    H274330   0.307   2.867  14.952  0.5420 -0.5747 -1.7238
17639TIP3   OH274331   5.625   6.090  15.102  0.1397  0.0491 -0.1651
17639TIP3    H174332   5.598   6.103  15.011  0.9152 -1.0058 -0.5612
17639TIP3    H274333   5.626   6.178  15.139 -0.9107  0.4237 -0.9600
17640TIP3   OH274334   5.621   3.266   3.109  0.6633 -0.5831 -0.0381
17640TIP3    H174335   5.634   3.294   3.200 -1.4394  0.2940  0.0483
17640TIP3    H274336   5.695   3.208   3.091  1.1324 -0.7752  2.2317
17641TIP3   OH274337   0.439   4.744   2.345 -0.3769 -0.3519  0.3087
17641TIP3    H174338   0.483   4.694   2.414 -1.7400 -1.1007  0.6768
17641TIP3    H274339   0.409   4.677   2.283 -0.7897  0.1492 -0.0389
17642TIP3   OH274340   5.708   3.459  12.579  0.7244  0.2941 -0.3466
17642TIP3    H174341   5.762   3.413  12.515  0.1391  0.2951 -0.8466
17642TIP3    H274342   5.640   3.503  12.528 -0.1634 -0.2574  0.3131
17643TIP3   OH274343   4.353   2.986  12.953  0.7710  0.4024  0.0590
17643TIP3    H174344   4.325   2.978  13.044  1.4136  3.0159  0.5927
17643TIP3    H274345   4.392   2.902  12.931  2.0988  0.2130  2.7753
17644TIP3   OH274346   0.690   4.538  10.399 -0.2562 -0.9427 -0.8675
17644TIP3    H174347   0.687   4.459  10.345 -0.0163 -0.6544 -1.3000
17644TIP3    H274348   0.765   4.587  10.367 -0.6423 -0.3418 -0.8700
17645TIP3   OH274349   3.522   5.681   1.685  0.3912 -0.4241  0.2634
17645TIP3    H174350   3.489   5.770   1.673 -0.8274 -0.9073 -0.1951
17645TIP3    H274351   3.586   5.688   1.755 -1.7045  0.3798  2.2366
17646TIP3   OH274352   5.871   6.368   4.741 -0.4052 -0.0275 -0.4405
17646TIP3    H174353   5.911   6.455   4.742 -0.4247  0.0504  2.1880
17646TIP3    H274354   5.926   6.317   4.682 -0.8419  1.9090 -2.6511
17647TIP3   OH274355   4.816   3.176  12.744 -0.4776  0.1810  0.3420
17647TIP3    H174356   4.793   3.243  12.679 -0.7598  0.6162  0.8846
17647TIP3    H274357   4.831   3.225  12.825  2.1789 -0.0558  0.1005
17648TIP3   OH274358   2.213   0.020   5.385  0.2526  0.5824  0.1806
17648TIP3    H174359   2.156  -0.030   5.444  0.2237  0.3281 -0.0550
17648TIP3    H274360   2.182  -0.004   5.297 -1.3908  2.8751  0.0487
17649TIP3   OH274361   0.020   0.638   6.832 -0.1438  0.0814 -0.0742
17649TIP3    H174362   0.086   0.656   6.764 -0.3638  3.1100  0.3712
17649TIP3    H274363  -0.018   0.554   6.806  3.6760 -1.7504 -0.4567
17650TIP3   OH274364   5.451   0.310  11.882  0.1590  0.1966 -0.2894
17650TIP3    H174365   5.441   0.251  11.957 -0.5759 -0.0526 -0.5730
17650TIP3    H274366   5.536   0.286  11.844  0.1036 -0.3294 -0.0926
17651TIP3   OH274367   3.134   0.296   3.972 -0.0293  0.0430  0.1164
17651TIP3    H174368   3.090   0.370   4.013 -1.2315  1.7548 -3.7357
17651TIP3    H274369   3.224   0.325   3.959 -0.3204  0.6175 -0.7428
17652TIP3   OH274370   1.528   4.117   4.682  0.0982  0.1534  0.5197
17652TIP3    H174371   1.576   4.041   4.649 -1.0659 -0.7451  0.8261
17652TIP3    H274372   1.533   4.109   4.777 -0.7574 -0.0384  0.5591
17653TIP3   OH274373   2.013   5.912   4.013 -0.2266 -0.1695  0.4095
17653TIP3    H174374   1.978   6.000   4.000 -0.7759 -0.3903  0.3524
17653TIP3    H274375   1.955   5.873   4.078  0.8105 -0.0402  1.4471
17654TIP3   OH274376   3.669   4.384  11.497 -0.4161 -0.4805  0.0002
17654TIP3    H174377   3.656   4.400  11.404 -3.1273 -0.5549  0.2893
17654TIP3    H274378   3.638   4.464  11.539  2.0622  0.1202  0.8565
17655TIP3   OH274379   1.942   0.023   3.548 -0.4149  0.4879  0.1864
17655TIP3    H174380   1.949   0.115   3.576 -0.5926  0.8603 -0.9335
17655TIP3    H274381   1.934  -0.026   3.629  0.5148  1.3916  0.8436
17656TIP3   OH274382   1.880   1.118  12.358 -0.4514  0.3013 -0.0289
17656TIP3    H174383   1.819   1.136  12.430  2.6965  1.6772  2.6115
17656TIP3    H274384   1.907   1.205  12.328  0.6253 -0.2335 -0.6641
17657TIP3   OH274385   2.978   1.632   3.765 -0.4930  0.3990  0.0320
17657TIP3    H174386   2.942   1.618   3.853  0.2978  0.1936  0.3292
17657TIP3    H274387   3.067   1.598   3.770 -0.4022  0.4977 -0.8207
17658TIP3   OH274388   2.857   5.499  16.580 -0.2661 -0.3854 -0.0100
17658TIP3    H174389   2.853   5.572  16.517 -0.9597  0.0331  0.5033
17658TIP3    H274390   2.894   5.537  16.659 -0.6974 -0.5723  0.2833
17659TIP3   OH274391   4.723   4.578  13.791 -0.1957 -0.1634 -0.1859
17659TIP3    H174392   4.679   4.651  13.748  0.4693  1.4894  1.7707
17659TIP3    H274393   4.777   4.539  13.723 -2.5179 -0.5360 -1.9460
17660TIP3   OH274394   5.328   0.725   2.209  0.6668  0.3830  0.2666
17660TIP3    H174395   5.331   0.777   2.129  2.5410  1.3497  0.8956
17660TIP3    H274396   5.414   0.683   2.214 -0.4310 -1.9844  0.3302
17661TIP3   OH274397   2.857   3.753  12.685  0.3412  0.6845 -0.0624
17661TIP3    H174398   2.868   3.695  12.760  1.7641  0.6013 -0.3099
17661TIP3    H274399   2.943   3.794  12.674  0.0617  0.9291 -1.4544
17662TIP3   OH274400   0.206   0.314  11.109 -0.1625  0.4057  0.1877
17662TIP3    H174401   0.296   0.287  11.091 -0.0104  1.2297 -0.3400
17662TIP3    H274402   0.202   0.405  11.083 -0.6938  0.8951  1.8216
17663TIP3   OH274403   3.675   0.155   4.066  0.2837  0.2747  0.7589
17663TIP3    H174404   3.735   0.109   4.126 -0.5082  0.5698  1.8228
17663TIP3    H274405   3.705   0.131   3.979  0.4127 -1.6112  1.2682
17664TIP3   OH274406   6.566   3.186   1.846 -0.2995 -0.4182 -0.3990
17664TIP3    H174407   6.661   3.178   1.836 -0.2006 -0.0577  0.2164
17664TIP3    H274408   6.548   3.145   1.931 -0.6919 -0.4452 -0.4942
17665TIP3   OH274409   2.385   0.445  14.845  0.6159  0.3769  0.1255
17665TIP3    H174410   2.457   0.429  14.785  1.3832  3.5429  0.0013
17665TIP3    H274411   2.306   0.443  14.790  1.2113  2.2011 -0.9048
17666TIP3   OH274412   1.988   4.930  12.859  0.7438  0.1488 -0.0651
17666TIP3    H174413   1.988   5.008  12.803 -0.8264  1.6054  1.8163
17666TIP3    H274414   1.933   4.954  12.934 -0.8827 -3.2459  0.0144
17667TIP3   OH274415   0.195   1.156   3.541  0.2257  0.7780 -0.0743
17667TIP3    H174416   0.185   1.212   3.464 -1.7888  0.4678 -0.0694
17667TIP3    H274417   0.273   1.192   3.586  0.6000  1.8371 -1.4896
17668TIP3   OH274418   0.908   5.379  16.352  0.1742  0.6946 -0.4615
17668TIP3    H174419   0.828   5.352  16.396  0.3462 -0.7018 -0.9392
17668TIP3    H274420   0.970   5.397  16.423  0.8342 -2.7127 -0.0181
17669TIP3   OH274421   6.208   2.140  15.208 -0.2070 -0.3822  0.7048
17669TIP3    H174422   6.290   2.094  15.191 -0.8743 -0.7671 -1.9285
17669TIP3    H274423   6.199   2.139  15.303  2.4466 -0.9785  1.0129
17670TIP3   OH274424   6.557   4.036   5.908  0.1146 -0.3644 -0.4649
17670TIP3    H174425   6.630   4.073   5.958 -0.9085  0.3456  0.5533
17670TIP3    H274426   6.574   4.063   5.818  0.0710  1.5447  0.0577
17671TIP3   OH274427   0.348   0.099  12.981  0.2921  0.1375  0.7159
17671TIP3    H174428   0.291   0.110  13.057 -0.5682 -2.3668  0.5046
17671TIP3    H274429   0.426   0.056  13.016  0.4724  0.2078  0.4054
17672TIP3   OH274430   6.395   5.891   2.869  0.3541  0.2846 -0.0940
17672TIP3    H174431   6.324   5.944   2.905  0.4009  1.3608 -1.4749
17672TIP3    H274432   6.352   5.815   2.832  0.1980 -0.2841  1.2040
17673TIP3   OH274433   4.601   1.391   2.218  0.3293 -0.3708  0.2044
17673TIP3    H174434   4.632   1.384   2.308 -1.2871  1.0436  0.9159
17673TIP3    H274435   4.509   1.417   2.226 -0.5497 -2.4789 -1.8297
17674TIP3   OH274436   5.875   1.863   5.042 -0.1549  0.6510 -0.3464
17674TIP3    H174437   5.929   1.908   4.977  0.0674  0.8856 -0.0054
17674TIP3    H274438   5.916   1.885   5.126 -1.6077  1.9913  0.0446
17675TIP3   OH274439   0.180   5.304   4.174 -0.0758 -0.4896 -0.9467
17675TIP3    H174440   0.096   5.271   4.205  1.2210 -2.9482  0.2605
17675TIP3    H274441   0.245   5.254   4.224  2.1933  3.2329  0.2854
17676TIP3   OH274442   0.220   2.857   3.143 -1.0244 -0.5821 -0.7595
17676TIP3    H174443   0.237   2.812   3.060  2.3030  0.1224 -0.6011
17676TIP3    H274444   0.245   2.793   3.210  1.1743  0.5027 -0.4816
17677TIP3   OH274445   2.515   1.351  12.376 -0.3365  0.5119  0.3519
17677TIP3    H174446   2.610   1.346  12.386 -0.1287 -0.8808 -1.7397
17677TIP3    H274447   2.489   1.264  12.346 -2.5045  0.4153  2.2005
17678TIP3   OH274448   4.311   5.998  16.726  0.4031  0.2738 -0.2005
17678TIP3    H174449   4.405   5.980  16.730  0.3260 -0.7166 -1.8537
17678TIP3    H274450   4.305   6.089  16.697  0.8219  0.6760  0.9162
17679TIP3   OH274451   3.054   1.225   2.913 -0.5471 -0.0751  0.1517
17679TIP3    H174452   3.104   1.153   2.952  0.4837 -0.0360 -1.0501
17679TIP3    H274453   3.028   1.193   2.827  0.6829  1.2793 -0.7566
17680TIP3   OH274454   6.360   4.473  16.383 -0.4159  0.1321 -0.5104
17680TIP3    H174455   6.286   4.522  16.418  0.6141  2.1019 -0.9528
17680TIP3    H274456   6.433   4.497  16.439  0.5026  0.5952 -1.8608
17681TIP3   OH274457   3.354   5.323  11.156 -0.0970 -0.0239  0.0352
17681TIP3    H174458   3.356   5.229  11.134 -1.1054  0.1764 -1.0225
17681TIP3    H274459   3.288   5.359  11.097  1.4380  1.6573 -0.7418
17682TIP3   OH274460   4.618   6.689   0.724  0.2515 -0.1052 -0.5563
17682TIP3    H174461   4.623   6.783   0.742  1.0250 -0.3631  0.6854
17682TIP3    H274462   4.702   6.668   0.684 -0.3363 -0.0921 -1.8448
17683TIP3   OH274463   3.794   3.182   1.695  0.1387  0.0770  0.5144
17683TIP3    H174464   3.726   3.203   1.758 -0.1237 -1.3889  0.7542
17683TIP3    H274465   3.876   3.191   1.744  0.0820  1.0334  0.4507
17684TIP3   OH274466   0.143   0.017   5.868 -0.1811  0.2387 -0.4290
17684TIP3    H174467   0.060  -0.009   5.906  0.4736 -1.2106  0.0728
17684TIP3    H274468   0.199   0.038   5.943  0.5257 -0.7881 -0.6448
17685TIP3   OH274469   2.622   2.031   1.667 -0.5085 -1.0393  0.3019
17685TIP3    H174470   2.626   1.969   1.741 -1.7659 -0.3462  0.9803
17685TIP3    H274471   2.551   1.997   1.612 -1.1653 -0.2491  0.6478
17686TIP3   OH274472   0.349   1.539  12.710 -0.4370 -0.2440  0.2556
17686TIP3    H174473   0.301   1.606  12.759  1.9197 -0.1260  2.6013
17686TIP3    H274474   0.436   1.578  12.696 -0.4166 -1.0262 -2.5367
17687TIP3   OH274475   0.324   4.924   2.580 -0.0389 -0.1793  0.7288
17687TIP3    H174476   0.395   4.910   2.517  0.0784  1.6411  0.3947
17687TIP3    H274477   0.308   4.838   2.618  1.9806 -0.7437  0.4117
17688TIP3   OH274478   0.394   3.392  16.940 -0.1376  0.3553  0.5268
17688TIP3    H174479   0.471   3.337  16.929  0.2308  1.0371 -0.4407
17688TIP3    H274480   0.336   3.367  16.868  0.0839  1.2900  0.0057
17689TIP3   OH274481   1.211   5.321   0.296 -0.1661  0.3767  0.0599
17689TIP3    H174482   1.140   5.385   0.291 -0.2429  0.2596 -0.4298
17689TIP3    H274483   1.210   5.277   0.211 -0.2667 -0.4439  0.4757
17690TIP3   OH274484   2.083   3.964  14.423  0.2112  0.3219  0.2467
17690TIP3    H174485   2.038   3.886  14.388  0.5131  0.2285  0.0638
17690TIP3    H274486   2.052   4.036  14.369  2.5658 -0.1593 -1.9463
17691TIP3   OH274487   4.815   1.095   0.173 -0.5692 -0.0167  0.3091
17691TIP3    H174488   4.751   1.106   0.103 -1.8200 -1.8310  1.0947
17691TIP3    H274489   4.880   1.164   0.158 -2.3588  1.4851 -0.8886
17692TIP3   OH274490   5.668   3.637   5.188 -0.8411 -0.1452 -0.0535
17692TIP3    H174491   5.625   3.722   5.197  0.1816  0.2818  0.9028
17692TIP3    H274492   5.675   3.624   5.093  0.3049  1.5366 -0.2469
17693TIP3   OH274493   3.042   6.258   0.887  0.5584  0.1315 -0.7166
17693TIP3    H174494   3.018   6.340   0.845  0.2228  2.5609  3.7230
17693TIP3    H274495   3.138   6.260   0.891  0.5912 -0.1039 -1.2288
17694TIP3   OH274496   5.419   4.319   6.110  0.1644  0.7558  0.0450
17694TIP3    H174497   5.495   4.316   6.052 -0.2899  0.5251 -0.5379
17694TIP3    H274498   5.436   4.252   6.176  0.1927  0.3020 -0.4239
17695TIP3   OH274499   6.173   6.030   3.423 -0.5409  0.1008 -0.2554
17695TIP3    H174500   6.161   6.112   3.472 -2.0857 -0.7104  0.8181
17695TIP3    H274501   6.268   6.020   3.417 -0.3003  2.3555 -1.1325
17696TIP3   OH274502   1.975   0.639   3.344 -0.1580  0.1298  0.0970
17696TIP3    H174503   1.973   0.708   3.278 -1.1301  2.0202  1.9845
17696TIP3    H274504   1.915   0.670   3.412  0.9715 -1.6046  1.9736
17697TIP3   OH274505   2.768   6.738   4.509 -0.2335  0.3744  0.0713
17697TIP3    H174506   2.765   6.834   4.504  0.1577  0.3817 -0.0620
17697TIP3    H274507   2.792   6.720   4.600  1.0391  0.4425 -0.2278
17698TIP3   OH274508   0.083   5.086   2.213  0.0594 -0.2424 -0.1690
17698TIP3    H174509   0.095   5.027   2.287  0.5492  0.5787  0.4207
17698TIP3    H274510   0.138   5.048   2.144  1.2065  0.0806  0.5406
17699TIP3   OH274511   3.756   1.108   5.437 -0.0718 -0.3874  0.0547
17699TIP3    H174512   3.851   1.115   5.447  0.1025  0.5815 -1.7590
17699TIP3    H274513   3.730   1.045   5.504  1.2533  2.2053  3.2949
17700TIP3   OH274514   2.655   1.390  16.523 -0.1137 -0.1506  0.5024
17700TIP3    H174515   2.687   1.473  16.555  1.2850 -1.0954  1.6671
17700TIP3    H274516   2.681   1.326  16.589 -2.5161 -1.3293  0.4386
17701TIP3   OH274517   3.648   6.590  15.037  0.5225 -0.5606 -0.0811
17701TIP3    H174518   3.663   6.510  15.087 -3.0377 -1.5628 -0.3590
17701TIP3    H274519   3.642   6.659  15.104 -4.1284 -1.8754  1.2503
17702TIP3   OH274520   2.104   5.708  14.182  1.1209 -0.4001  0.1093
17702TIP3    H174521   2.095   5.670  14.269  0.5747  0.2431  0.3486
17702TIP3    H274522   2.014   5.714  14.150  1.2350  0.2850 -0.0922
17703TIP3   OH274523   1.486   4.410  13.973 -0.2082 -0.3511 -0.1969
17703TIP3    H174524   1.400   4.418  14.015 -0.1905 -1.9289  0.1987
17703TIP3    H274525   1.546   4.398  14.046  0.1403 -0.7873 -0.5549
17704TIP3   OH274526   0.814   6.586  15.833  0.1666  0.1364  0.2064
17704TIP3    H174527   0.790   6.535  15.755 -3.0377  2.7848 -0.8113
17704TIP3    H274528   0.849   6.522  15.894  1.0947 -2.3744 -2.7245
17705TIP3   OH274529   2.926   2.552   6.036  0.5820  0.0261 -0.5145
17705TIP3    H174530   2.991   2.548   6.106 -0.0042  0.5972  0.0792
17705TIP3    H274531   2.894   2.642   6.038  0.3736 -0.0167 -1.3589
17706TIP3   OH274532   4.562   1.284   1.963 -0.5614  0.2524 -0.0909
17706TIP3    H174533   4.553   1.192   1.942 -0.7104  0.0544  0.8125
17706TIP3    H274534   4.584   1.286   2.056 -0.0797  1.1029 -0.2060
17707TIP3   OH274535   0.080   2.411  14.076  0.5269  0.6912 -0.9013
17707TIP3    H174536   0.035   2.488  14.040  0.4820  0.6715 -0.8864
17707TIP3    H274537   0.155   2.448  14.122 -1.6534  1.0996  2.6599
17708TIP3   OH274538   2.857   1.764  16.878  0.2886  0.5194 -0.0875
17708TIP3    H174539   2.871   1.858  16.892 -1.3109  0.7680  0.0418
17708TIP3    H274540   2.788   1.741  16.941 -1.9489  0.0813 -2.5376
17709TIP3   OH274541   1.437   1.205  15.030  0.3300 -0.1267  0.5008
17709TIP3    H174542   1.531   1.223  15.033  0.2216  0.6454 -0.4075
17709TIP3    H274543   1.431   1.114  15.002  0.8151  0.4493 -1.7322
17710TIP3   OH274544   5.393   5.094   3.807  0.3102  0.4516  0.6428
17710TIP3    H174545   5.327   5.117   3.872  1.3003  0.6788  1.5855
17710TIP3    H274546   5.456   5.040   3.855 -0.0682 -1.2527 -0.6466
17711TIP3   OH274547   2.878   5.285   5.664 -1.0776 -0.3319 -0.1337
17711TIP3    H174548   2.893   5.201   5.619 -0.4903  0.3295 -1.2179
17711TIP3    H274549   2.910   5.351   5.602 -0.9834  0.6629  0.9536
17712TIP3   OH274550   1.036   4.293  11.214  0.2720  0.0929  0.1821
17712TIP3    H174551   0.953   4.313  11.172 -0.8556 -0.1889  2.1496
17712TIP3    H274552   1.027   4.203  11.245  0.9157  0.3667  1.2312
17713TIP3   OH274553   0.298   5.206  12.844 -0.7886 -0.3910  0.5904
17713TIP3    H174554   0.369   5.235  12.787 -0.9371 -0.2642  0.4662
17713TIP3    H274555   0.328   5.226  12.932 -0.4806 -0.7546  0.5698
17714TIP3   OH274556   0.049   1.430  15.881 -0.7220 -0.3152 -0.3497
17714TIP3    H174557   0.029   1.501  15.942 -0.4721 -2.0313  1.8859
17714TIP3    H274558   0.133   1.454  15.842 -1.1738  1.1061 -0.4764
17715TIP3   OH274559   1.655   1.327   5.412 -0.1281 -0.1226  0.0611
17715TIP3    H174560   1.567   1.341   5.447  0.3106 -1.4297  1.8647
17715TIP3    H274561   1.711   1.384   5.466  0.3248 -0.5589  0.0540
17716TIP3   OH274562   0.174   2.819  16.553  0.3618 -0.7659  0.2128
17716TIP3    H174563   0.117   2.818  16.629 -0.3951  0.3721 -0.3171
17716TIP3    H274564   0.262   2.829  16.589 -0.0322  0.2402  0.9242
17717TIP3   OH274565   4.952   3.720   2.611  0.4430  0.2636  0.0787
17717TIP3    H174566   4.934   3.788   2.546 -0.9203  1.2938  1.4308
17717TIP3    H274567   4.885   3.653   2.595  0.5363  0.1940 -0.0162
17718TIP3   OH274568   6.707   2.800   6.076 -0.2895  0.0080 -0.1006
17718TIP3    H174569   6.773   2.732   6.060  0.4197  0.0161  2.4782
17718TIP3    H274570   6.734   2.841   6.158 -1.1575  2.9066 -1.1486
17719TIP3   OH274571   3.169   1.682  11.244  0.0176  0.4133 -0.5563
17719TIP3    H174572   3.202   1.751  11.302 -2.8333 -0.4072  2.3384
17719TIP3    H274573   3.090   1.720  11.204 -0.1646 -0.3214 -0.9145
17720TIP3   OH274574   2.204   0.880   4.577  0.3185  0.2367  0.6569
17720TIP3    H174575   2.199   0.939   4.501 -0.1697 -2.1256 -1.2795
17720TIP3    H274576   2.133   0.909   4.634  0.5723  1.9649  0.1539
17721TIP3   OH274577   1.335   2.011  13.539 -0.2023  0.3669 -0.5445
17721TIP3    H174578   1.295   2.097  13.531  0.9022  0.9551 -0.0013
17721TIP3    H274579   1.321   1.970  13.454 -1.2993  0.8280 -0.5964
17722TIP3   OH274580   1.546   0.497   3.661  0.8312  0.1441  0.2104
17722TIP3    H174581   1.543   0.551   3.582  0.9807  2.4080  1.6733
17722TIP3    H274582   1.562   0.409   3.628  0.0184  0.8467 -2.3330
17723TIP3   OH274583   4.835   2.569   2.094  0.2827 -0.3369 -0.2941
17723TIP3    H174584   4.764   2.603   2.040 -0.3786  0.0620  0.8092
17723TIP3    H274585   4.804   2.484   2.124  1.6142 -1.6598 -2.4016
17724TIP3   OH274586   1.014   3.904  15.452  0.0848 -0.1583  0.0224
17724TIP3    H174587   1.097   3.862  15.477 -0.3848 -1.6939 -0.8553
17724TIP3    H274588   1.032   3.944  15.367 -0.5237 -2.0492 -1.0368
17725TIP3   OH274589   3.141   5.115  13.344 -0.2509  0.2472  0.1855
17725TIP3    H174590   3.123   5.078  13.258  0.9541  0.1208 -0.0284
17725TIP3    H274591   3.090   5.061  13.405 -1.2129  0.4176 -0.4441
17726TIP3   OH274592   0.940   1.051  15.968  0.0027  0.1208 -0.6403
17726TIP3    H174593   0.967   1.067  15.878  3.9489 -0.3001  0.3121
17726TIP3    H274594   0.966   0.960  15.985  1.6855  0.9371  1.6004
17727TIP3   OH274595   2.966   3.663   1.350 -0.3163 -0.1829  0.4898
17727TIP3    H174596   2.876   3.696   1.352 -0.0370  0.5690  1.2633
17727TIP3    H274597   2.957   3.571   1.323 -1.0616  0.6174 -2.2115
17728TIP3   OH274598   6.364   4.466   0.573 -0.0470 -0.3196  0.1790
17728TIP3    H174599   6.307   4.476   0.649 -0.2922  1.6180 -0.1985
17728TIP3    H274600   6.431   4.404   0.601 -1.3178 -1.2626  1.2367
17729TIP3   OH274601   4.603   4.969  15.335  0.0741  0.2753  0.9046
17729TIP3    H174602   4.645   5.042  15.290  2.4887 -0.3342  2.0068
17729TIP3    H274603   4.597   4.998  15.426  0.0186 -0.4751  1.1463
17730TIP3   OH274604   3.301   6.333  15.506 -0.1680  0.4308  0.2369
17730TIP3    H174605   3.307   6.302  15.416  1.5143 -1.0787  0.8029
17730TIP3    H274606   3.269   6.423  15.499 -2.0763 -0.3121 -1.7002
17731TIP3   OH274607   0.498   2.749   1.171  0.2799  0.1870 -0.7977
17731TIP3    H174608   0.468   2.669   1.214  0.3445  0.6297  0.0917
17731TIP3    H274609   0.530   2.719   1.086 -1.5238 -0.4686 -1.2982
17732TIP3   OH274610   1.761   5.576  17.011 -0.1884 -0.0420 -0.2339
17732TIP3    H174611   1.741   5.493  17.055  0.8713  0.1088  0.5847
17732TIP3    H274612   1.776   5.552  16.920 -1.7577 -0.4642 -0.4101
17733TIP3   OH274613   6.136   0.913   5.453  0.2846  0.5346  0.0717
17733TIP3    H174614   6.190   0.853   5.505  0.4898  0.7840  0.1486
17733TIP3    H274615   6.196   0.951   5.389 -0.1608 -0.4756 -0.9861
17734TIP3   OH274616   5.411   3.371  12.123 -0.3530  0.3634  0.7806
17734TIP3    H174617   5.424   3.462  12.096 -0.2440 -0.6475 -3.0699
17734TIP3    H274618   5.495   3.345  12.162 -0.0773  1.5937  1.0427
17735TIP3   OH274619   1.340   5.739  15.918  0.1827 -0.3209  0.1447
17735TIP3    H174620   1.361   5.647  15.907  0.9389  0.0822 -2.2755
17735TIP3    H274621   1.379   5.782  15.842 -3.3103  1.5007 -0.8033
17736TIP3   OH274622   1.359   4.150   1.671 -0.1659  0.2776 -0.0972
17736TIP3    H174623   1.346   4.066   1.715 -1.0148  0.0538 -0.7574
17736TIP3    H274624   1.396   4.128   1.586 -0.7113  0.5461 -0.4089
17737TIP3   OH274625   1.562   4.729   0.829  0.0952  0.0127 -0.3133
17737TIP3    H174626   1.543   4.728   0.923 -2.4299 -3.0180 -0.6954
17737TIP3    H274627   1.488   4.776   0.790  0.2737 -0.2098 -0.9325
17738TIP3   OH274628   5.827   2.037  13.979  0.3682  0.1999  0.1005
17738TIP3    H174629   5.788   2.040  13.891 -0.5567 -3.6096  0.2287
17738TIP3    H274630   5.921   2.051  13.963 -0.0181  1.6545 -1.1874
17739TIP3   OH274631   4.067   1.168   3.870 -0.6203 -0.4798 -0.0387
17739TIP3    H174632   4.000   1.226   3.834  0.3943  1.2153  0.6417
17739TIP3    H274633   4.082   1.202   3.959  1.1869 -0.7319 -0.2159
17740TIP3   OH274634   3.289   4.001   5.249  0.0594 -0.5118  0.3839
17740TIP3    H174635   3.291   3.935   5.319  1.0194  0.5058  1.3475
17740TIP3    H274636   3.303   3.952   5.168 -1.8949 -1.8345  0.7685
17741TIP3   OH274637   3.447   3.939   6.148 -0.0074 -0.0033 -0.1996
17741TIP3    H174638   3.471   3.883   6.074  1.3568  2.6443 -1.9516
17741TIP3    H274639   3.525   3.940   6.203  0.7024  1.5041 -1.1525
17742TIP3   OH274640   3.528   4.806   5.079  0.2937 -0.5952  0.1247
17742TIP3    H174641   3.443   4.820   5.122  0.8429  0.5609  0.8882
17742TIP3    H274642   3.550   4.715   5.096 -1.7704 -1.5705 -1.8921
17743TIP3   OH274643   0.084   5.641   4.146  0.9315  0.2707  0.5455
17743TIP3    H174644   0.008   5.618   4.200  2.7369  0.1278  3.1831
17743TIP3    H274645   0.109   5.559   4.103  0.5209 -0.0408  0.8915
17744TIP3   OH274646   1.365   2.703   5.402 -0.0187  0.9537 -0.0978
17744TIP3    H174647   1.404   2.704   5.314  1.8751  2.6038  0.6792
17744TIP3    H274648   1.384   2.615   5.435 -1.9732 -0.1881 -1.7758
17745TIP3   OH274649   5.106   3.030   6.001 -0.3402  0.4256  0.0502
17745TIP3    H174650   5.118   3.048   6.095 -0.6786  1.2181 -0.0523
17745TIP3    H274651   5.054   3.103   5.969  2.1253  1.7191 -1.3523
17746TIP3   OH274652   6.530   5.411  11.464 -0.7289  1.0050  0.3960
17746TIP3    H174653   6.574   5.381  11.543  1.4662  0.8380 -0.8045
17746TIP3    H274654   6.497   5.498  11.485 -1.8181  0.2369  2.0244
17747TIP3   OH274655   4.135   1.864  11.883 -0.2557 -0.1548 -0.2664
17747TIP3    H174656   4.134   1.788  11.825 -0.1175 -0.3397 -0.0266
17747TIP3    H274657   4.123   1.939  11.825 -1.2015 -0.4152 -0.4148
17748TIP3   OH274658   2.014   3.656  12.605 -0.1425 -0.2174  0.6483
17748TIP3    H174659   1.940   3.602  12.632 -1.3856  0.7005 -0.6867
17748TIP3    H274660   1.975   3.720  12.545  1.9895 -0.7108 -1.4310
17749TIP3   OH274661   2.190   4.634   0.085  0.0477 -0.6070  0.2959
17749TIP3    H174662   2.126   4.692   0.126  0.4261 -0.7953  1.1876
17749TIP3    H274663   2.172   4.548   0.124  0.5785 -0.7395  0.2523
17750TIP3   OH274664   6.697   0.657   0.291  0.2306  0.1841  0.3411
17750TIP3    H174665   6.632   0.693   0.231 -0.7383  0.3510  1.4626
17750TIP3    H274666   6.739   0.734   0.330  1.7476  0.0931 -1.0056
17751TIP3   OH274667   5.675   4.124  12.015 -0.2998  0.1184 -0.5183
17751TIP3    H174668   5.722   4.055  12.061  0.8646  0.2476 -1.4681
17751TIP3    H274669   5.652   4.187  12.084 -2.7919 -1.8795  0.6465
17752TIP3   OH274670   1.524   3.503  14.924  0.2488 -0.0790  0.4778
17752TIP3    H174671   1.474   3.422  14.911  0.9324 -0.1914 -1.8942
17752TIP3    H274672   1.458   3.572  14.927 -0.1753 -0.4203 -0.6027
17753TIP3   OH274673   4.056   2.239  12.980  0.3565 -0.1947 -0.0586
17753TIP3    H174674   4.001   2.168  12.947  3.0156 -1.3348 -2.4784
17753TIP3    H274675   4.025   2.317  12.933 -1.2981 -0.0684  1.1496
17754TIP3   OH274676   1.871   1.022  10.427  0.0416  0.1481  0.0389
17754TIP3    H174677   1.882   0.931  10.398  1.8891  0.2711  0.2884
17754TIP3    H274678   1.791   1.051  10.383  0.3788 -1.0601 -1.4467
17755TIP3   OH274679   0.964   4.738   3.685 -0.1436  0.4373  0.0141
17755TIP3    H174680   0.944   4.819   3.733 -2.7844 -0.9909  1.5898
17755TIP3    H274681   1.048   4.710   3.720 -0.8466  0.7191  2.1336
17756TIP3   OH274682   4.459   5.516  15.319 -0.2861 -0.8489 -0.4317
17756TIP3    H174683   4.487   5.560  15.400 -0.9944  0.5245 -0.9092
17756TIP3    H274684   4.528   5.451  15.303  1.5054  0.9425 -0.3845
17757TIP3   OH274685   0.035   0.345  14.567  0.2224 -0.7190  0.1606
17757TIP3    H174686  -0.048   0.298  14.574 -0.9409  1.2355  0.5878
17757TIP3    H274687   0.086   0.316  14.642 -0.1485 -1.8013  0.0094
17758TIP3   OH274688   2.632   1.626  15.068 -0.0193 -0.2884  0.4147
17758TIP3    H174689   2.649   1.697  15.130 -2.8034  1.0093 -0.1548
17758TIP3    H274690   2.577   1.565  15.116  0.5574 -0.9998  0.2034
17759TIP3   OH274691   1.001   0.491  13.013  0.0304 -0.3696 -0.2686
17759TIP3    H174692   0.979   0.421  13.076  0.6747  0.7875  1.3128
17759TIP3    H274693   1.053   0.553  13.064 -0.9671  1.5444 -1.4642
17760TIP3   OH274694   4.094   6.116   1.666 -0.3694 -0.2913 -0.3194
17760TIP3    H174695   4.094   6.139   1.573 -2.2187 -0.3853 -0.3669
17760TIP3    H274696   4.073   6.198   1.711  0.1988 -0.3167  0.0018
17761TIP3   OH274697   4.204   2.758   6.976  0.2327  0.1847 -0.3781
17761TIP3    H174698   4.262   2.710   6.917 -1.1872 -1.7602 -0.2852
17761TIP3    H274699   4.123   2.770   6.927  0.2887  1.8935 -0.1181
17762TIP3   OH274700   4.289   3.203  17.262 -0.0315 -0.0761  0.4259
17762TIP3    H174701   4.252   3.133  17.208  0.3015 -0.1291  0.2653
17762TIP3    H274702   4.346   3.157  17.324  1.0148  0.1286 -0.3524
17763TIP3   OH274703   2.409   0.170  13.609  0.0961  0.0576  0.3432
17763TIP3    H174704   2.338   0.163  13.673  0.7478 -0.8943  0.9960
17763TIP3    H274705   2.426   0.264  13.602 -1.1102  0.2912  0.2831
17764TIP3   OH274706   3.830   3.346   0.482 -0.1416  0.5239 -0.2370
17764TIP3    H174707   3.873   3.372   0.564 -0.3059  1.0063 -0.2975
17764TIP3    H274708   3.750   3.399   0.480  0.8723  2.1317 -1.7166
17765TIP3   OH274709   0.841   2.062   2.420  0.0587  0.0961  0.0759
17765TIP3    H174710   0.907   1.997   2.394 -0.3430  0.3194 -1.5766
17765TIP3    H274711   0.763   2.011   2.439  0.0301  0.0175 -0.2528
17766TIP3   OH274712   5.506   0.659  15.187 -0.6954 -0.2704  0.4422
17766TIP3    H174713   5.433   0.673  15.126  0.1136 -0.2123 -0.5261
17766TIP3    H274714   5.475   0.590  15.246 -1.9719  0.5399  0.7641
17767TIP3   OH274715   2.731   0.797   5.234  0.4183  0.3113  0.3452
17767TIP3    H174716   2.802   0.836   5.286  0.3858  1.2502 -0.3067
17767TIP3    H274717   2.662   0.862   5.235  0.1065 -0.0086 -0.2231
17768TIP3   OH274718   0.572   6.646  11.727  0.0242 -0.4210  0.2508
17768TIP3    H174719   0.485   6.680  11.749  0.5496  1.5850 -0.5904
17768TIP3    H274720   0.570   6.637  11.632  1.3318  1.4631  0.0102
17769TIP3   OH274721   0.103   1.220  15.311 -0.5924 -0.6925  0.3664
17769TIP3    H174722   0.060   1.294  15.354 -0.7206 -0.0096 -0.8938
17769TIP3    H274723   0.032   1.160  15.290 -0.6206 -0.6845  0.4365
17770TIP3   OH274724   4.759   6.354  10.367 -0.1452  0.1479 -0.0989
17770TIP3    H174725   4.825   6.356  10.436 -1.2635  0.3924  0.9898
17770TIP3    H274726   4.795   6.295  10.301  1.1540  0.2824  0.4651
17771TIP3   OH274727   1.637   6.456  15.013  0.2028  0.1587 -0.1900
17771TIP3    H174728   1.593   6.376  15.043 -2.2559  0.6053 -2.2887
17771TIP3    H274729   1.568   6.522  15.011  1.5218  1.5704 -1.3149
17772TIP3   OH274730   1.572   0.338  11.511 -0.6663  0.4824 -0.3255
17772TIP3    H174731   1.496   0.339  11.454 -0.3551  0.7853 -0.7358
17772TIP3    H274732   1.607   0.249  11.502 -1.0124  0.3165 -0.0724
17773TIP3   OH274733   2.047   0.476   4.491  0.3047 -0.7605  0.0940
17773TIP3    H174734   2.008   0.405   4.541 -0.0123 -1.8604 -1.6204
17773TIP3    H274735   2.128   0.439   4.457  0.3858 -0.1428 -0.3927
17774TIP3   OH274736   3.520   6.592  12.708 -0.7360 -0.2554  0.1958
17774TIP3    H174737   3.464   6.515  12.693 -0.4604 -0.4020 -0.1176
17774TIP3    H274738   3.542   6.588  12.801  0.4288 -1.3738 -0.0940
17775TIP3   OH274739   4.181   2.479   2.468 -0.3085 -0.8082 -0.0315
17775TIP3    H174740   4.139   2.413   2.524 -0.4714  1.4380  2.6833
17775TIP3    H274741   4.270   2.447   2.456 -0.4372 -1.6314  1.0518
17776TIP3   OH274742   3.001   5.847   1.759  0.3639  0.4450 -0.5964
17776TIP3    H174743   2.967   5.810   1.677  0.2425  1.9031 -1.2469
17776TIP3    H274744   2.939   5.817   1.826  0.7935 -1.2505 -0.9237
17777TIP3   OH274745   6.449   5.940   4.309  0.2714  0.5063  0.0586
17777TIP3    H174746   6.446   6.014   4.249 -2.5788  1.6730  1.4627
17777TIP3    H274747   6.359   5.928   4.337  0.4434 -4.1010 -0.6854
17778TIP3   OH274748   5.623   0.581  14.067  0.3752  0.3803  0.6613
17778TIP3    H174749   5.569   0.516  14.111 -0.7468 -0.5985 -2.0067
17778TIP3    H274750   5.704   0.534  14.045 -1.5946 -1.3949 -4.0620
17779TIP3   OH274751   2.875   1.820   5.953 -0.1136 -0.1834  0.5039
17779TIP3    H174752   2.848   1.910   5.973 -1.6038 -0.6309  0.6224
17779TIP3    H274753   2.898   1.782   6.038 -2.6714 -0.8772  0.9910
17780TIP3   OH274754   2.727   1.741  12.166  0.0412  0.5253  0.3335
17780TIP3    H174755   2.803   1.773  12.116  3.4441 -3.6354  2.1500
17780TIP3    H274756   2.680   1.685  12.104  1.9679 -1.4686  0.5399
17781TIP3   OH274757   2.168   5.912   0.913  0.1121  0.5331  0.0999
17781TIP3    H174758   2.242   5.917   0.852 -0.4447  0.3542 -0.6016
17781TIP3    H274759   2.092   5.936   0.860 -0.3503  0.6024  0.7856
17782TIP3   OH274760   0.813   1.539  15.489  0.0600 -0.3530 -0.1203
17782TIP3    H174761   0.804   1.525  15.584  2.7431  0.3431  0.3150
17782TIP3    H274762   0.849   1.456  15.456 -0.2861 -0.3777 -0.4427
17783TIP3   OH274763   0.700   0.980   1.668 -0.0539 -0.5209  0.2649
17783TIP3    H174764   0.720   0.981   1.575  1.3288  1.0190  0.5519
17783TIP3    H274765   0.609   1.008   1.673  0.1343  0.2698 -0.5679
17784TIP3   OH274766   1.140   1.941  15.676  0.1307  0.2668  0.0483
17784TIP3    H174767   1.179   1.892  15.748  0.7744  0.4624 -0.1614
17784TIP3    H274768   1.195   2.020  15.668 -0.7969  0.9513  0.2821
17785TIP3   OH274769   3.593   4.346  16.287  0.0750 -0.2385 -0.7859
17785TIP3    H174770   3.549   4.267  16.257 -0.6073  0.3227 -1.2931
17785TIP3    H274771   3.564   4.356  16.378  1.7476 -1.6594 -0.0462
17786TIP3   OH274772   4.959   5.385   5.117 -0.3597 -0.1767 -0.4999
17786TIP3    H174773   4.881   5.333   5.135 -0.5629  0.2473 -0.1149
17786TIP3    H274774   5.027   5.321   5.097 -0.6609 -0.5744 -0.2656
17787TIP3   OH274775   0.657   5.853  12.612  0.2890 -0.4163  0.3297
17787TIP3    H174776   0.660   5.764  12.648  0.6378 -0.1895  0.8742
17787TIP3    H274777   0.568   5.883  12.630 -0.2346 -1.0947 -0.9638
17788TIP3   OH274778   3.812   3.149  11.871 -0.4979  0.9661  0.2384
17788TIP3    H174779   3.738   3.089  11.880 -1.5981  1.9702 -1.5069
17788TIP3    H274780   3.799   3.214  11.941  0.7807 -0.7845  2.2299
17789TIP3   OH274781   5.996   2.534  13.165 -0.0691 -0.0401  0.2182
17789TIP3    H174782   5.980   2.486  13.084  0.9386  0.2438 -0.1684
17789TIP3    H274783   6.073   2.588  13.146 -0.8669  1.3558  0.7964
17790TIP3   OH274784   3.193   1.873   2.041  0.3249 -0.5481  0.0577
17790TIP3    H174785   3.143   1.850   1.963  0.6116 -0.1280 -0.2588
17790TIP3    H274786   3.279   1.899   2.006  1.0730 -2.0965  0.6378
17791TIP3   OH274787   0.602   3.422  12.605  0.1473 -0.1864 -0.1203
17791TIP3    H174788   0.698   3.423  12.610  0.3414 -1.5054 -2.2820
17791TIP3    H274789   0.578   3.515  12.608  1.6090  0.2605 -0.8880
17792TIP3   OH274790   2.518   4.401   1.429  0.5378 -0.1456 -0.6316
17792TIP3    H174791   2.482   4.477   1.474 -0.6879  0.0258 -1.8380
17792TIP3    H274792   2.579   4.438   1.365  0.3671 -0.2297 -0.8397
17793TIP3   OH274793   5.076   5.162  14.739 -0.2183  0.1703  0.5107
17793TIP3    H174794   5.119   5.234  14.786  1.2310  0.5754 -1.3289
17793TIP3    H274795   5.064   5.195  14.650 -0.8874 -1.3482  0.0103
17794TIP3   OH274796   3.154   1.219  14.318 -0.0062 -0.6268 -0.3016
17794TIP3    H174797   3.225   1.182  14.371  1.4257  0.1665 -1.5898
17794TIP3    H274798   3.166   1.179  14.232 -0.1615  0.6994 -0.9561
17795TIP3   OH274799   1.066   6.378  12.178 -0.1392 -0.6188  0.0230
17795TIP3    H174800   1.023   6.460  12.156 -0.4563 -0.7701  0.0703
17795TIP3    H274801   1.035   6.316  12.112  0.3338 -0.6290 -0.1921
17796TIP3   OH274802   1.515   6.060   4.629  0.1301 -0.0240  0.5378
17796TIP3    H174803   1.480   5.981   4.669  2.4750 -1.4861 -0.1205
17796TIP3    H274804   1.601   6.071   4.669 -0.5454  2.9022  1.4432
17797TIP3   OH274805   3.832   1.940  13.438  0.0880 -0.2788 -0.5217
17797TIP3    H174806   3.843   1.932  13.343  0.0757  2.4139 -0.8348
17797TIP3    H274807   3.739   1.958  13.450  0.2161  0.1379 -0.0942
17798TIP3   OH274808   0.490   5.610  10.066  0.2303  0.1459 -0.8313
17798TIP3    H174809   0.568   5.574  10.108  0.2136 -0.9407 -1.6879
17798TIP3    H274810   0.456   5.674  10.129  1.1384 -0.2259  0.0632
17799TIP3   OH274811   0.676   5.134   5.339 -0.4419  0.4561 -0.0750
17799TIP3    H174812   0.716   5.220   5.347  0.6623  0.2514 -2.4680
17799TIP3    H274813   0.729   5.089   5.273 -0.4553 -2.3864  1.6932
17800TIP3   OH274814   5.381   3.288   3.495  0.3809  0.2538  0.2253
17800TIP3    H174815   5.355   3.275   3.586 -1.6637 -0.4814 -0.4155
17800TIP3    H274816   5.328   3.225   3.445 -0.1538  2.1067 -1.7049
17801TIP3   OH274817   0.567   6.079   1.825  0.3985  0.0138  0.3296
17801TIP3    H174818   0.531   6.094   1.738 -1.5021 -1.8532  0.7218
17801TIP3    H274819   0.599   6.165   1.852 -0.9061  1.1109 -1.3535
17802TIP3   OH274820   4.197   0.516  13.929 -0.5028 -0.4426 -0.1214
17802TIP3    H174821   4.224   0.582  13.994  0.3709 -0.4743 -0.4458
17802TIP3    H274822   4.177   0.439  13.982  0.3337 -0.5103  0.1182
17803TIP3   OH274823   2.474   2.132   4.541  0.3045  0.1195  0.5446
17803TIP3    H174824   2.540   2.193   4.509  1.6538  0.6353  3.8319
17803TIP3    H274825   2.496   2.048   4.502  1.9111  0.6214  0.3102
17804TIP3   OH274826   4.869   3.265  14.025  0.3709  0.6698  0.1755
17804TIP3    H174827   4.777   3.290  14.028  0.2075  0.1279 -0.1852
17804TIP3    H274828   4.869   3.171  14.039  0.7041  0.3516 -1.7198
17805TIP3   OH274829   3.339   0.941   4.700 -0.0227  0.3175 -0.6245
17805TIP3    H174830   3.342   0.848   4.678 -1.3954  0.0749  0.1137
17805TIP3    H274831   3.335   0.944   4.796 -1.6246  1.0395 -0.6681
17806TIP3   OH274832   0.088   0.541   4.554  0.3673 -0.1657  1.0595
17806TIP3    H174833   0.068   0.617   4.609 -0.0669  0.9777 -0.6042
17806TIP3    H274834   0.002   0.502   4.535  0.1271  1.3308 -1.3374
17807TIP3   OH274835   5.862   1.325   2.963 -0.7136 -0.4126  0.0660
17807TIP3    H174836   5.877   1.234   2.992  0.3776 -0.2882 -0.0423
17807TIP3    H274837   5.857   1.375   3.045 -0.0046 -0.3996  0.1134
17808TIP3   OH274838   4.577   1.511  10.754  0.1096 -0.2043 -0.2666
17808TIP3    H174839   4.654   1.478  10.707 -0.8416 -0.4449 -1.7409
17808TIP3    H274840   4.583   1.471  10.841  0.5053 -2.0236 -1.0769
17809TIP3   OH274841   5.434   6.587   0.803  0.3007 -0.1129 -0.1475
17809TIP3    H174842   5.343   6.578   0.776  0.2421  0.7519 -0.2657
17809TIP3    H274843   5.455   6.679   0.789  1.5623 -0.5201 -1.2544
17810TIP3   OH274844   0.724   3.694  16.603 -0.3683  0.0788 -0.1538
17810TIP3    H174845   0.690   3.605  16.591  0.1547 -0.1294 -0.1084
17810TIP3    H274846   0.760   3.694  16.692 -1.7494  0.7972  0.4433
17811TIP3   OH274847   4.458   6.240  15.838 -0.2006  0.1472 -0.2131
17811TIP3    H174848   4.488   6.298  15.768 -0.9564 -2.0521 -2.5169
17811TIP3    H274849   4.397   6.293  15.888  0.9037  2.0289 -0.7232
17812TIP3   OH274850   6.476   1.931   2.263 -0.1601  0.1600 -0.1066
17812TIP3    H174851   6.483   1.848   2.312 -1.4670 -2.7320 -4.2662
17812TIP3    H274852   6.404   1.977   2.305 -1.0508 -1.9915  0.9172
17813TIP3   OH274853   5.246   5.218  12.683 -0.3548 -0.1324  0.0292
17813TIP3    H174854   5.257   5.221  12.778 -0.1658  2.7978  0.0233
17813TIP3    H274855   5.333   5.201  12.649 -0.3478 -0.7874  0.3722
17814TIP3   OH274856   3.398   6.080  12.755 -0.1695 -0.1600  0.3960
17814TIP3    H174857   3.411   6.057  12.847 -0.6266  0.8680  0.7250
17814TIP3    H274858   3.482   6.060  12.713 -0.6238 -2.7818  0.5650
17815TIP3   OH274859   2.923   6.255  12.865  0.2235 -0.1404  0.2435
17815TIP3    H174860   2.832   6.225  12.859 -0.3400  1.5593 -0.3135
17815TIP3    H274861   2.968   6.211  12.793 -0.6200  0.4649 -0.6750
17816TIP3   OH274862   1.446   4.365   1.142 -0.3000 -0.5462 -0.7243
17816TIP3    H174863   1.536   4.395   1.125 -1.4623  2.4332 -2.2887
17816TIP3    H274864   1.394   4.445   1.144 -2.9760 -2.1824  0.1941
17817TIP3   OH274865   5.110   3.537   3.004  0.2121  0.1357 -0.2218
17817TIP3    H174866   5.171   3.470   2.974  0.1390 -0.5350  1.0280
17817TIP3    H274867   5.166   3.606   3.041  0.2714  0.5498 -1.0684
17818TIP3   OH274868   4.264   0.234  11.052 -0.2516  0.1755  0.0782
17818TIP3    H174869   4.223   0.186  10.981 -0.0135  3.5179 -2.5552
17818TIP3    H274870   4.197   0.296  11.082  0.8060  1.3131  0.1779
17819TIP3   OH274871   3.213   0.353  14.346  0.1672 -0.1102  0.0917
17819TIP3    H174872   3.232   0.260  14.352  0.4371  0.0267  2.0304
17819TIP3    H274873   3.267   0.393  14.415 -1.5240  1.2028  0.7210
17820TIP3   OH274874   3.304   0.753  16.091  0.4436  0.5013  0.3232
17820TIP3    H174875   3.372   0.817  16.073  0.4472 -0.2271 -2.7362
17820TIP3    H274876   3.222   0.803  16.089  0.6296  0.8559  0.9951
17821TIP3   OH274877   1.976   0.177   5.766  0.0874  0.1012  0.6491
17821TIP3    H174878   1.888   0.147   5.743  0.6809 -0.9260 -0.3630
17821TIP3    H274879   2.018   0.101   5.806  0.0731  0.9988  2.5265
17822TIP3   OH274880   6.012   5.333   1.826 -0.0791 -0.4233 -0.3753
17822TIP3    H174881   6.069   5.331   1.902 -1.2261  1.6687  0.6138
17822TIP3    H274882   5.949   5.262   1.841  0.9172 -1.3512 -0.4403
17823TIP3   OH274883   6.343   4.303  12.427  0.2699  0.4189  0.0867
17823TIP3    H174884   6.422   4.265  12.465  0.7605  0.8451 -0.4783
17823TIP3    H274885   6.296   4.341  12.501  1.1754  1.1879  0.2768
17824TIP3   OH274886   5.748   4.932  13.546 -0.3538 -0.2609 -0.3480
17824TIP3    H174887   5.686   4.917  13.475 -0.9416 -1.0343  0.3090
17824TIP3    H274888   5.806   5.001  13.513 -0.6705 -0.5390 -1.5293
17825TIP3   OH274889   6.155   2.055   0.528 -0.3566 -0.0628 -0.1975
17825TIP3    H174890   6.216   1.981   0.524 -0.3057  0.0272 -1.9022
17825TIP3    H274891   6.130   2.070   0.437 -1.5761  1.0339  0.2873
17826TIP3   OH274892   2.300   3.482  16.533 -0.0064  0.0292  0.2347
17826TIP3    H174893   2.211   3.448  16.523  0.2366 -0.8317  0.8460
17826TIP3    H274894   2.344   3.459  16.451  0.2169 -1.3781  0.7226
17827TIP3   OH274895   5.543   5.000  13.958  0.3954 -0.5048 -0.1822
17827TIP3    H174896   5.604   5.048  13.903  0.1634  0.3945  0.3250
17827TIP3    H274897   5.462   4.996  13.907  0.2085  0.2486  0.0510
17828TIP3   OH274898   4.985   3.375  12.204 -0.4039 -0.3052  0.0540
17828TIP3    H174899   4.917   3.308  12.199 -1.3190  0.5600  0.5328
17828TIP3    H274900   4.941   3.451  12.242  0.2529  1.0314 -1.7371
17829TIP3   OH274901   5.333   1.220  15.250  0.5315  0.4635  0.0082
17829TIP3    H174902   5.277   1.297  15.247  0.8075  0.6780  0.3344
17829TIP3    H274903   5.301   1.170  15.325  2.0924  1.6155  1.5293
17830TIP3   OH274904   4.034   1.415  14.980  0.0519  0.1510 -0.3737
17830TIP3    H174905   4.086   1.463  14.916  1.1584 -0.0301  0.3589
17830TIP3    H274906   3.992   1.483  15.033  0.0092  0.3009 -0.5994
17831TIP3   OH274907   3.915   6.716  11.871 -0.0304  0.0528  0.3893
17831TIP3    H174908   3.977   6.647  11.847 -1.2508 -0.9085 -0.0565
17831TIP3    H274909   3.939   6.789  11.814 -0.8678 -1.1426 -1.6036
17832TIP3   OH274910   2.432   4.304  16.436  0.0472 -0.6053 -0.5641
17832TIP3    H174911   2.471   4.382  16.475 -0.5892 -1.0844  1.1103
17832TIP3    H274912   2.482   4.290  16.356  1.3517  0.4777  0.0196
17833TIP3   OH274913   0.893   2.055   5.689 -0.4334  0.8421 -0.6997
17833TIP3    H174914   0.855   2.091   5.769 -0.5820 -1.4136  0.3309
17833TIP3    H274915   0.975   2.015   5.717  0.6907  1.9947 -2.1507
17834TIP3   OH274916   2.371   1.674   6.408 -0.3203 -0.0861  0.6537
17834TIP3    H174917   2.316   1.627   6.345  1.4319 -2.6955  0.8997
17834TIP3    H274918   2.335   1.651   6.493 -0.3633  0.2990  0.7428
17835TIP3   OH274919   5.632   3.386  13.766  0.1809 -0.3693 -0.1449
17835TIP3    H174920   5.669   3.318  13.821  2.9192  0.1165 -1.2516
17835TIP3    H274921   5.538   3.366  13.763  0.5789 -2.8217  1.2445
17836TIP3   OH274922   3.964   3.690   2.021 -0.2706  0.0112  0.0012
17836TIP3    H174923   3.979   3.648   2.105  0.8253 -0.2676 -0.3237
17836TIP3    H274924   3.936   3.619   1.963 -0.2960  0.0672 -0.0551
17837TIP3   OH274925   1.099   1.210  11.568 -0.0091 -0.6145  0.0613
17837TIP3    H174926   1.057   1.202  11.483  1.1542  0.4752 -0.6500
17837TIP3    H274927   1.149   1.130  11.578  0.1961 -0.5548 -0.4822
17838TIP3   OH274928   6.024   1.530  15.743 -0.2494 -0.0220  0.2190
17838TIP3    H174929   5.948   1.473  15.728  0.1712 -0.3350 -0.7934
17838TIP3    H274930   5.996   1.615  15.710 -0.0866 -0.1889 -0.3514
17839TIP3   OH274931   6.008   5.109  17.023  0.3168  0.3676 -0.3227
17839TIP3    H174932   5.939   5.060  16.979 -0.3301  0.7223  0.2804
17839TIP3    H274933   6.089   5.080  16.981 -0.0992 -0.8218 -0.3364
17840TIP3   OH274934   5.585   3.935  11.419  0.4366 -0.5956 -0.4771
17840TIP3    H174935   5.582   4.030  11.426 -0.7497 -0.6690  0.4829
17840TIP3    H274936   5.496   3.906  11.443  0.1996 -1.8509 -2.6142
17841TIP3   OH274937   1.217   5.575  13.809 -0.3515 -0.5747 -0.5871
17841TIP3    H174938   1.262   5.558  13.891  0.9777  1.7545 -0.7545
17841TIP3    H274939   1.285   5.603  13.749 -0.9635 -3.9649 -3.1778
17842TIP3   OH274940   3.680   1.987   1.771 -0.0701  0.2975  0.1536
17842TIP3    H174941   3.730   1.986   1.852  0.3120  1.3300 -0.0557
17842TIP3    H274942   3.747   1.989   1.702 -0.3549  2.3565 -0.1184
17843TIP3   OH274943   6.029   6.212  14.541  0.6944  0.2853  0.4046
17843TIP3    H174944   6.083   6.262  14.602  1.8346 -1.6341  1.0428
17843TIP3    H274945   6.091   6.178  14.476  0.2160 -1.5267  0.8471
17844TIP3   OH274946   2.442   0.174   1.308  0.2958  0.4662  0.4807
17844TIP3    H174947   2.401   0.169   1.221 -1.9036 -0.3039  1.4914
17844TIP3    H274948   2.483   0.260   1.309 -0.9246  1.1220 -0.8067
17845TIP3   OH274949   2.989   3.371  13.992 -0.2114  0.2524 -0.0690
17845TIP3    H174950   2.984   3.368  14.088  0.1553 -0.0642 -0.0586
17845TIP3    H274951   2.945   3.453  13.968 -0.0580  0.4691  0.3862
17846TIP3   OH274952   4.096   1.427  13.937  0.2541  0.1511  0.3982
17846TIP3    H174953   4.162   1.360  13.918 -0.2919 -0.0019 -1.0635
17846TIP3    H274954   4.028   1.380  13.986  0.4906 -0.0468  0.5395
17847TIP3   OH274955   0.008   0.173   6.138 -0.0371  0.0536 -0.0157
17847TIP3    H174956  -0.029   0.131   6.215  1.0714 -0.3182  0.3294
17847TIP3    H274957   0.103   0.167   6.150  0.1531  1.1498 -0.7744
17848TIP3   OH274958   0.590   0.119  12.570 -0.2708 -0.1233 -0.2533
17848TIP3    H174959   0.620   0.172  12.496  0.5949 -1.2828 -0.7580
17848TIP3    H274960   0.573   0.183  12.639  2.5213  0.7096 -0.2179
17849TIP3   OH274961   0.064   0.001   0.653  0.0450  0.3746  0.1388
17849TIP3    H174962   0.068   0.082   0.704 -0.5589  1.3120 -1.2148
17849TIP3    H274963  -0.030  -0.015   0.642 -0.0104  2.0786 -3.3648
17850TIP3   OH274964   5.575   4.317   3.422  0.0832  0.6100 -0.1168
17850TIP3    H174965   5.491   4.279   3.448 -0.1543  1.7729  0.8758
17850TIP3    H274966   5.641   4.258   3.458 -0.2867 -0.0470 -0.4938
17851TIP3   OH274967   1.914   3.661  12.136 -0.6257 -0.1992  0.2338
17851TIP3    H174968   1.997   3.630  12.174  0.6396  0.9160 -1.4507
17851TIP3    H274969   1.889   3.592  12.075  0.5298  0.6192 -1.2200
17852TIP3   OH274970   6.282   1.348  13.767 -0.6045  0.3223  0.4620
17852TIP3    H174971   6.196   1.333  13.807 -0.6710  0.1005  0.2434
17852TIP3    H274972   6.263   1.406  13.693 -0.4957  0.6642  0.7059
17853TIP3   OH274973   0.446   0.400  13.135  0.1348 -1.1733 -0.1039
17853TIP3    H174974   0.392   0.330  13.171 -0.3976 -0.0055  1.5238
17853TIP3    H274975   0.519   0.407  13.197  0.0323 -0.1299 -0.0799
17854TIP3   OH274976   4.166   5.975   1.907  0.2791  0.4029  0.0860
17854TIP3    H174977   4.132   6.029   1.835  0.2367 -0.0746 -0.2602
17854TIP3    H274978   4.227   6.033   1.953  1.8864  0.1188 -1.5531
17855TIP3   OH274979   1.681   0.046   6.361  0.1740  0.4729 -0.0922
17855TIP3    H174980   1.678   0.131   6.404  0.6628 -0.1830  1.2854
17855TIP3    H274981   1.613   0.051   6.294 -1.2691  1.2166  1.3672
17856TIP3   OH274982   6.550   5.138  13.019  0.4945  0.3082 -0.4737
17856TIP3    H174983   6.599   5.139  13.101  0.3464  0.7321 -0.3843
17856TIP3    H274984   6.488   5.211  13.028 -0.3020 -0.3495 -0.4889
17857TIP3   OH274985   3.665   6.014  14.652  0.3404  0.2524 -0.0158
17857TIP3    H174986   3.711   6.095  14.675  1.0499  0.1538 -1.0282
17857TIP3    H274987   3.615   6.037  14.574  0.3343 -0.2035 -0.1467
17858TIP3   OH274988   4.762   1.989  15.848 -0.0871 -0.1199  0.7657
17858TIP3    H174989   4.753   2.074  15.805 -1.2125 -0.1161  0.9924
17858TIP3    H274990   4.788   2.011  15.938  1.9360 -0.1179  0.2306
17859TIP3   OH274991   2.564   2.925   3.516  0.0317 -0.7952 -0.2308
17859TIP3    H174992   2.557   2.934   3.421 -0.7181  1.8206  0.0024
17859TIP3    H274993   2.628   2.991   3.542  1.7248 -2.7678  0.9604
17860TIP3   OH274994   4.233   4.953   3.151  0.1183 -0.0995  0.3335
17860TIP3    H174995   4.174   5.011   3.199  0.7174  0.0278  0.9360
17860TIP3    H274996   4.183   4.872   3.139  0.0410 -0.2310  1.4165
17861TIP3   OH274997   3.805   6.106   2.608 -0.0010  0.2332  0.1217
17861TIP3    H174998   3.859   6.061   2.674  1.7591 -0.7215 -1.8303
17861TIP3    H274999   3.745   6.038   2.577 -0.7759  0.6596  0.6675
17862TIP3   OH275000   4.469   1.736  16.643 -0.1618 -0.4286  0.1365
17862TIP3    H175001   4.475   1.684  16.723 -0.4764 -1.6309 -0.5762
17862TIP3    H275002   4.501   1.822  16.667 -0.5567 -0.6748  1.6233
17863TIP3   OH275003   6.219   6.407   6.269 -0.6284  0.6302 -0.4828
17863TIP3    H175004   6.211   6.491   6.223 -1.2398  0.6499 -0.3373
17863TIP3    H275005   6.279   6.426   6.342 -0.4242  0.8314 -0.6982
17864TIP3   OH275006   3.446   3.943   1.543  0.3257  0.2758 -0.2493
17864TIP3    H175007   3.420   3.883   1.473  0.8508  1.0209 -1.1042
17864TIP3    H275008   3.397   3.913   1.620 -1.1042  0.1115 -1.1875
17865TIP3   OH275009   2.238   6.676  16.340 -0.4260  0.0968 -0.2045
17865TIP3    H175010   2.145   6.683  16.360 -0.5790  1.4999 -1.2409
17865TIP3    H275011   2.262   6.587  16.366 -2.0652 -0.3091  0.0076
17866TIP3   OH275012   6.718   3.559   5.929  0.2964  0.0411 -0.2596
17866TIP3    H175013   6.660   3.615   5.879 -1.4317 -0.9312  0.5586
17866TIP3    H275014   6.734   3.606   6.011 -0.0969 -0.0964 -0.1043
17867TIP3   OH275015   0.289   2.884   5.773  0.0174 -0.0403 -0.4921
17867TIP3    H175016   0.216   2.900   5.712  1.0707 -0.0754 -1.8192
17867TIP3    H275017   0.249   2.838   5.846 -1.2061 -0.5901 -1.4598
17868TIP3   OH275018   4.378   5.688  16.902  0.8533 -0.2041 -0.5085
17868TIP3    H175019   4.365   5.663  16.810  1.1002 -0.6705 -0.4195
17868TIP3    H275020   4.469   5.667  16.920  0.9264  0.3145 -0.2848
17869TIP3   OH275021   0.685   2.388   6.082  0.2420 -0.3181 -0.2698
17869TIP3    H175022   0.777   2.408   6.062  0.6802 -2.2254 -0.2832
17869TIP3    H275023   0.687   2.359   6.173 -0.8855  2.7272  0.8749
17870TIP3   OH275024   6.382   0.413  15.029 -0.0351 -0.7309 -0.2201
17870TIP3    H175025   6.309   0.474  15.017  0.1161 -0.7581 -1.4064
17870TIP3    H275026   6.460   0.470  15.031  0.0532 -0.8365 -0.6858
17871TIP3   OH275027   0.274   1.329  11.287  0.1918 -0.0179  0.2556
17871TIP3    H175028   0.215   1.262  11.252 -1.6760 -0.1234  3.2413
17871TIP3    H275029   0.277   1.396  11.218 -2.0336 -0.8328 -0.7261
17872TIP3   OH275030   1.564   4.441  14.655  0.4033 -0.0658 -0.3882
17872TIP3    H175031   1.624   4.372  14.683  1.0265  0.1699 -1.0983
17872TIP3    H275032   1.617   4.521  14.655 -0.4827  0.5681  1.0910
17873TIP3   OH275033   5.130   4.352   1.041 -0.0510 -0.2799  0.3016
17873TIP3    H175034   5.074   4.315   0.972  1.4118  0.3159 -1.2894
17873TIP3    H275035   5.188   4.412   0.994  2.2297 -1.1977  1.7646
17874TIP3   OH275036   2.191   0.433  12.248 -0.4640  0.0874  0.2144
17874TIP3    H175037   2.217   0.515  12.290 -0.3432 -1.1929  2.8081
17874TIP3    H275038   2.095   0.435  12.252 -0.4829  0.3672 -0.2998
17875TIP3   OH275039   3.511   1.972  15.205  0.3043  0.4461  0.7428
17875TIP3    H175040   3.535   1.947  15.116  0.8863 -0.9460  1.2543
17875TIP3    H275041   3.535   2.064  15.212 -1.1240  0.9828 -0.9855
17876TIP3   OH275042   3.691   5.982   4.248 -0.1808 -0.9501 -0.5508
17876TIP3    H175043   3.694   5.940   4.162 -3.1301  2.0270 -2.3556
17876TIP3    H275044   3.733   6.067   4.235 -2.6234  0.4907  0.1663
17877TIP3   OH275045   6.704   5.788  12.681  0.1532  0.5575  0.0932
17877TIP3    H175046   6.778   5.832  12.722  0.0912 -1.3893  2.6018
17877TIP3    H275047   6.629   5.812  12.736 -0.6185  0.5257 -0.9187
17878TIP3   OH275048   3.042   2.064   0.765  0.5593 -0.2740 -0.2179
17878TIP3    H175049   2.970   2.050   0.827 -0.6201 -2.0652 -1.8658
17878TIP3    H275050   3.121   2.041   0.813 -0.1262  0.1221  1.1426
17879TIP3   OH275051   2.518   5.702  16.218 -0.6051  0.1272  0.5312
17879TIP3    H175052   2.431   5.738  16.198 -1.4495 -0.7862  2.3036
17879TIP3    H275053   2.537   5.643  16.145 -0.9875  1.0945 -0.3845
17880TIP3   OH275054   5.662   5.642   1.548 -0.1367 -0.1488  0.0485
17880TIP3    H175055   5.647   5.611   1.459  0.0676  0.3375 -0.1550
17880TIP3    H275056   5.757   5.638   1.559  0.0866  2.1623 -0.6312
17881TIP3   OH275057   6.076   4.531  17.209  0.1813 -0.1171  0.7299
17881TIP3    H175058   6.069   4.562  17.300 -0.0229 -0.0769  0.6999
17881TIP3    H275059   6.008   4.464  17.201  0.0296  0.0620  0.5278
17882TIP3   OH275060   5.205   3.776  14.057 -0.4580 -0.4376  0.2102
17882TIP3    H175061   5.226   3.702  14.000  3.5121 -0.9201  1.9369
17882TIP3    H275062   5.204   3.739  14.145 -0.0588  1.2519  0.9713
17883TIP3   OH275063   2.933   5.259  14.832 -0.5927 -0.6742  0.2133
17883TIP3    H175064   2.988   5.314  14.778 -0.9604 -1.4560 -0.9958
17883TIP3    H275065   2.981   5.250  14.914 -0.5600  1.4548  0.4692
17884TIP3   OH275066   0.061   0.241  11.864 -0.2829 -0.3851  0.0257
17884TIP3    H175067   0.053   0.305  11.794  1.3519  0.4221  0.5265
17884TIP3    H275068   0.004   0.274  11.934  3.4986  2.9235  1.9154
17885TIP3   OH275069   4.253   0.496   4.295 -0.5937  0.0846 -0.3278
17885TIP3    H175070   4.229   0.408   4.268 -1.6591  0.2078  0.1939
17885TIP3    H275071   4.349   0.497   4.289 -0.5588 -1.1280 -0.2624
17886TIP3   OH275072   4.591   2.447  17.019  0.1368  0.4057 -0.0509
17886TIP3    H175073   4.496   2.459  17.025  0.1255  0.0878  0.5296
17886TIP3    H275074   4.608   2.371  17.075  0.6968  0.2831 -0.3878
17887TIP3   OH275075   0.818   6.579  11.829 -0.0044 -0.4761 -0.7345
17887TIP3    H175076   0.733   6.604  11.792  0.8727  2.1006 -1.1911
17887TIP3    H275077   0.812   6.484  11.840 -2.2456 -0.6338 -2.5402
17888TIP3   OH275078   4.040   3.247  17.047 -0.1589  0.0164 -0.0018
17888TIP3    H175079   4.072   3.160  17.068 -0.1329 -0.5264 -2.0856
17888TIP3    H275080   4.002   3.279  17.128  1.8071 -1.0256  1.4041
17889TIP3   OH275081   5.567   0.170  16.761 -0.4600  0.4869 -0.0019
17889TIP3    H175082   5.534   0.229  16.828 -1.7490 -1.0943  0.8215
17889TIP3    H275083   5.503   0.175  16.690 -1.3008 -0.8303  0.6170
17890TIP3   OH275084   3.331   1.975  14.843 -0.2351  0.7373  0.7005
17890TIP3    H175085   3.354   2.012  14.757  0.7038 -2.1754 -0.4140
17890TIP3    H275086   3.386   2.023  14.905 -0.7688  2.7540 -0.3108
17891TIP3   OH275087   2.412   2.077  11.091 -0.6552 -0.0923  0.4771
17891TIP3    H175088   2.507   2.082  11.092 -0.5192 -2.0096  0.5171
17891TIP3    H275089   2.387   2.123  11.011  0.3159  0.1972  0.3279
17892TIP3   OH275090   5.970   1.020   0.351  0.2741 -0.4282  0.3711
17892TIP3    H175091   6.022   1.028   0.271  0.3448  0.1548  0.4727
17892TIP3    H275092   5.879   1.020   0.321  0.2785  0.4436  0.3352
17893TIP3   OH275093   5.611   5.164  11.806 -0.0400 -0.4767 -0.2051
17893TIP3    H175094   5.673   5.221  11.852 -0.4832 -1.1516  1.2965
17893TIP3    H275095   5.525   5.197  11.832 -0.3372 -0.1347 -1.5284
17894TIP3   OH275096   1.073   2.997   0.464 -0.1820 -0.0519  0.2507
17894TIP3    H175097   1.162   3.016   0.435  0.4364 -1.6292  1.0250
17894TIP3    H275098   1.021   2.996   0.383  0.2061  2.1811 -0.0790
17895TIP3   OH275099   1.364   2.264   4.611  0.0676 -0.3736  0.0158
17895TIP3    H175100   1.312   2.273   4.532  0.4462  0.0317 -0.1873
17895TIP3    H275101   1.301   2.238   4.678 -0.0382 -2.1786 -0.7105
17896TIP3   OH275102   4.732   6.075  16.218 -0.6752 -0.1990 -0.4965
17896TIP3    H175103   4.701   6.057  16.129 -0.6251  0.8154 -0.7276
17896TIP3    H275104   4.661   6.124  16.259  0.1797  1.2848 -0.7141
17897TIP3   OH275105   2.710   2.616   3.271 -0.6497 -0.6584 -0.1072
17897TIP3    H175106   2.707   2.557   3.196 -1.0314 -1.6565  0.6726
17897TIP3    H275107   2.649   2.578   3.334 -0.3188  0.1471  0.7228
17898TIP3   OH275108   4.763   3.968   0.709  0.1522  0.6844 -0.7305
17898TIP3    H175109   4.821   3.914   0.763 -2.3873 -0.5338  1.0029
17898TIP3    H275110   4.821   4.011   0.647  2.7454 -1.2278  0.1862
17899TIP3   OH275111   3.427   2.053   6.678  0.1661 -0.2581 -0.1625
17899TIP3    H175112   3.491   2.064   6.748 -0.6980 -0.0064  0.6156
17899TIP3    H275113   3.440   1.963   6.647 -0.1134 -0.7404  1.0353
17900TIP3   OH275114   6.618   0.972   5.632 -0.1492  0.3893  0.1500
17900TIP3    H175115   6.704   0.952   5.667  0.7164  1.3157 -1.3340
17900TIP3    H275116   6.623   1.064   5.606 -1.5404  0.4238 -0.0726
17901TIP3   OH275117   2.012   4.448   5.555  0.5615  0.4060  0.2145
17901TIP3    H175118   2.002   4.533   5.597  2.5732  0.6580  0.2709
17901TIP3    H275119   2.090   4.457   5.500  0.5174 -1.2523 -0.1854
17902TIP3   OH275120   3.798   4.909   4.345  0.3246  0.3301 -0.4207
17902TIP3    H175121   3.712   4.886   4.309  0.1094  1.2680 -0.5455
17902TIP3    H275122   3.785   4.909   4.440  1.2732 -3.6392 -0.1415
17903TIP3   OH275123   0.087   3.989  13.878 -0.0931  0.4446  0.2519
17903TIP3    H175124   0.098   3.895  13.898  0.0264  0.1636 -1.0437
17903TIP3    H275125   0.176   4.023  13.875 -0.1669  0.7930  1.5128
17904TIP3   OH275126   0.486   5.543  12.107  0.8502 -0.2454 -0.0035
17904TIP3    H175127   0.443   5.626  12.125  0.5297  0.4201 -3.2503
17904TIP3    H275128   0.421   5.477  12.132  0.4311  0.5005  0.9652
17905TIP3   OH275129   0.973   3.201  16.379 -0.3661  0.9312 -0.1820
17905TIP3    H175130   0.953   3.147  16.455 -0.2859 -0.9843 -1.4624
17905TIP3    H275131   0.899   3.189  16.320  0.8308  0.0466 -1.6012
17906TIP3   OH275132   0.380   4.679  13.366  0.9226  0.2189 -0.3254
17906TIP3    H175133   0.361   4.590  13.336  0.7370  0.4672 -0.9484
17906TIP3    H275134   0.309   4.699  13.427  1.2918 -0.2800  0.2833
17907TIP3   OH275135   3.953   2.960  12.521 -0.0974 -0.4611  0.4648
17907TIP3    H175136   3.907   3.042  12.503  0.3732 -0.2007  0.4258
17907TIP3    H275137   4.042   2.975  12.489  0.1074 -0.8393  0.8457
17908TIP3   OH275138   5.535   3.239   2.001 -0.3589  0.7801 -0.4494
17908TIP3    H175139   5.550   3.145   2.011  0.9080  0.9441 -0.6933
17908TIP3    H275140   5.466   3.259   2.065 -0.7719 -0.3348 -0.5235
17909TIP3   OH275141   0.394   6.093   1.609 -0.0080  0.0586  0.7129
17909TIP3    H175142   0.370   6.002   1.592 -0.5275  0.2470  0.4267
17909TIP3    H275143   0.329   6.124   1.672 -0.6022  0.5980 -0.1412
17910TIP3   OH275144   5.383   4.047  13.565 -0.4601 -0.1725 -0.5887
17910TIP3    H175145   5.376   3.996  13.646  0.0853  2.6365  1.3380
17910TIP3    H275146   5.312   4.111  13.570  1.9759  2.7270 -0.1858
17911TIP3   OH275147   0.571   0.966  13.972 -0.4095 -0.2159 -0.5700
17911TIP3    H175148   0.589   0.926  14.058 -0.9383  0.0800 -0.3153
17911TIP3    H275149   0.495   0.918  13.939 -0.2915 -0.2354 -0.8127
17912TIP3   OH275150   6.431   3.580  14.005 -0.3919 -0.7992 -0.5998
17912TIP3    H175151   6.492   3.514  13.974  1.8849  0.5808  0.6642
17912TIP3    H275152   6.483   3.660  14.014 -2.2519  0.3548  0.9909
17913TIP3   OH275153   2.252   3.446   5.322  0.2343  0.5796 -0.5823
17913TIP3    H175154   2.204   3.484   5.248 -1.6095  1.0969  0.8234
17913TIP3    H275155   2.199   3.371   5.349  0.7117  0.5904  0.4136
17914TIP3   OH275156   5.483   6.286   6.049  0.7967  0.1709  0.6193
17914TIP3    H175157   5.490   6.285   6.144  1.6071  2.0920  0.6495
17914TIP3    H275158   5.569   6.256   6.018  0.2031 -1.4176  0.4518
17915TIP3   OH275159   2.645   4.595  14.550  0.0046 -0.3663  0.0889
17915TIP3    H175160   2.552   4.605  14.528 -0.3985  0.4562  1.9518
17915TIP3    H275161   2.644   4.552  14.636  1.1868  2.5524  1.6867
17916TIP3   OH275162   6.386   2.597  11.156 -0.0860 -0.6029  0.2347
17916TIP3    H175163   6.374   2.691  11.146 -0.0400 -0.7724 -1.8983
17916TIP3    H275164   6.315   2.558  11.103  1.1596 -1.7212 -0.6732
17917TIP3   OH275165   0.421   4.629   4.601 -0.3247  0.5134 -0.1121
17917TIP3    H175166   0.349   4.569   4.617  0.1300  0.0264  0.1529
17917TIP3    H275167   0.410   4.698   4.666  0.2452 -0.2999  0.8818
17918TIP3   OH275168   3.046   4.059  13.391  0.5269  0.0524  0.3016
17918TIP3    H175169   3.098   4.035  13.314  0.6452 -1.5373  0.8511
17918TIP3    H275170   3.107   4.056  13.464  0.5103  1.9517  0.4636
17919TIP3   OH275171   4.402   2.072  12.421  0.3319 -0.1377 -0.5584
17919TIP3    H175172   4.353   2.051  12.342  2.7444 -0.1935 -2.1249
17919TIP3    H275173   4.494   2.068  12.395  1.1943  2.6435  1.4986
17920TIP3   OH275174   1.314   0.617  13.896 -0.0668 -0.2962  0.1549
17920TIP3    H175175   1.352   0.685  13.840  0.1024  0.4554  1.1608
17920TIP3    H275176   1.221   0.614  13.871 -0.2619  0.9136  0.6938
17921TIP3   OH275177   2.690   1.987   5.789 -0.0450  0.2945 -0.2131
17921TIP3    H175178   2.755   1.917   5.788 -1.8074 -1.4091 -1.2031
17921TIP3    H275179   2.703   2.031   5.873  2.2124 -0.1009 -0.2902
17922TIP3   OH275180   5.938   2.711   5.182 -0.2304  0.0895 -0.1459
17922TIP3    H175181   5.891   2.783   5.225  0.3047  0.5975 -0.3891
17922TIP3    H275182   5.982   2.665   5.253  0.5279  0.8322 -0.1144
17923TIP3   OH275183   1.531   1.796  15.301 -0.2681  0.3141 -0.4225
17923TIP3    H175184   1.449   1.835  15.270 -1.6581 -2.9973 -1.3597
17923TIP3    H275185   1.577   1.770  15.222 -0.0238 -1.0136  0.1245
17924TIP3   OH275186   1.045   6.709  11.232 -0.4197 -0.1952 -0.1503
17924TIP3    H175187   1.054   6.615  11.221 -2.7247 -0.3423 -1.2737
17924TIP3    H275188   0.993   6.738  11.157 -0.5421  1.8337  0.6391
17925TIP3   OH275189   2.757   2.892  17.151 -0.3777  0.2546 -0.0516
17925TIP3    H175190   2.715   2.808  17.171  0.2679 -0.3803 -1.2907
17925TIP3    H275191   2.848   2.870  17.133 -0.1143  1.2805 -0.0472
17926TIP3   OH275192   0.548   2.944  14.836 -0.8072 -0.2192  0.1110
17926TIP3    H175193   0.508   2.890  14.904  0.3308  0.5183  1.4012
17926TIP3    H275194   0.637   2.959  14.866 -1.4476  3.5873  0.5927
17927TIP3   OH275195   2.556   2.840   0.051  0.6314 -0.2953 -0.0021
17927TIP3    H175196   2.640   2.821   0.010  1.0460  0.8689  0.2746
17927TIP3    H275197   2.535   2.929   0.024 -0.7237 -0.7142 -0.3973
17928TIP3   OH275198   4.102   3.011  12.169 -0.2533 -0.3891  0.2853
17928TIP3    H175199   4.038   3.078  12.193 -0.3659 -0.7517  1.0298
17928TIP3    H275200   4.184   3.059  12.160 -0.7992  0.2469 -1.7004
17929TIP3   OH275201   5.330   3.221  16.542  0.3235  0.1761  0.1641
17929TIP3    H175202   5.391   3.291  16.564 -0.0735 -0.0027  2.0199
17929TIP3    H275203   5.313   3.178  16.626 -0.0629 -1.6364 -0.7966
17930TIP3   OH275204   4.296   4.235   1.459  0.3479  0.0820  0.4472
17930TIP3    H175205   4.201   4.242   1.456  0.3852  0.4841 -1.2865
17930TIP3    H275206   4.325   4.315   1.502 -0.0857  0.2593  0.4146
17931TIP3   OH275207   3.600   1.684   1.745 -0.1496 -0.2142 -0.0212
17931TIP3    H175208   3.676   1.730   1.781  0.0306  0.9466 -1.7318
17931TIP3    H275209   3.606   1.700   1.651 -0.5948 -3.0666 -0.6183
17932TIP3   OH275210   2.352   4.480   2.437  0.2274 -0.9179 -0.4150
17932TIP3    H175211   2.391   4.536   2.370  0.7679  0.1921  0.7807
17932TIP3    H275212   2.409   4.404   2.441  1.3504 -0.0731  0.1650
17933TIP3   OH275213   3.322   0.019  11.163  0.3654  0.2781  0.0197
17933TIP3    H175214   3.279  -0.028  11.091 -1.2988  1.7625 -0.0116
17933TIP3    H275215   3.380   0.082  11.120 -1.0512  1.5523 -0.0679
17934TIP3   OH275216   4.140   2.827  13.195 -0.2925  0.1233 -0.2135
17934TIP3    H175217   4.116   2.740  13.227  0.0019 -0.8460 -2.3877
17934TIP3    H275218   4.103   2.831  13.107  1.4948  1.3529 -0.9800
17935TIP3   OH275219   4.534   1.713   4.675 -0.4223  0.0192 -0.1429
17935TIP3    H175220   4.627   1.691   4.675 -0.2875  0.5719 -0.1664
17935TIP3    H275221   4.508   1.707   4.767 -0.2971  0.1082 -0.0995
17936TIP3   OH275222   3.631   1.972  12.160  0.6601 -0.0982 -0.5140
17936TIP3    H175223   3.654   2.048  12.107  1.5015  0.7153  0.9369
17936TIP3    H275224   3.587   1.913  12.100  0.0632  1.4995 -1.7083
17937TIP3   OH275225   1.195   3.347   4.632 -0.2371 -0.0475  0.7560
17937TIP3    H175226   1.204   3.279   4.566  1.0494 -1.0535  1.9086
17937TIP3    H275227   1.127   3.314   4.691 -0.7714  0.4515  0.4358
17938TIP3   OH275228   5.060   5.254   2.775 -0.0065 -0.4296  0.1693
17938TIP3    H175229   5.042   5.259   2.868 -0.1218  0.2625  0.1191
17938TIP3    H275230   5.133   5.192   2.767  0.5798  0.1637  0.8039
17939TIP3   OH275231   4.385   0.645   3.695 -0.6587  0.4280  0.0035
17939TIP3    H175232   4.376   0.570   3.636  3.3048 -2.6827  2.7637
17939TIP3    H275233   4.375   0.608   3.782  0.2744  3.3607  1.4753
17940TIP3   OH275234   4.062   3.290  12.224 -0.0717  0.0372 -0.3924
17940TIP3    H175235   4.111   3.293  12.142  0.6589 -0.7536  0.0009
17940TIP3    H275236   4.049   3.382  12.248  1.7961  0.2676 -0.1673
17941TIP3   OH275237   0.722   2.901  11.770 -0.1876 -0.1374  0.4787
17941TIP3    H175238   0.816   2.916  11.774 -0.0447  0.1029 -2.1393
17941TIP3    H275239   0.683   2.976  11.816  0.8690  0.8891 -0.2503
17942TIP3   OH275240   6.277   4.105   2.996  1.0300 -0.3983  0.3216
17942TIP3    H175241   6.250   4.174   2.935  3.5311  0.6638  0.2675
17942TIP3    H275242   6.272   4.025   2.944 -0.0671 -0.0050 -0.2217
17943TIP3   OH275243   4.957   5.334  13.414  0.0525 -0.1768 -0.2818
17943TIP3    H175244   4.893   5.290  13.470  0.6448 -0.2053  0.3840
17943TIP3    H275245   4.909   5.355  13.334 -1.1772  1.0485  0.7345
17944TIP3   OH275246   6.756   5.503   5.535  0.4773  0.0939  0.0580
17944TIP3    H175247   6.693   5.518   5.606  1.2743  1.2923  0.5497
17944TIP3    H275248   6.714   5.438   5.479 -0.2870 -0.7116  1.4893
17945TIP3   OH275249   2.108   0.466   2.776  0.2368 -0.2843 -0.1498
17945TIP3    H175250   2.038   0.419   2.821 -0.4834  1.0604  0.1976
17945TIP3    H275251   2.157   0.508   2.847  1.4764 -1.2845 -0.3805
17946TIP3   OH275252   5.567   5.139  13.308  0.1720 -0.0167 -0.3987
17946TIP3    H175253   5.566   5.044  13.317 -0.3695 -0.0006 -0.2082
17946TIP3    H275254   5.595   5.154  13.218  0.2095 -0.3606 -0.4451
17947TIP3   OH275255   0.211   5.686   3.270  0.2244 -0.0391 -0.3576
17947TIP3    H175256   0.127   5.716   3.306  1.3272  1.1836  1.3774
17947TIP3    H275257   0.237   5.614   3.328 -0.2789 -1.4347 -1.7937
17948TIP3   OH275258   4.383   6.749   1.996  0.4118 -0.2578  0.1694
17948TIP3    H175259   4.310   6.732   2.056  0.9556 -1.4241  0.5496
17948TIP3    H275260   4.427   6.664   1.989  0.8422  0.0601 -1.2478
17949TIP3   OH275261   5.229   3.401  13.334 -0.0651 -0.0113 -0.5214
17949TIP3    H175262   5.167   3.380  13.263 -1.3641  0.0008  0.5763
17949TIP3    H275263   5.315   3.402  13.291 -0.8354  0.1576 -2.1290
17950TIP3   OH275264   0.229   4.334   1.901  0.0037  0.3196 -0.3591
17950TIP3    H175265   0.164   4.351   1.834 -0.2995  1.9689  0.3182
17950TIP3    H275266   0.310   4.370   1.867  0.3938 -0.9426 -0.8204
17951TIP3   OH275267   3.879   6.528  14.080  0.0897  0.1936 -0.5201
17951TIP3    H175268   3.881   6.605  14.023 -0.0491 -0.7448 -1.8263
17951TIP3    H275269   3.823   6.555  14.154  0.2819  1.4335 -0.8012
17952TIP3   OH275270   0.996   1.161  15.042  0.0641 -0.5625  0.3325
17952TIP3    H175271   0.945   1.239  15.023  0.4047 -0.1510  1.0704
17952TIP3    H275272   1.085   1.192  15.053  0.6791 -1.3825 -1.7945
17953TIP3   OH275273   0.976   0.640  12.413  0.4595  0.7528 -0.3336
17953TIP3    H175274   0.907   0.607  12.470  0.9963 -0.9464 -0.6123
17953TIP3    H275275   0.940   0.721  12.377 -0.6257  0.8803  0.9555
17954TIP3   OH275276   1.466   4.471  15.823  0.2519  0.7397  0.3541
17954TIP3    H175277   1.484   4.422  15.902  0.4475  0.8475  0.3775
17954TIP3    H275278   1.413   4.412  15.769  1.8494 -0.1542 -0.3333
17955TIP3   OH275279   6.023   5.036   4.785 -0.2888 -0.0795 -0.1996
17955TIP3    H175280   6.007   4.942   4.792 -0.2220  0.0429  4.2686
17955TIP3    H275281   5.936   5.076   4.793 -0.0058  0.1711  3.1932
17956TIP3   OH275282   5.209   0.899   2.582  0.8186 -0.1443 -0.0966
17956TIP3    H175283   5.128   0.937   2.617  0.9075 -1.0926  1.2403
17956TIP3    H275284   5.271   0.904   2.655  1.7594 -0.0794 -0.8772
17957TIP3   OH275285   3.387   6.105   3.982 -0.1500  0.7779  0.3469
17957TIP3    H175286   3.446   6.146   4.045 -0.2428  0.5844  0.5613
17957TIP3    H275287   3.322   6.172   3.963 -0.3195  0.7216  0.7219
17958TIP3   OH275288   1.181   6.336  11.287  0.0624  0.0182  0.5856
17958TIP3    H175289   1.220   6.414  11.248 -0.7182 -0.6197 -1.6347
17958TIP3    H275290   1.138   6.368  11.366  0.3303  1.7290  0.0826
17959TIP3   OH275291   2.234   0.216  12.413  0.4216 -0.5213  0.6759
17959TIP3    H175292   2.199   0.250  12.496  0.1714 -0.2533  0.4606
17959TIP3    H275293   2.216   0.285  12.349  1.0927 -0.4982  0.5012
17960TIP3   OH275294   1.392   5.892   5.789  0.0431  0.2394  0.1896
17960TIP3    H175295   1.352   5.823   5.843 -0.4445  1.1172  0.9792
17960TIP3    H275296   1.332   5.904   5.716  0.7448 -1.0146 -0.6284
17961TIP3   OH275297   2.950   0.993  13.805 -0.2859  0.1045  0.0256
17961TIP3    H175298   2.876   1.021  13.751  0.1981  1.2214 -0.0841
17961TIP3    H275299   2.923   1.009  13.895 -0.2355  0.3858 -0.0083
17962TIP3   OH275300   6.457   1.642   2.464  0.0429 -0.3077 -0.6941
17962TIP3    H175301   6.383   1.695   2.494 -1.3543 -1.8626 -1.2903
17962TIP3    H275302   6.529   1.667   2.522 -0.7946  1.5655 -0.3778
17963TIP3   OH275303   0.888   2.859   4.142  0.3228 -0.2228  0.4817
17963TIP3    H175304   0.896   2.789   4.078  1.8592  0.6894 -0.3867
17963TIP3    H275305   0.848   2.818   4.219 -2.0129 -1.2503 -1.1678
17964TIP3   OH275306   4.626   5.117  17.118 -0.3787  0.2008 -0.5441
17964TIP3    H175307   4.669   5.031  17.116 -0.6601 -0.0009  0.9047
17964TIP3    H275308   4.574   5.120  17.038 -0.2060 -0.8983 -0.7112
17965TIP3   OH275309   3.224   3.840  13.820  0.0662 -0.6045  0.3864
17965TIP3    H175310   3.202   3.867  13.909 -1.8026  0.4693 -0.3644
17965TIP3    H275311   3.293   3.775  13.832  0.2945 -0.0380  2.5797
17966TIP3   OH275312   0.768   6.036  11.624 -0.0501  0.3271  0.2689
17966TIP3    H175313   0.863   6.019  11.629  0.2763  1.2312 -1.8862
17966TIP3    H275314   0.733   5.997  11.705  2.0503 -0.6645  0.7844
17967TIP3   OH275315   0.585   2.621  12.254  0.1511  0.6319  0.1368
17967TIP3    H175316   0.666   2.586  12.216  0.0585  1.9042 -1.3268
17967TIP3    H275317   0.521   2.550  12.244  1.0842 -0.4475  1.4601
17968TIP3   OH275318   4.288   6.384   1.911 -0.9416 -0.7183  0.4765
17968TIP3    H175319   4.233   6.419   1.981 -0.6732  1.8704 -0.5064
17968TIP3    H275320   4.347   6.323   1.956  0.4866  2.2349  2.9455
17969TIP3   OH275321   1.294   5.398   2.160 -0.0642 -0.2609 -0.6200
17969TIP3    H175322   1.310   5.464   2.229  0.2435 -0.9024 -0.0617
17969TIP3    H275323   1.382   5.377   2.127 -0.1935 -0.1220 -1.0491
17970TIP3   OH275324   5.863   0.938  17.391  0.3307 -0.2319  0.0991
17970TIP3    H175325   5.816   1.006  17.438 -0.5440  2.1444 -3.7788
17970TIP3    H275326   5.955   0.952  17.415  0.0750  1.7970  0.0557
17971TIP3   OH275327   5.275   2.764  13.011 -0.0667 -0.1372  0.0002
17971TIP3    H175328   5.253   2.676  12.981 -2.6730  0.3251  0.3172
17971TIP3    H275329   5.251   2.820  12.938 -1.1132  0.5223  0.8241
17972TIP3   OH275330   5.341   3.804  17.112 -0.2750 -0.0656  0.6945
17972TIP3    H175331   5.392   3.724  17.099 -1.7298 -0.8499 -0.4429
17972TIP3    H275332   5.325   3.807  17.206 -1.1306 -1.7513  0.6491
17973TIP3   OH275333   2.365   4.477   6.020 -0.4255 -0.1426  0.0668
17973TIP3    H175334   2.400   4.516   5.940  0.7869 -0.5273  0.3750
17973TIP3    H275335   2.442   4.467   6.077 -1.2696  0.1944  1.3127
17974TIP3   OH275336   4.141   6.160  12.285 -0.2717 -0.0384  0.4609
17974TIP3    H175337   4.183   6.182  12.368 -0.3860  5.4421 -0.5228
17974TIP3    H275338   4.214   6.138  12.227  0.4946  1.5595  0.7494
17975TIP3   OH275339   3.398   2.862  12.994 -0.6955 -0.3078  0.2144
17975TIP3    H175340   3.394   2.786  13.052  0.3885 -0.5467  0.0088
17975TIP3    H275341   3.489   2.890  12.999 -1.1415  1.1627  0.5012
17976TIP3   OH275342   5.179   2.118  13.792 -0.0694 -0.2193  0.0456
17976TIP3    H175343   5.127   2.146  13.868 -1.5320 -0.9550 -0.6342
17976TIP3    H275344   5.245   2.059  13.829 -0.5604 -0.3174  0.7956
17977TIP3   OH275345   4.875   4.938   4.476 -0.0034  0.1687 -0.1914
17977TIP3    H175346   4.787   4.972   4.488 -0.4589 -1.4102  1.4471
17977TIP3    H275347   4.907   4.922   4.565  1.3714 -0.6456 -0.7923
17978TIP3   OH275348   1.855   5.353  15.984 -0.0255  0.4429  0.2033
17978TIP3    H175349   1.927   5.375  16.043  0.6925 -2.3913  0.5680
17978TIP3    H275350   1.779   5.346  16.041 -0.2476  1.7146  0.0928
17979TIP3   OH275351   4.074   0.889   6.159 -0.0464 -0.2204  0.6476
17979TIP3    H175352   4.019   0.853   6.229 -0.2959  0.0888  0.6134
17979TIP3    H275353   4.146   0.932   6.204 -1.1254  1.5084  0.7979
17980TIP3   OH275354   3.057   4.180   5.659 -0.1446  0.0861 -0.5161
17980TIP3    H175355   3.019   4.097   5.632 -0.0194  0.1048 -0.7493
17980TIP3    H275356   2.986   4.243   5.650 -0.2406  0.0030 -0.3351
17981TIP3   OH275357   0.251   2.271   0.490  0.2576  0.4028 -1.3977
17981TIP3    H175358   0.263   2.355   0.444 -2.8705  1.4034 -0.6144
17981TIP3    H275359   0.183   2.226   0.440  0.4856 -0.8114 -0.6516
17982TIP3   OH275360   4.677   2.196   0.738 -0.3842  0.3029  0.2148
17982TIP3    H175361   4.635   2.279   0.717  0.7807  0.7501 -0.4618
17982TIP3    H275362   4.713   2.209   0.826  2.4592  1.7069 -1.0073
17983TIP3   OH275363   1.656   6.562  11.877  0.3172  0.2146 -0.2285
17983TIP3    H175364   1.611   6.486  11.913  2.0574 -0.0001  1.6772
17983TIP3    H275365   1.639   6.632  11.941  3.3368 -0.1283  1.1346
17984TIP3   OH275366   4.295   4.658   4.523 -0.0546 -0.1551 -0.0418
17984TIP3    H175367   4.222   4.688   4.577 -0.3999  0.2584 -0.7247
17984TIP3    H275368   4.269   4.679   4.433  1.3657  1.0037 -0.2189
17985TIP3   OH275369   6.274   2.003  11.059  0.4403  0.3039 -0.0650
17985TIP3    H175370   6.252   2.078  11.115 -1.6938  0.0405 -0.4493
17985TIP3    H275371   6.273   2.039  10.970  0.5369  0.0516 -0.1681
17986TIP3   OH275372   4.489   4.525   3.388 -0.3955 -0.2920 -0.2596
17986TIP3    H175373   4.573   4.506   3.345  0.7684  2.2125  0.7348
17986TIP3    H275374   4.424   4.491   3.327  1.2851 -0.1190 -2.2974
17987TIP3   OH275375   6.596   3.875   0.883  0.0691  0.0441 -0.2705
17987TIP3    H175376   6.570   3.912   0.798 -2.3204  2.6003  1.4231
17987TIP3    H275377   6.651   3.941   0.923  1.4409 -1.2824  0.1336
17988TIP3   OH275378   5.716   1.787  12.443  0.0687  0.1692  0.1857
17988TIP3    H175379   5.771   1.713  12.417 -0.7778 -1.2053  2.0383
17988TIP3    H275380   5.691   1.829  12.361 -1.4366 -3.0962 -1.1977
17989TIP3   OH275381   5.930   5.636   5.961 -0.1465 -0.4227  0.3794
17989TIP3    H175382   5.985   5.714   5.973  1.5123 -1.1237 -1.9492
17989TIP3    H275383   5.843   5.664   5.988  0.2915  2.4404 -0.8253
17990TIP3   OH275384   6.084   3.502   5.461 -0.6041 -0.0036  0.3005
17990TIP3    H175385   6.154   3.438   5.447 -1.2308 -0.6037 -0.2183
17990TIP3    H275386   6.089   3.523   5.554 -1.1480 -1.7649  0.7810
17991TIP3   OH275387   4.169   0.707  16.282  0.4456  0.2125 -0.2891
17991TIP3    H175388   4.190   0.746  16.366 -1.9198 -1.1632  1.0567
17991TIP3    H275389   4.229   0.633  16.274  1.5696  1.1184 -0.4974
17992TIP3   OH275390   3.853   4.396   2.932  0.2535  0.5870 -0.0062
17992TIP3    H175391   3.777   4.360   2.887  1.1955  0.5760 -1.6474
17992TIP3    H275392   3.829   4.393   3.025 -1.5468  0.1551 -0.4454
17993TIP3   OH275393   3.603   0.269   5.124 -0.0761  0.6884  0.0668
17993TIP3    H175394   3.694   0.269   5.094 -0.4884  0.1723 -1.2527
17993TIP3    H275395   3.559   0.206   5.067 -0.9783 -0.1281  1.5954
17994TIP3   OH275396   0.716   4.276  14.676  0.1312 -0.2331  0.0848
17994TIP3    H175397   0.727   4.317  14.590 -0.3139  0.7730  0.4869
17994TIP3    H275398   0.762   4.334  14.737  0.6866 -1.0843  0.5072
17995TIP3   OH275399   3.955   4.078  15.557  0.2359 -0.2181 -0.7170
17995TIP3    H175400   4.015   4.145  15.524  0.9395  0.2728  1.4306
17995TIP3    H275401   4.004   3.996  15.551  2.3369  0.4714  3.3687
17996TIP3   OH275402   2.030   0.256  11.484  0.7697 -0.4989  0.3737
17996TIP3    H175403   2.011   0.163  11.473  1.7241 -0.4915 -1.7841
17996TIP3    H275404   2.038   0.290  11.395  1.4289  1.4523  1.1202
17997TIP3   OH275405   4.590   3.404  14.056  0.0216  0.2205  0.2886
17997TIP3    H175406   4.511   3.459  14.052  0.7629  1.3587  0.5411
17997TIP3    H275407   4.571   3.339  14.124 -1.4592 -0.8222 -1.0661
17998TIP3   OH275408   1.982   4.017   2.768  0.3916  0.4338 -0.5349
17998TIP3    H175409   2.017   3.957   2.702  0.1974  1.3614 -1.5090
17998TIP3    H275410   1.927   4.077   2.718 -0.7751  0.3889  0.6553
17999TIP3   OH275411   0.047   5.482   3.815 -0.6075  0.0048  0.1426
17999TIP3    H175412  -0.022   5.417   3.806 -0.8330  0.3091 -0.3947
17999TIP3    H275413   0.124   5.432   3.844 -0.2459 -0.8446 -2.0868
18000TIP3   OH275414   6.267   2.701   3.480 -0.0109  0.2806  0.9931
18000TIP3    H175415   6.174   2.696   3.458  0.2659 -1.1703 -0.0027
18000TIP3    H275416   6.305   2.754   3.411  0.2309 -1.0186  0.0870
18001TIP3   OH275417   3.162   4.135   4.168  0.6328 -0.4343  0.1566
18001TIP3    H175418   3.153   4.051   4.123 -0.2741 -1.3363  1.9180
18001TIP3    H275419   3.073   4.159   4.192  1.0423  0.2269  1.0706
18002TIP3   OH275420   2.050   6.706   2.788  0.4841  0.3146 -0.0916
18002TIP3    H175421   1.982   6.653   2.745  1.2398  0.4603 -1.5293
18002TIP3    H275422   2.096   6.749   2.716  0.4524  2.2813  0.9937
18003TIP3   OH275423   0.917   1.806  12.951  0.1891  0.1844  0.0108
18003TIP3    H175424   0.828   1.820  12.983 -0.0435  0.7510 -0.8352
18003TIP3    H275425   0.907   1.741  12.881  0.5478 -0.2871  0.3890
18004TIP3   OH275426   3.193   2.863   4.683 -0.1426 -0.0864 -0.3033
18004TIP3    H175427   3.164   2.793   4.743 -0.2555  1.7351  1.9145
18004TIP3    H275428   3.283   2.881   4.709  0.1393  0.0975 -1.3776
18005TIP3   OH275429   4.738   1.459   0.379  0.4561  0.4753  0.3011
18005TIP3    H175430   4.731   1.500   0.293 -0.3377  0.6939  0.4591
18005TIP3    H275431   4.687   1.516   0.437 -1.3501 -1.1270  0.3835
18006TIP3   OH275432   5.925   1.015   5.617  0.0584 -0.7410 -0.8926
18006TIP3    H175433   5.922   1.105   5.585  0.3969 -0.8483 -1.2300
18006TIP3    H275434   6.003   0.978   5.577  1.2656 -0.4767  1.0885
18007TIP3   OH275435   3.220   5.244  11.952  0.2006 -0.1626  0.3909
18007TIP3    H175436   3.229   5.259  11.857 -0.2521  0.5364  0.4464
18007TIP3    H275437   3.264   5.161  11.968  0.8307  0.0169 -0.3386
18008TIP3   OH275438   2.845   3.615   6.561  0.6220  0.0578  0.1363
18008TIP3    H175439   2.877   3.560   6.633 -0.5133  2.2989  2.5437
18008TIP3    H275440   2.749   3.609   6.567  0.5008  1.1817 -0.4599
18009TIP3   OH275441   5.233   4.777   0.497 -0.1283  0.4320  0.8166
18009TIP3    H175442   5.148   4.791   0.540  0.4198  0.2481  1.9947
18009TIP3    H275443   5.291   4.748   0.568  0.8436  0.2639 -0.0326
18010TIP3   OH275444   1.669   2.131  12.988  0.0450 -0.5020  0.2245
18010TIP3    H175445   1.640   2.042  13.007 -0.2052 -0.3861  0.3799
18010TIP3    H275446   1.589   2.180  12.969  0.1668 -0.2736  0.2918
18011TIP3   OH275447   6.115   0.834   4.330 -0.1198  0.4692  0.1168
18011TIP3    H175448   6.066   0.807   4.408  0.9020  1.5380  1.1656
18011TIP3    H275449   6.051   0.878   4.275 -1.5955 -2.9169 -1.1549
18012TIP3   OH275450   6.074   6.406   3.589 -0.1261  0.3379 -0.1365
18012TIP3    H175451   6.164   6.374   3.581 -0.2987 -0.3541  0.5573
18012TIP3    H275452   6.022   6.341   3.543 -0.2822  0.6807 -0.4433
18013TIP3   OH275453   1.807   2.615  14.165 -0.1873  0.9168 -0.7537
18013TIP3    H175454   1.723   2.647  14.132 -2.8802 -1.2089  3.1895
18013TIP3    H275455   1.818   2.529  14.123 -1.5233 -0.0099  0.6756
18014TIP3   OH275456   2.151   3.257   3.024  0.4285  0.2358  0.3702
18014TIP3    H175457   2.197   3.338   3.002 -1.6708  2.0876  2.2834
18014TIP3    H275458   2.085   3.247   2.955 -0.4802  1.2075  1.0682
18015TIP3   OH275459   5.984   0.008   1.218 -0.2999  0.6603 -0.2694
18015TIP3    H175460   5.909   0.068   1.227 -0.1007  0.9339 -0.4313
18015TIP3    H275461   5.997  -0.027   1.306 -1.9463 -0.9992 -0.6255
18016TIP3   OH275462   5.664   5.398   5.676  0.6098  0.3754  0.0452
18016TIP3    H175463   5.576   5.414   5.642  0.2346 -0.7051  0.4681
18016TIP3    H275464   5.717   5.467   5.637  0.0603 -0.3726 -2.1919
18017TIP3   OH275465   1.743   0.741  12.899 -0.3558 -1.1439  0.2687
18017TIP3    H175466   1.790   0.781  12.827 -2.1350  2.7944  1.0428
18017TIP3    H275467   1.657   0.718  12.862 -0.8272 -0.2719  0.7926
18018TIP3   OH275468   2.047   3.186  11.596  0.3587 -0.1797 -0.1509
18018TIP3    H175469   2.091   3.141  11.668  1.5173  0.0616 -0.6705
18018TIP3    H275470   1.972   3.229  11.636 -0.7608 -2.4859  0.3727
18019TIP3   OH275471   5.605   0.693   2.596 -0.6107  0.4706  0.8464
18019TIP3    H175472   5.532   0.680   2.657 -0.6671  0.1341  0.7071
18019TIP3    H275473   5.675   0.729   2.651 -0.2970 -0.8453  1.3453
18020TIP3   OH275474   6.162   4.364   2.882  0.4458  0.2298 -0.5091
18020TIP3    H175475   6.078   4.319   2.876  0.6616 -0.3478  0.5525
18020TIP3    H275476   6.152   4.425   2.956  1.3078 -0.6787  0.4022
18021TIP3   OH275477   0.535   5.669  15.506  0.2033  0.3763 -0.3993
18021TIP3    H175478   0.472   5.685  15.435  1.2704  0.7882 -1.2878
18021TIP3    H275479   0.614   5.715  15.478  0.5661  0.7920  1.2194
18022TIP3   OH275480   5.976   5.765   2.726 -0.6505 -0.2391  0.3873
18022TIP3    H175481   5.963   5.829   2.656  0.9181  0.0727  0.3357
18022TIP3    H275482   5.955   5.681   2.686 -0.9040  0.0513 -0.0986
18023TIP3   OH275483   5.058   2.081  11.682 -0.3209  0.0072 -0.1556
18023TIP3    H175484   4.980   2.027  11.695 -0.0452 -0.4325 -0.3156
18023TIP3    H275485   5.024   2.169  11.665 -0.7776 -0.1701 -0.1597
18024TIP3   OH275486   3.230   3.951   3.178 -0.1915  0.3168  0.0420
18024TIP3    H175487   3.153   3.903   3.149  0.3583 -0.3933 -0.2841
18024TIP3    H275488   3.197   4.015   3.240 -1.2998  1.3338 -1.5314
18025TIP3   OH275489   5.432   2.802   4.007 -0.2039  0.6001  0.4947
18025TIP3    H175490   5.457   2.773   4.095 -0.9047 -0.7854  0.2561
18025TIP3    H275491   5.389   2.727   3.968  0.1417  1.1790 -1.0744
18026TIP3   OH275492   3.200   2.535   0.338  0.0476 -0.1329 -0.3044
18026TIP3    H175493   3.261   2.598   0.299  1.0073 -0.4785  0.5772
18026TIP3    H275494   3.121   2.541   0.284  0.1375  1.7513 -0.3052
18027TIP3   OH275495   4.823   6.269  11.904 -0.0806  0.1441  0.2682
18027TIP3    H175496   4.912   6.234  11.906 -0.1038 -0.1513 -1.8673
18027TIP3    H275497   4.791   6.257  11.994  0.6957 -3.3026  0.2396
18028TIP3   OH275498   5.812   2.968   0.766 -0.1795  0.3684 -0.0013
18028TIP3    H175499   5.860   2.891   0.735  0.1510  0.6392 -0.1704
18028TIP3    H275500   5.873   3.041   0.756 -0.8387  0.8283 -0.8339
18029TIP3   OH275501   5.189   6.539   1.777 -0.3941  0.0023 -0.1152
18029TIP3    H175502   5.282   6.517   1.776  0.1384  2.0034 -0.3073
18029TIP3    H275503   5.155   6.502   1.696  1.0238  2.0509 -1.7669
18030TIP3   OH275504   1.462   3.493   4.395  0.0104  0.5044  0.0860
18030TIP3    H175505   1.428   3.444   4.320  0.8402  0.7203 -0.4540
18030TIP3    H275506   1.400   3.476   4.465 -0.9716  0.5645 -0.7429
18031TIP3   OH275507   1.492   4.120   1.422  0.2050  0.5684  0.6057
18031TIP3    H175508   1.582   4.088   1.427 -0.4722 -1.4553  0.6730
18031TIP3    H275509   1.483   4.155   1.333  0.4759 -1.1542 -0.1256
18032TIP3   OH275510   0.598   1.811  12.865 -0.1990 -0.2389  0.1593
18032TIP3    H175511   0.588   1.888  12.808 -0.6048 -0.1899  0.2936
18032TIP3    H275512   0.608   1.738  12.804 -0.3644 -0.1516  0.0233
18033TIP3   OH275513   3.829   3.130  12.180  0.3953  0.0674 -0.3878
18033TIP3    H175514   3.757   3.185  12.149  0.1936  0.1994  0.2873
18033TIP3    H275515   3.871   3.181  12.249 -0.2735 -0.8946  0.7874
18034TIP3   OH275516   5.210   3.572   5.251  0.3422 -0.3017  1.0183
18034TIP3    H175517   5.296   3.608   5.272  1.2517 -1.4355 -0.5475
18034TIP3    H275518   5.164   3.643   5.207  0.9711 -0.0809  0.7093
18035TIP3   OH275519   0.827   6.009  16.023  0.3255 -0.2503  0.3077
18035TIP3    H175520   0.894   5.943  16.041  1.0940  0.9115  2.0012
18035TIP3    H275521   0.863   6.090  16.060 -1.7282  0.5579  0.6319
18036TIP3   OH275522   2.821   5.813   1.999 -0.6976 -0.5478 -0.0393
18036TIP3    H175523   2.787   5.753   2.065 -1.1286 -0.4406 -0.1605
18036TIP3    H275524   2.881   5.870   2.046  0.6724 -1.8566 -0.1466
18037TIP3   OH275525   2.760   2.545   5.630  0.0750 -0.1829  0.2903
18037TIP3    H175526   2.774   2.623   5.684 -1.0450  0.6131 -0.5129
18037TIP3    H275527   2.781   2.472   5.688  1.9917  0.6994  0.8198
18038TIP3   OH275528   5.334   2.057   5.841 -0.7830 -0.3285 -0.0788
18038TIP3    H175529   5.239   2.047   5.840 -0.7713 -0.7572  1.1068
18038TIP3    H275530   5.367   1.968   5.826 -0.6045 -0.5384  1.3892
18039TIP3   OH275531   1.148   3.933  16.008 -0.5384 -0.7437  0.3423
18039TIP3    H175532   1.066   3.902  16.047 -0.7516  0.3888  0.8089
18039TIP3    H275533   1.130   3.936  15.914 -0.5615 -1.8577  0.2958
18040TIP3   OH275534   5.582   3.539   0.180  0.5390 -0.9079 -0.1110
18040TIP3    H175535   5.538   3.615   0.142  0.5351  0.1089  1.7750
18040TIP3    H275536   5.573   3.470   0.114 -1.4755  0.0536 -0.9330
18041TIP3   OH275537   1.611   4.553   1.825  0.2405 -0.2348 -0.0047
18041TIP3    H175538   1.530   4.534   1.873  0.1124 -1.0350 -0.5238
18041TIP3    H275539   1.610   4.493   1.751  1.6499 -0.7551  0.3580
18042TIP3   OH275540   1.224   2.835   4.409  0.9195 -0.1980 -0.1875
18042TIP3    H175541   1.304   2.783   4.401 -1.3889 -3.8268 -2.3938
18042TIP3    H275542   1.217   2.881   4.325  0.0444 -1.0139 -0.5748
18043TIP3   OH275543   6.465   5.771  14.243  0.5299  0.0084 -0.4799
18043TIP3    H175544   6.539   5.828  14.263  0.9236 -0.6911  0.0830
18043TIP3    H275545   6.491   5.685  14.275 -1.1878  0.0754  1.2897
18044TIP3   OH275546   3.958   1.649   2.883  0.1093 -0.2362  0.1783
18044TIP3    H175547   3.907   1.632   2.804 -1.7940  3.3348  0.4083
18044TIP3    H275548   3.907   1.610   2.954  1.8803 -3.5521 -0.1822
18045TIP3   OH275549   3.078   4.504  13.824  0.4376  0.1394 -0.0784
18045TIP3    H175550   3.023   4.486  13.749  0.3447  0.2035 -0.0251
18045TIP3    H275551   3.105   4.595  13.814  0.6935  0.0518 -0.2077
18046TIP3   OH275552   0.674   6.634  14.064 -0.5940  0.5539 -0.0270
18046TIP3    H175553   0.758   6.669  14.093 -0.0270 -0.2075 -0.6871
18046TIP3    H275554   0.616   6.709  14.063 -0.2469  0.8823  1.5678
18047TIP3   OH275555   6.260   3.178  15.742 -0.3172 -0.0507 -0.1673
18047TIP3    H175556   6.218   3.208  15.822  3.2109  0.3503  1.7486
18047TIP3    H275557   6.239   3.085  15.737 -3.0583  0.5074 -0.5748
18048TIP3   OH275558   6.614   0.757   6.034  0.0642  0.0952  0.1187
18048TIP3    H175559   6.670   0.741   6.110  1.8250  0.4820 -1.0308
18048TIP3    H275560   6.605   0.853   6.031  2.7908  0.3878 -1.9716
18049TIP3   OH275561   1.467   3.829  15.869 -0.0001 -0.0813 -0.3121
18049TIP3    H175562   1.428   3.872  15.945 -0.4067  0.6203 -0.8957
18049TIP3    H275563   1.561   3.831  15.885 -0.0584  0.4425 -0.0172
18050TIP3   OH275564   3.845   4.715   4.916  0.0960 -0.0439  0.1595
18050TIP3    H175565   3.884   4.795   4.951  1.3079 -1.0205  1.1531
18050TIP3    H275566   3.777   4.745   4.856  2.1030  1.7833 -1.3685
18051TIP3   OH275567   1.959   5.536  16.165 -0.3611 -0.0629  0.7444
18051TIP3    H175568   1.879   5.570  16.125  0.9008  0.5756 -1.4321
18051TIP3    H275569   1.992   5.608  16.218 -0.2307  0.4133  0.0421
18052TIP3   OH275570   0.094   5.655  10.602 -0.3265  0.1948 -0.3339
18052TIP3    H175571   0.104   5.597  10.677 -0.3527  1.2134  0.4726
18052TIP3    H275572   0.001   5.647  10.579 -0.4418  0.2835  0.0863
18053TIP3   OH275573   3.966   0.039  16.358  0.3151  0.1728 -0.3205
18053TIP3    H175574   3.881   0.008  16.325 -0.3395 -0.1786  1.5631
18053TIP3    H275575   3.945   0.089  16.437  1.9445 -1.7957  1.5133
18054TIP3   OH275576   4.450   0.229  11.260  0.1567  0.7154  0.0426
18054TIP3    H175577   4.491   0.149  11.292  0.5493  0.8684 -0.0816
18054TIP3    H275578   4.381   0.198  11.201  0.9173  0.4843 -0.7432
18055TIP3   OH275579   1.647   5.924   1.629 -0.4364  0.5242  0.4373
18055TIP3    H175580   1.606   5.837   1.627 -0.0588  0.3291 -2.1178
18055TIP3    H275581   1.740   5.907   1.612 -0.2794  1.3900  0.3914
18056TIP3   OH275582   1.062   5.496   6.604 -0.6500 -0.5133 -0.2642
18056TIP3    H175583   1.146   5.541   6.595 -0.3647 -0.4994  1.9833
18056TIP3    H275584   1.074   5.414   6.558 -0.1482  0.3832 -1.8027
18057TIP3   OH275585   0.787   5.417   6.636 -0.6753 -0.4262  0.0803
18057TIP3    H175586   0.879   5.437   6.615 -0.9017  0.4428 -0.1504
18057TIP3    H275587   0.779   5.437   6.729 -1.4779  3.1378 -0.5962
18058TIP3   OH275588   0.788   4.068   4.475  0.3070 -0.3418  0.1909
18058TIP3    H175589   0.866   4.078   4.421 -0.5341  0.6492 -0.9083
18058TIP3    H275590   0.798   3.982   4.517  1.8112 -0.3678 -0.1786
18059TIP3   OH275591   4.818   1.326   5.484  0.6889 -0.2802 -0.0250
18059TIP3    H175592   4.773   1.254   5.529  1.5277 -0.5788  0.3681
18059TIP3    H275593   4.901   1.287   5.455  0.2400 -0.0520 -1.7014
18060TIP3   OH275594   6.544   6.297   4.631 -0.2724 -0.2163  0.5309
18060TIP3    H175595   6.553   6.363   4.563 -2.9539  0.4748  0.7292
18060TIP3    H275596   6.626   6.247   4.628  0.8174  1.5543 -1.2649
18061TIP3   OH275597   3.324   1.219  11.860 -0.3948 -0.0213 -0.0409
18061TIP3    H175598   3.255   1.180  11.806  0.4241 -0.6214 -0.6733
18061TIP3    H275599   3.406   1.186  11.823  0.2785  1.3405  0.1784
18062TIP3   OH275600   3.046   2.968   4.491 -0.3220  0.2301 -0.2481
18062TIP3    H175601   3.009   3.047   4.532 -3.1316 -0.8880 -0.3742
18062TIP3    H275602   3.101   2.929   4.558  1.0669  2.2030 -0.1562
18063TIP3   OH275603   4.015   0.068   1.414  0.6641 -0.5282  0.2165
18063TIP3    H175604   4.084   0.124   1.380  0.7631 -1.8111 -1.8851
18063TIP3    H275605   3.938   0.089   1.360  0.2379 -1.1852  0.5546
18064TIP3   OH275606   6.726   0.405  14.059  0.3753  0.2460  0.2599
18064TIP3    H175607   6.713   0.445  14.145 -2.7475 -1.7236  0.8519
18064TIP3    H275608   6.642   0.414  14.015 -0.0566 -3.8868 -0.1856
18065TIP3   OH275609   3.798   4.641  13.956 -0.7589 -0.2082 -0.0293
18065TIP3    H175610   3.859   4.592  14.012 -0.2441 -0.0361 -0.4255
18065TIP3    H275611   3.738   4.684  14.017  0.8249  1.3780  0.5240
18066TIP3   OH275612   5.599   3.642  11.665 -0.4655  0.0700  0.1394
18066TIP3    H175613   5.683   3.682  11.687  0.3555 -2.1148  1.2451
18066TIP3    H275614   5.598   3.638  11.569  0.6939  0.1077  0.1172
18067TIP3   OH275615   3.217   5.553   0.509 -0.1387  0.2676 -0.1787
18067TIP3    H175616   3.130   5.578   0.477 -0.1366  1.2101  0.5086
18067TIP3    H275617   3.277   5.582   0.440 -0.0381  3.2082  0.9938
18068TIP3   OH275618   3.250   4.755  15.827  0.0076  0.0135  0.1628
18068TIP3    H175619   3.262   4.682  15.887  0.6061 -0.4281 -0.4881
18068TIP3    H275620   3.324   4.750  15.766 -0.6320  0.3875 -0.6765
18069TIP3   OH275621   6.345   2.709  11.902  0.0149 -0.1263  0.1526
18069TIP3    H175622   6.302   2.697  11.817 -2.2330 -0.4997  1.2525
18069TIP3    H275623   6.390   2.627  11.918  0.1911 -0.1697 -0.5417
18070TIP3   OH275624   3.710   4.207   2.429  0.1234 -0.2100 -0.0343
18070TIP3    H175625   3.652   4.258   2.373  0.8164  0.1111 -0.4734
18070TIP3    H275626   3.675   4.118   2.425 -1.1152  0.2150  0.7612
18071TIP3   OH275627   0.396   2.633  16.373  0.1556 -0.0900 -0.5047
18071TIP3    H175628   0.467   2.695  16.358  1.2350 -1.1813  0.0192
18071TIP3    H275629   0.323   2.668  16.320 -0.2278  3.1611  1.8667
18072TIP3   OH275630   2.645   0.104  14.530  0.9485 -0.5454 -0.0462
18072TIP3    H175631   2.576   0.132  14.470 -0.4588 -0.2613  1.5963
18072TIP3    H275632   2.705   0.179  14.534 -0.1860  0.3679  0.6227
18073TIP3   OH275633   3.437   3.006  14.254  0.0349 -0.5540  0.4606
18073TIP3    H175634   3.403   3.002  14.165  0.8383 -0.2924  0.1323
18073TIP3    H275635   3.500   3.078  14.253  0.6800 -1.0891  1.0100
18074TIP3   OH275636   1.855   6.460  12.551  0.1985  0.1344  0.3379
18074TIP3    H175637   1.776   6.413  12.577  1.0695 -1.5868  0.0157
18074TIP3    H275638   1.828   6.552  12.550 -2.0215 -0.4417 -0.5371
18075TIP3   OH275639   2.887   4.532   1.350  0.6761 -0.3644  0.0797
18075TIP3    H175640   2.946   4.479   1.297  0.3481 -0.1026 -0.5592
18075TIP3    H275641   2.913   4.515   1.440  2.6426  0.7873 -0.2212
18076TIP3   OH275642   4.600   0.567  15.087 -0.0312 -0.0136  0.1471
18076TIP3    H175643   4.569   0.579  14.998 -0.8962 -0.8413  0.3127
18076TIP3    H275644   4.652   0.645  15.106 -0.5139  0.5470 -0.7911
18077TIP3   OH275645   5.785   6.368  11.406  0.1013 -0.3312  0.1526
18077TIP3    H175646   5.802   6.438  11.343  0.9066 -0.1419  0.5802
18077TIP3    H275647   5.779   6.288  11.352  1.8028 -0.3287 -0.0739
18078TIP3   OH275648   3.493   0.951  16.023 -0.1780  0.2187 -0.1446
18078TIP3    H175649   3.572   0.910  16.059 -1.0056 -1.2338  0.0831
18078TIP3    H275650   3.498   1.042  16.051  0.1538 -0.4242  2.0761
18079TIP3   OH275651   5.827   4.480   2.123  0.3273  0.4492 -0.2965
18079TIP3    H175652   5.766   4.444   2.187 -0.9522  3.1801  0.1418
18079TIP3    H275653   5.906   4.500   2.173  0.3467  0.0200 -0.1543
18080TIP3   OH275654   6.173   3.415  14.694  0.2399  0.2438 -0.5771
18080TIP3    H175655   6.180   3.396  14.601  1.4391  1.0524 -0.6878
18080TIP3    H275656   6.111   3.351  14.728  0.4612 -0.6377 -1.7684
18081TIP3   OH275657   1.986   6.352  12.254 -0.0175 -0.1228 -0.3360
18081TIP3    H175658   1.994   6.343  12.349 -2.0043 -1.1764 -0.2226
18081TIP3    H275659   1.969   6.444  12.240  1.5736  0.2912  0.1769
18082TIP3   OH275660   2.932   1.310  16.402  0.2282 -0.4190 -0.6649
18082TIP3    H175661   2.948   1.366  16.478 -1.9366 -1.0629  0.3496
18082TIP3    H275662   3.006   1.250  16.400  0.8668  0.3144  0.2717
18083TIP3   OH275663   2.219   4.496  13.632  0.2787  0.5549 -0.2075
18083TIP3    H175664   2.138   4.499  13.682  0.9783  1.6123  0.9260
18083TIP3    H275665   2.209   4.561  13.563 -0.7531 -1.0205 -1.6229
18084TIP3   OH275666   6.067   3.743   3.562  0.8418 -0.4588 -0.5160
18084TIP3    H175667   6.149   3.773   3.523  0.3924 -1.5354 -2.4470
18084TIP3    H275668   6.094   3.680   3.629  1.6337 -1.7016 -1.9294
18085TIP3   OH275669   0.596   6.651   6.313  0.0245  0.5335  0.0320
18085TIP3    H175670   0.502   6.668   6.327  0.3869  1.7612  1.2294
18085TIP3    H275671   0.638   6.689   6.390  1.5326  0.2102 -0.6115
18086TIP3   OH275672   1.114   2.429   3.327 -0.2855 -0.0632  0.4070
18086TIP3    H175673   1.148   2.385   3.250  0.4747 -0.8084  1.1419
18086TIP3    H275674   1.054   2.495   3.293 -0.7636 -1.0668 -0.7648
18087TIP3   OH275675   3.904   3.992   2.918  0.3901 -0.0545  0.1324
18087TIP3    H175676   3.996   3.969   2.925 -0.2016 -2.4567  0.8949
18087TIP3    H275677   3.873   3.946   2.839 -0.1801  0.7035 -0.1045
18088TIP3   OH275678   1.252   1.912  16.455  0.1591  0.1379  0.2003
18088TIP3    H175679   1.289   1.966  16.385 -0.7362  0.6671  0.1054
18088TIP3    H275680   1.205   1.975  16.510 -0.0756 -0.4235  0.6457
18089TIP3   OH275681   5.965   0.384  16.725  0.3311 -0.1759  0.1621
18089TIP3    H175682   5.898   0.324  16.758 -1.6711  1.1294 -1.2954
18089TIP3    H275683   5.947   0.390  16.631  1.2614  1.7434  0.0675
18090TIP3   OH275684   4.633   5.733  11.348  0.5620 -0.4704  0.0654
18090TIP3    H175685   4.656   5.689  11.266  0.5397  0.8601 -0.6827
18090TIP3    H275686   4.606   5.820  11.322 -0.5592 -0.3837  1.3995
18091TIP3   OH275687   2.631   5.335  15.861  0.1892  0.2709 -0.3776
18091TIP3    H175688   2.555   5.296  15.817  0.0508  0.5557 -0.3950
18091TIP3    H275689   2.639   5.422  15.822  0.2376  0.4170 -0.0426
18092TIP3   OH275690   1.961   3.108   0.035 -0.8461  0.3856  0.7327
18092TIP3    H175691   2.032   3.048   0.014 -0.4497  1.0076  0.2295
18092TIP3    H275692   2.006   3.187   0.066 -1.3325  0.6519  0.7693
18093TIP3   OH275693   5.879   4.275   4.669  1.0177 -0.1021  0.2207
18093TIP3    H175694   5.902   4.203   4.729  0.7347 -1.2463 -0.9987
18093TIP3    H275695   5.863   4.349   4.727  2.6543 -0.6358  1.4485
18094TIP3   OH275696   0.586   3.216  11.148 -0.1756 -0.4844  0.4116
18094TIP3    H175697   0.523   3.260  11.091 -0.1691  1.5996  1.8615
18094TIP3    H275698   0.632   3.154  11.091 -2.5226 -1.0409 -0.9937
18095TIP3   OH275699   3.496   4.518  16.917 -0.5959  0.3401 -0.5175
18095TIP3    H175700   3.501   4.422  16.916 -2.9185  0.0965  1.5460
18095TIP3    H275701   3.538   4.543  17.000 -1.1605  0.9945 -0.4231
18096TIP3   OH275702   2.130   1.088  10.400 -0.4974  0.6473  0.0069
18096TIP3    H175703   2.146   1.128  10.314 -1.5423 -0.3124 -0.6607
18096TIP3    H275704   2.036   1.070  10.401 -0.4530  0.4101  1.2659
18097TIP3   OH275705   0.095   5.328   3.301  0.1638  0.0696  0.0453
18097TIP3    H175706   0.039   5.338   3.378  1.2839  0.7219  0.7965
18097TIP3    H275707   0.178   5.294   3.335  0.7247  0.5040 -0.8478
18098TIP3   OH275708   3.345   6.279   1.721 -0.1861 -0.3958  0.1062
18098TIP3    H175709   3.314   6.192   1.696 -0.6797  0.0133 -0.7635
18098TIP3    H275710   3.266   6.327   1.746  0.1315 -0.3134  0.9989
18099TIP3   OH275711   6.488   2.098   1.743 -0.0071 -0.2539  0.2782
18099TIP3    H175712   6.506   2.191   1.752 -0.6874 -0.1449  0.5861
18099TIP3    H275713   6.556   2.055   1.796 -0.1871  0.1076  0.8114
18100TIP3   OH275714   4.843   5.962   4.194  0.1625  0.2051  0.6349
18100TIP3    H175715   4.900   5.902   4.242  0.5103  0.4679  0.5503
18100TIP3    H275716   4.799   5.906   4.129 -0.7600 -0.2688  1.6347
18101TIP3   OH275717   6.036   0.838  10.915 -0.2711  0.2608 -0.2837
18101TIP3    H175718   6.049   0.743  10.923 -0.5918  0.3113  1.1957
18101TIP3    H275719   5.982   0.848  10.837 -0.6759 -0.8272 -0.1666
18102TIP3   OH275720   0.536   2.095   4.598 -0.0013  0.4304 -0.2229
18102TIP3    H175721   0.610   2.100   4.536 -0.1765 -0.5436 -0.5356
18102TIP3    H275722   0.529   2.001   4.618 -1.2240  0.4957 -0.2882
18103TIP3   OH275723   5.823   6.276  14.349  0.1453  0.2824 -0.4966
18103TIP3    H175724   5.863   6.350  14.303 -0.2633  0.3908 -0.6822
18103TIP3    H275725   5.881   6.260  14.424  0.4279  0.5633 -0.6528
18104TIP3   OH275726   6.213   5.103  16.818 -0.4276  0.8122 -0.0169
18104TIP3    H175727   6.307   5.114  16.811 -0.1422  0.2297  2.1445
18104TIP3    H275728   6.198   5.009  16.806 -0.4831  0.6062  1.4801
18105TIP3   OH275729   3.054   0.027  14.908  0.6576  0.5521  0.5035
18105TIP3    H175730   2.991  -0.034  14.948  1.7308 -1.5488 -0.8382
18105TIP3    H275731   3.075   0.089  14.978 -0.8749 -0.3006  1.7901
18106TIP3   OH275732   1.991   4.795   2.182 -0.0604  0.2545 -0.0143
18106TIP3    H175733   2.086   4.800   2.192  0.1548  0.8325 -1.9262
18106TIP3    H275734   1.974   4.702   2.166  0.3212  0.2957 -0.7057
18107TIP3   OH275735   4.000   2.237   5.327  0.1701 -0.2035  0.2892
18107TIP3    H175736   3.965   2.233   5.239  1.4829  1.2904 -0.3458
18107TIP3    H275737   3.923   2.252   5.383 -0.5548 -0.1065 -0.7065
18108TIP3   OH275738   4.186   3.625  15.494 -0.6601  0.0772 -0.2810
18108TIP3    H175739   4.213   3.624  15.586  0.0902  0.0362 -0.4977
18108TIP3    H275740   4.090   3.635  15.497 -0.8615 -1.6911  0.5324
18109TIP3   OH275741   2.237   4.493   2.164  0.2775 -0.4514  0.2773
18109TIP3    H175742   2.257   4.473   2.255  1.7759 -1.1545 -0.1712
18109TIP3    H275743   2.253   4.411   2.117  0.5022  0.1608 -0.7517
18110TIP3   OH275744   1.347   1.568   2.449 -0.2409 -0.1277  0.2854
18110TIP3    H175745   1.352   1.614   2.365 -0.9480  0.7201  0.7042
18110TIP3    H275746   1.253   1.557   2.465 -0.1082 -0.3104  0.9557
18111TIP3   OH275747   1.018   5.208  15.376 -0.2434 -0.0180 -0.0131
18111TIP3    H175748   0.975   5.191  15.460  1.3336 -2.7246  0.3743
18111TIP3    H275749   0.958   5.173  15.310 -0.9176  0.9718  0.0530
18112TIP3   OH275750   5.741   5.290   0.422 -0.1217 -0.3452 -0.7701
18112TIP3    H175751   5.818   5.303   0.478 -1.1316  0.8477  0.4154
18112TIP3    H275752   5.718   5.198   0.433  1.4366 -0.8588 -1.5753
18113TIP3   OH275753   2.801   0.763   3.616 -0.0259  0.3329  0.7346
18113TIP3    H175754   2.865   0.698   3.646  1.0407 -0.5172 -2.9553
18113TIP3    H275755   2.716   0.719   3.628  0.5867 -1.2964 -0.5012
18114TIP3   OH275756   1.746   3.795  12.681 -0.1585  0.2173  0.3166
18114TIP3    H175757   1.767   3.886  12.702  0.0154  0.4430 -0.7664
18114TIP3    H275758   1.651   3.789  12.692 -0.1213  0.4165  0.7773
18115TIP3   OH275759   3.080   4.089  16.191  0.2929  0.0879 -0.0982
18115TIP3    H175760   3.155   4.057  16.140  0.7323  1.0147 -0.0488
18115TIP3    H275761   3.053   4.168  16.145 -0.6461 -0.2275 -0.0993
18116TIP3   OH275762   6.228   1.673  15.597  0.4711 -0.0403  0.0577
18116TIP3    H175763   6.212   1.750  15.652 -0.5019 -0.0331 -0.2145
18116TIP3    H275764   6.142   1.648  15.565  1.1050  0.6763 -2.4455
18117TIP3   OH275765   6.123   2.241   6.609  0.0475  0.4806  0.0418
18117TIP3    H175766   6.173   2.292   6.672 -0.1901  0.6980  0.0568
18117TIP3    H275767   6.131   2.290   6.527  0.7307 -0.0363 -0.2112
18118TIP3   OH275768   1.551   3.482   5.761  0.5788 -0.1158  0.1924
18118TIP3    H175769   1.585   3.570   5.773  1.1915 -0.3056 -0.1197
18118TIP3    H275770   1.464   3.495   5.722  0.8405  0.3403 -0.2564
18119TIP3   OH275771   0.929   2.467  15.710  0.1000  0.1305  0.4711
18119TIP3    H175772   0.885   2.382  15.706 -1.2638  0.7154  1.9206
18119TIP3    H275773   0.922   2.501  15.620  0.5925 -1.2142 -0.1047
18120TIP3   OH275774   0.525   1.273  15.505  0.0437 -0.0787 -0.1196
18120TIP3    H175775   0.521   1.369  15.498  2.7553  0.1537  0.3064
18120TIP3    H275776   0.552   1.257  15.595 -0.3503 -1.2682 -0.2023
18121TIP3   OH275777   5.604   6.719  12.581 -0.2873 -0.4026 -0.3905
18121TIP3    H175778   5.679   6.728  12.522  1.0934  0.2865  1.3593
18121TIP3    H275779   5.617   6.634  12.624  0.8052  0.6777  1.5465
18122TIP3   OH275780   1.338   6.531  13.763 -0.2994  0.9365 -0.0069
18122TIP3    H175781   1.394   6.601  13.729 -0.2927 -0.1825 -2.4934
18122TIP3    H275782   1.284   6.505  13.689 -0.8988 -1.1214  1.0756
18123TIP3   OH275783   2.665   0.670   5.011 -0.4720 -0.3078  0.0209
18123TIP3    H175784   2.698   0.724   5.083  1.5450 -0.7209 -0.5099
18123TIP3    H275785   2.628   0.732   4.948  0.4245  0.3386  0.1078
18124TIP3   OH275786   2.857   4.192   5.251  0.2662  0.0471 -0.1601
18124TIP3    H175787   2.769   4.226   5.233  0.4642 -0.0170 -1.3199
18124TIP3    H275788   2.914   4.269   5.248  0.5217 -0.1758 -1.4249
18125TIP3   OH275789   6.088   2.336  14.335  0.4934  0.0328  0.1475
18125TIP3    H175790   6.178   2.303  14.340  0.3928 -0.4736 -1.0465
18125TIP3    H275791   6.098   2.431  14.330  1.0119 -0.0593 -0.7451
18126TIP3   OH275792   1.160   2.024  14.356  0.1132  0.3372  0.0547
18126TIP3    H175793   1.183   2.115  14.376 -1.6782  0.3323  2.5516
18126TIP3    H275794   1.245   1.980  14.348  1.0701  2.2849 -2.1466
18127TIP3   OH275795   2.022   1.472   1.279  0.3944 -0.2114 -0.8149
18127TIP3    H175796   2.037   1.381   1.305  1.0321  0.6412  2.1608
18127TIP3    H275797   1.928   1.484   1.287  0.4639 -0.2592  0.1846
18128TIP3   OH275798   3.768   0.099  12.045 -0.4807  0.1506  1.1403
18128TIP3    H175799   3.702   0.046  12.088 -0.8569  0.0152  0.4044
18128TIP3    H275800   3.807   0.041  11.979 -2.3239  1.3210 -1.1238
18129TIP3   OH275801   2.049   6.306  13.605  0.0237 -0.6749  0.1791
18129TIP3    H175802   1.965   6.279  13.567  0.0988 -0.8663  0.1472
18129TIP3    H275803   2.096   6.345  13.531  0.0081 -0.6727  0.1697
18130TIP3   OH275804   6.309   4.676  11.366  0.2849 -0.4966 -0.1839
18130TIP3    H175805   6.309   4.738  11.438  0.9609  0.8760 -1.3147
18130TIP3    H275806   6.401   4.651  11.355  0.1833 -0.7392 -0.5264
18131TIP3   OH275807   3.077   3.902  12.633 -0.0515 -0.0015  0.3862
18131TIP3    H175808   3.121   3.883  12.550  2.9335 -0.2848  1.8760
18131TIP3    H275809   3.088   3.996  12.646 -1.5324  0.2533 -0.0221
18132TIP3   OH275810   1.194   2.790   5.025 -0.2010  0.4747  0.2277
18132TIP3    H175811   1.192   2.885   5.015  0.7395  0.3330 -2.1998
18132TIP3    H275812   1.277   2.772   5.070  0.4044  0.7618 -0.7373
18133TIP3   OH275813   6.081   6.069  11.854 -0.4477 -0.0993 -0.2617
18133TIP3    H175814   6.078   6.154  11.899 -1.1383  1.2523 -2.6700
18133TIP3    H275815   6.157   6.025  11.891  0.8882  2.2371  0.0061
18134TIP3   OH275816   2.246   5.050   5.341  0.1990 -0.2762 -0.1288
18134TIP3    H175817   2.190   5.025   5.267  1.5166 -1.1611 -0.8691
18134TIP3    H275818   2.261   5.144   5.328 -0.9066 -0.0686 -0.0380
18135TIP3   OH275819   4.224   2.566  12.431  0.0062  0.4588  0.1006
18135TIP3    H175820   4.213   2.471  12.431 -0.3922  0.4693 -1.4801
18135TIP3    H275821   4.153   2.598  12.374  0.2211  1.6864  0.4935
18136TIP3   OH275822   0.861   1.049  11.503 -0.0557  0.4990 -0.1420
18136TIP3    H175823   0.925   0.981  11.524  0.8453  1.8720  1.9204
18136TIP3    H275824   0.823   1.073  11.587 -3.2900 -0.1713 -1.2753
18137TIP3   OH275825   3.257   1.073   4.167  0.7075  0.2787 -0.5567
18137TIP3    H175826   3.265   1.118   4.251  1.6825 -0.7460 -0.0845
18137TIP3    H275827   3.163   1.076   4.147  0.4433  0.3986  0.6366
18138TIP3   OH275828   0.951   4.907   2.968 -0.5419 -0.0974 -0.6026
18138TIP3    H175829   0.983   4.914   2.879  3.8182 -1.5773  0.6188
18138TIP3    H275830   0.904   4.824   2.970  1.3923 -1.2634 -1.0830
18139TIP3   OH275831   4.300   4.882   3.761 -0.4829 -0.3449  0.2826
18139TIP3    H175832   4.238   4.839   3.702 -1.2826 -1.0133  1.5655
18139TIP3    H275833   4.370   4.913   3.704 -0.9254 -1.4994 -0.9352
18140TIP3   OH275834   3.312   6.198   3.148  0.1207 -0.1417 -0.0784
18140TIP3    H175835   3.361   6.151   3.080  0.0775  0.8334 -0.8129
18140TIP3    H275836   3.222   6.171   3.135  0.1892 -0.3786 -0.0582
18141TIP3   OH275837   6.201   0.664   5.312 -0.1830  0.1852 -0.0623
18141TIP3    H175838   6.184   0.573   5.338 -0.2803  0.2072 -0.0493
18141TIP3    H275839   6.285   0.685   5.352 -0.3098  0.2033  0.1943
18142TIP3   OH275840   5.453   4.538   2.175  0.1231 -0.1055  0.0451
18142TIP3    H175841   5.533   4.540   2.228  0.9745  0.5253 -1.2129
18142TIP3    H275842   5.394   4.599   2.218  1.0893  0.9870 -0.1401
18143TIP3   OH275843   0.545   3.746   0.416  0.7509 -0.3784  0.0872
18143TIP3    H175844   0.456   3.711   0.414 -0.4994  2.5148 -0.6164
18143TIP3    H275845   0.594   3.689   0.356 -1.5973  0.0955 -2.4998
18144TIP3   OH275846   1.685   0.811   1.921 -0.1630 -0.1472 -0.1878
18144TIP3    H175847   1.646   0.836   2.005 -0.9296  1.7409 -1.0332
18144TIP3    H275848   1.755   0.875   1.907  1.7004 -2.0076  0.1575
18145TIP3   OH275849   2.202   0.127   4.756  0.9719 -0.1455 -0.1182
18145TIP3    H175850   2.199   0.128   4.851  0.8665 -1.2592 -0.1057
18145TIP3    H275851   2.288   0.089   4.735  0.8057 -0.3308 -0.4656
18146TIP3   OH275852   3.062   3.861  15.924 -0.0923 -0.2006 -0.0282
18146TIP3    H175853   3.086   3.910  15.845 -0.4002  0.0613  0.0390
18146TIP3    H275854   2.968   3.849  15.918 -0.1983  0.2743  0.5526
18147TIP3   OH275855   3.409   2.544   0.537 -0.0954 -0.0948  0.6554
18147TIP3    H175856   3.414   2.634   0.570 -0.2893 -1.0475  3.6047
18147TIP3    H275857   3.320   2.536   0.504  0.1375  0.9590 -0.3001
18148TIP3   OH275858   6.387   0.303  17.125 -0.8203 -0.2790  0.3433
18148TIP3    H175859   6.323   0.372  17.108 -1.7498 -1.1808  0.0943
18148TIP3    H275860   6.392   0.298  17.221 -1.3084 -0.3787  0.3624
18149TIP3   OH275861   0.229   4.243   0.332 -0.6758 -0.1806 -0.3567
18149TIP3    H175862   0.208   4.183   0.403 -0.6448 -0.0770 -0.2586
18149TIP3    H275863   0.241   4.328   0.375 -0.0589 -0.2348 -0.4098
18150TIP3   OH275864   0.553   5.108  17.181 -0.3452 -0.0099  0.4678
18150TIP3    H175865   0.509   5.023  17.177  1.5756 -1.1797  2.1055
18150TIP3    H275866   0.647   5.086  17.178  0.2496  2.2952 -2.2218
18151TIP3   OH275867   2.312   0.253   2.415 -0.1947 -0.4755 -0.2687
18151TIP3    H175868   2.246   0.196   2.374 -0.9626 -0.9599  1.5481
18151TIP3    H275869   2.292   0.250   2.509 -0.9835  3.6182 -0.0957
18152TIP3   OH275870   0.591   4.722   0.036  0.3924 -0.3733  0.6470
18152TIP3    H175871   0.522   4.656   0.029 -1.6735  1.4141  2.6406
18152TIP3    H275872   0.652   4.701  -0.034 -1.6340 -2.6778 -0.5480
18153TIP3   OH275873   0.698   3.886   3.947 -0.2115  0.2829  0.4271
18153TIP3    H175874   0.781   3.871   3.991  0.3684  0.0450 -0.7213
18153TIP3    H275875   0.696   3.823   3.876 -1.8426 -0.4026  1.0187
18154TIP3   OH275876   6.637   0.211   1.056 -0.1500 -0.4593 -0.3185
18154TIP3    H175877   6.672   0.155   1.124 -3.0167  0.4242  2.1206
18154TIP3    H275878   6.556   0.167   1.028  0.1999 -0.0500 -2.1129
18155TIP3   OH275879   5.943   4.878  12.772  0.2314  0.0334 -0.0731
18155TIP3    H175880   5.925   4.797  12.819  1.2135 -0.5937 -0.7415
18155TIP3    H275881   5.921   4.858  12.680  1.4620  0.1648 -0.4166
18156TIP3   OH275882   5.204   6.492  15.153  0.3871 -0.0370 -0.0963
18156TIP3    H175883   5.187   6.473  15.245  1.4894  0.0008  0.1228
18156TIP3    H275884   5.192   6.408  15.108 -2.4783  0.3824 -0.3109
18157TIP3   OH275885   3.198   5.479  13.201 -0.2547  0.0599 -0.3760
18157TIP3    H175886   3.105   5.457  13.203 -0.7648  1.8118 -1.7544
18157TIP3    H275887   3.210   5.542  13.272 -0.5360  1.1222 -1.2392
18158TIP3   OH275888   3.032   0.234   5.942 -0.4319 -0.7124 -0.2700
18158TIP3    H175889   2.967   0.303   5.953  1.6770  1.6165 -1.2643
18158TIP3    H275890   2.991   0.170   5.884 -2.0702  0.2806 -0.2485
18159TIP3   OH275891   3.733   6.321   2.776  0.2496 -0.0330 -0.6247
18159TIP3    H175892   3.780   6.295   2.855  2.1382 -0.6369 -1.8880
18159TIP3    H275893   3.749   6.251   2.714 -1.8761  0.0309 -1.3313
18160TIP3   OH275894   3.866   5.372  17.161  0.2693 -0.8285 -0.0853
18160TIP3    H175895   3.859   5.354  17.255 -1.0223 -1.9854 -0.3546
18160TIP3    H275896   3.945   5.425  17.151 -0.3649  0.5740  1.8278
18161TIP3   OH275897   1.810   3.076   1.795 -0.2701 -0.1498 -0.3607
18161TIP3    H175898   1.731   3.060   1.744 -0.0865 -0.5005 -0.5389
18161TIP3    H275899   1.882   3.056   1.735 -0.0564 -1.4697  0.3059
18162TIP3   OH275900   0.006   6.119  12.178  0.0165 -0.9585  0.3006
18162TIP3    H175901   0.084   6.100  12.231  0.6793 -0.9796 -0.6533
18162TIP3    H275902  -0.046   6.039  12.183  0.6365 -1.3935 -0.0232
18163TIP3   OH275903   3.293   2.012  14.129 -0.6118  0.7971  0.4934
18163TIP3    H175904   3.228   2.003  14.060 -0.8955  0.0628  0.8476
18163TIP3    H275905   3.370   2.050  14.085  0.9557 -3.8289 -1.3679
18164TIP3   OH275906   0.896   2.115   4.567  0.0508  0.2788  0.3646
18164TIP3    H175907   0.899   2.210   4.561 -1.1845  0.4407  1.7410
18164TIP3    H275908   0.868   2.087   4.479  0.3177  1.1820 -0.0245
18165TIP3   OH275909   0.407   4.802   1.993  0.5101  0.2797  0.8846
18165TIP3    H175910   0.379   4.886   2.029 -2.0498  0.5538 -1.4701
18165TIP3    H275911   0.345   4.738   2.028 -0.3870  0.1533 -0.8103
18166TIP3   OH275912   1.182   5.278  17.171 -0.3655 -0.4321  0.6864
18166TIP3    H175913   1.163   5.193  17.132  0.5130 -0.2363 -0.2270
18166TIP3    H275914   1.271   5.298  17.141  0.1235  0.0034  2.3367
18167TIP3   OH275915   3.741   3.978   1.987  0.5414 -0.2185  0.4488
18167TIP3    H175916   3.722   3.890   1.955 -0.8328  0.4954 -0.8295
18167TIP3    H275917   3.688   3.986   2.067 -0.3464 -0.1301 -0.1327
18168TIP3   OH275918   4.733   2.344   4.846 -0.6583 -0.1179  1.0053
18168TIP3    H175919   4.809   2.389   4.810 -0.8398 -0.2223  0.4851
18168TIP3    H275920   4.693   2.299   4.771 -0.1653 -1.6120  1.5966
18169TIP3   OH275921   2.778   6.636  16.878  0.0596 -0.0567 -0.1654
18169TIP3    H175922   2.859   6.589  16.857 -0.5774 -0.8636 -0.9066
18169TIP3    H275923   2.713   6.597  16.820 -0.4551  1.9332 -0.9878
18170TIP3   OH275924   5.761   2.313  11.801  0.3516  0.4240 -0.4500
18170TIP3    H175925   5.803   2.316  11.887  1.0206 -1.0472 -0.6859
18170TIP3    H275926   5.810   2.376  11.748  1.1094  0.0335 -0.2330
18171TIP3   OH275927   2.631   0.119   3.730 -0.8903 -1.1774  0.4516
18171TIP3    H175928   2.724   0.142   3.736 -0.9908 -0.7619  0.4405
18171TIP3    H275929   2.586   0.203   3.718 -1.2565 -1.3873  0.3351
18172TIP3   OH275930   3.397   4.932   6.054 -0.4770  0.2648  0.2888
18172TIP3    H175931   3.490   4.935   6.031 -0.6392 -0.7258 -0.5832
18172TIP3    H275932   3.383   4.841   6.082 -1.1185  0.4925  0.7074
18173TIP3   OH275933   3.698   4.614   0.375  0.0422  0.3987  0.2196
18173TIP3    H175934   3.611   4.637   0.408 -0.3982 -0.3064 -0.4046
18173TIP3    H275935   3.703   4.658   0.290 -0.0985 -0.3063 -0.1706
18174TIP3   OH275936   2.299   2.560   1.491  0.3118  0.2215  0.1791
18174TIP3    H175937   2.369   2.610   1.534  1.0677 -0.5061 -0.1779
18174TIP3    H275938   2.305   2.473   1.529 -1.1046  0.4288  0.9136
18175TIP3   OH275939   6.157   2.611  10.533  0.3506 -0.4346 -0.7692
18175TIP3    H175940   6.205   2.529  10.519 -0.9851 -1.2684 -0.6352
18175TIP3    H275941   6.086   2.588  10.593  1.4769  1.4260  1.4392
18176TIP3   OH275942   0.453   0.805  16.734 -0.1438  0.1422 -0.1111
18176TIP3    H175943   0.484   0.877  16.678  1.3080 -1.7821 -1.9084
18176TIP3    H275944   0.473   0.726  16.685 -0.1900 -1.6184  2.5139
18177TIP3   OH275945   3.199   2.624  13.414 -0.7239  0.0076  0.2083
18177TIP3    H175946   3.180   2.555  13.350  0.5158 -0.4202  0.2600
18177TIP3    H275947   3.267   2.586  13.470  2.8022  2.4025 -1.9927
18178TIP3   OH275948   3.431   1.461   4.457  0.1699 -0.2942  0.4842
18178TIP3    H175949   3.457   1.552   4.438  1.1236 -0.4189  1.1288
18178TIP3    H275950   3.432   1.418   4.371  0.5726  0.0971  0.2850
18179TIP3   OH275951   2.945   6.086   4.950  0.5796 -0.6039 -0.1299
18179TIP3    H175952   2.925   6.139   5.027  0.0767  0.0195 -0.6757
18179TIP3    H275953   3.028   6.043   4.972 -0.4914 -1.9453  1.5207
18180TIP3   OH275954   6.153   2.293   2.886  0.3416 -0.1280  0.3545
18180TIP3    H175955   6.130   2.384   2.900  0.5588  0.1665 -1.0306
18180TIP3    H275956   6.076   2.255   2.843  1.3475  0.1966 -1.8639
18181TIP3   OH275957   5.176   1.417   0.414 -0.3780 -0.0958  0.1985
18181TIP3    H175958   5.188   1.504   0.377 -0.5860 -0.5415 -0.9628
18181TIP3    H275959   5.103   1.427   0.475 -0.7630  0.4309 -0.3344
18182TIP3   OH275960   6.576   4.049  13.522 -0.1879 -0.3995 -0.0191
18182TIP3    H175961   6.560   3.955  13.518  0.5964 -0.7813  3.2230
18182TIP3    H275962   6.672   4.057  13.524 -0.2515  0.3264  0.9436
18183TIP3   OH275963   1.685   1.859  13.070 -0.1506 -0.2750  0.1069
18183TIP3    H175964   1.747   1.855  13.143  3.2945 -0.6817 -2.5577
18183TIP3    H275965   1.673   1.767  13.044 -0.4193 -0.0698 -0.5159
18184TIP3   OH275966   2.918   5.987   1.214 -0.2217 -0.5898  0.3651
18184TIP3    H175967   2.942   6.079   1.210  3.1768 -1.2391  2.1222
18184TIP3    H275968   2.842   5.985   1.273 -0.7390  1.0700 -0.1820
18185TIP3   OH275969   6.418   4.728   5.428  0.0674 -0.2970 -0.0266
18185TIP3    H175970   6.339   4.720   5.375  0.1820 -1.3994 -0.0352
18185TIP3    H275971   6.445   4.820   5.417 -0.3079 -0.3290 -1.2923
18186TIP3   OH275972   3.828   1.129  14.451 -0.0398  0.1263 -0.4332
18186TIP3    H175973   3.779   1.066  14.504 -0.3289 -0.2461 -1.1334
18186TIP3    H275974   3.918   1.123  14.485 -0.2196 -0.0917  0.0221
18187TIP3   OH275975   6.321   6.006   5.189  0.5209 -0.0604 -0.4658
18187TIP3    H175976   6.400   5.953   5.181  1.4295  1.1689  0.1083
18187TIP3    H275977   6.319   6.034   5.280 -1.4583 -1.3564 -0.0483
18188TIP3   OH275978   6.285   3.361  13.691 -0.4549 -0.8310  0.6278
18188TIP3    H175979   6.231   3.290  13.659 -0.1768 -0.9616  0.4391
18188TIP3    H275980   6.374   3.325  13.692 -0.1100 -0.1114 -0.6671
18189TIP3   OH275981   2.203   0.990  13.344  0.3470  0.2279 -0.0532
18189TIP3    H175982   2.178   0.907  13.304  0.7692  0.1034 -0.0636
18189TIP3    H275983   2.258   1.033  13.279  1.7938 -0.3770  0.7217
18190TIP3   OH275984   3.308   3.097   1.318  0.4795  0.4200 -0.1734
18190TIP3    H175985   3.289   3.007   1.291  1.7197  0.2922 -0.7271
18190TIP3    H275986   3.297   3.149   1.239  0.1042  0.7104  0.0646
18191TIP3   OH275987   4.607   1.772   3.826  0.0777 -0.6001 -0.0007
18191TIP3    H175988   4.554   1.805   3.753 -1.3335 -2.9773 -0.1737
18191TIP3    H275989   4.565   1.808   3.904 -1.4219 -1.8270 -0.1822
18192TIP3   OH275990   2.941   1.672   2.859  0.2021 -0.3278 -0.5371
18192TIP3    H175991   2.896   1.753   2.880  1.4973 -0.0605  1.6081
18192TIP3    H275992   2.992   1.691   2.780 -0.0341  0.7404 -0.4347
18193TIP3   OH275993   4.807   0.584   1.330 -0.0019  0.0904  0.1708
18193TIP3    H175994   4.720   0.552   1.308  0.9514 -2.3888 -0.3255
18193TIP3    H275995   4.839   0.623   1.249  0.2705 -1.3221 -0.4356
18194TIP3   OH275996   3.813   0.197  17.369 -0.8537 -0.6806  0.6464
18194TIP3    H175997   3.753   0.138  17.323 -1.2648  0.6907 -0.6606
18194TIP3    H275998   3.860   0.242  17.299 -1.5731  1.5642  1.5039
18195TIP3   OH275999   2.997   2.278   5.679 -0.3514 -0.0999  0.7392
18195TIP3    H176000   2.910   2.305   5.709 -0.3662 -1.1490  1.7429
18195TIP3    H276001   2.984   2.249   5.589 -0.9894  0.0049  0.7946
18196TIP3   OH276002   2.583   4.136   1.432 -0.1832 -0.2472  0.1954
18196TIP3    H176003   2.580   4.125   1.337 -0.0309  1.2738 -0.0099
18196TIP3    H276004   2.524   4.209   1.450 -0.0362 -0.3615  1.2498
18197TIP3   OH276005   5.513   5.157  14.506  0.7493 -0.4290  0.3636
18197TIP3    H176006   5.434   5.164  14.452  0.0324 -1.4145  1.2395
18197TIP3    H276007   5.562   5.237  14.487 -0.6152  0.3652  0.0316
18198TIP3   OH276008   0.147   3.075  16.895  0.2895 -0.2444  0.0841
18198TIP3    H176009   0.208   3.111  16.959  1.1707 -0.6332 -0.5127
18198TIP3    H276010   0.144   3.141  16.826 -1.2166  0.5065  0.8402
18199TIP3   OH276011   6.193   3.856  11.330 -0.0327 -0.3518 -0.5120
18199TIP3    H176012   6.206   3.794  11.258  0.2584  0.2817 -1.0227
18199TIP3    H276013   6.204   3.942  11.289  2.8501  0.0098  0.7694
18200TIP3   OH276014   2.129   3.220   5.397 -0.0071  0.1862  0.1994
18200TIP3    H176015   2.066   3.149   5.386 -0.8095  0.8925  0.1898
18200TIP3    H276016   2.146   3.224   5.491 -0.1038  0.1090  0.2187
18201TIP3   OH276017   1.791   4.414   0.194  0.9006  0.4369  0.2158
18201TIP3    H176018   1.743   4.453   0.267 -0.8698 -1.8554  0.3978
18201TIP3    H276019   1.825   4.331   0.228  3.0049  0.8672 -0.6414
18202TIP3   OH276020   6.740   4.235   4.760  0.2381 -0.2507 -0.1486
18202TIP3    H176021   6.723   4.247   4.667  1.8282 -0.1237 -0.4533
18202TIP3    H276022   6.799   4.160   4.764 -0.3812 -0.7083  0.8271
18203TIP3   OH276023   4.160   3.212  15.413  0.2982  0.2029 -0.0991
18203TIP3    H176024   4.206   3.138  15.451 -0.5155 -0.4976 -0.4414
18203TIP3    H276025   4.102   3.243  15.482 -1.7437 -1.5462 -0.8923
18204TIP3   OH276026   3.866   3.178   2.778 -0.2985  0.0306 -0.1250
18204TIP3    H176027   3.806   3.252   2.767  0.4007  0.4594 -1.2866
18204TIP3    H276028   3.845   3.120   2.705 -0.4793 -0.6639  0.4770
18205TIP3   OH276029   3.834   3.967   3.561 -0.1937 -0.1629  0.2466
18205TIP3    H176030   3.773   4.027   3.519  1.0115  1.3391  0.5745
18205TIP3    H276031   3.784   3.929   3.633 -0.7995  0.9336  0.4288
18206TIP3   OH276032   2.400   5.927   2.078 -0.0504 -0.0210  0.0704
18206TIP3    H176033   2.435   5.846   2.116 -1.8894 -0.9199 -0.0146
18206TIP3    H276034   2.467   5.956   2.016  1.3032 -0.6386  1.1806
18207TIP3   OH276035   5.651   5.663  13.976  0.0039  0.7497  0.5933
18207TIP3    H176036   5.722   5.673  14.040 -1.6168  0.5221  2.5045
18207TIP3    H276037   5.648   5.747  13.930  0.7580  1.1672  1.2744
18208TIP3   OH276038   3.477   5.139  17.033  0.6431 -0.3146  0.4328
18208TIP3    H176039   3.467   5.202  16.961  0.9504 -0.0556  0.6169
18208TIP3    H276040   3.532   5.070  16.996 -0.7087 -1.1168 -0.1816
18209TIP3   OH276041   5.188   6.087  15.608 -0.7984 -0.2746 -0.3848
18209TIP3    H176042   5.226   6.009  15.650 -1.2828  0.8914  2.4992
18209TIP3    H276043   5.097   6.064  15.591 -0.3897 -1.0454 -1.6631
18210TIP3   OH276044   1.833   2.363  14.035  0.2299 -0.0499 -0.0664
18210TIP3    H176045   1.808   2.318  13.954  2.3379  0.1202 -0.8854
18210TIP3    H276046   1.859   2.293  14.095  1.6095 -0.0763 -0.6520
18211TIP3   OH276047   0.522   3.099   6.022  0.8747  0.4527 -0.0395
18211TIP3    H176048   0.568   3.060   6.097 -0.2701  1.5431  1.2837
18211TIP3    H276049   0.436   3.124   6.057 -0.4784 -0.8026 -2.2221
18212TIP3   OH276050   3.323   2.605  11.887 -0.2719 -0.2628  1.2575
18212TIP3    H176051   3.269   2.529  11.867  0.8931 -1.0636  1.1358
18212TIP3    H276052   3.296   2.630  11.976 -0.0985 -1.3102  1.6180
18213TIP3   OH276053   2.058   0.016   1.979  0.3860 -0.0444 -1.2220
18213TIP3    H176054   2.117  -0.043   2.027  0.2802 -0.5727 -1.7430
18213TIP3    H276055   2.045  -0.026   1.894 -0.9683 -0.0813 -1.0175
18214TIP3   OH276056   5.298   4.603  13.105 -0.0040 -0.0688 -0.0662
18214TIP3    H176057   5.290   4.686  13.058  0.2493 -0.7763 -1.3843
18214TIP3    H276058   5.390   4.598  13.131  0.0904 -0.1512 -0.4096
18215TIP3   OH276059   5.481   0.190  14.474 -0.0310  0.7673  0.9240
18215TIP3    H176060   5.489   0.238  14.557 -0.7789  2.6441 -0.0213
18215TIP3    H276061   5.549   0.228  14.418  1.1142 -1.1618  0.9488
18216TIP3   OH276062   1.794   1.741   4.024 -0.3105  0.2679 -0.0750
18216TIP3    H176063   1.846   1.800   3.970  2.4584 -2.4768 -0.6646
18216TIP3    H276064   1.741   1.692   3.962  0.3868 -0.5938  0.0011
18217TIP3   OH276065   0.350   3.566  14.725 -0.0290 -0.0440  0.0668
18217TIP3    H176066   0.368   3.565  14.819 -1.8965 -0.9398  0.4596
18217TIP3    H276067   0.375   3.478  14.695 -1.3205 -0.4787  0.1690
18218TIP3   OH276068   3.239   2.305  11.841 -0.4936 -0.1966  0.0903
18218TIP3    H176069   3.163   2.254  11.871  0.9445 -2.2360  0.4810
18218TIP3    H276070   3.229   2.308  11.746 -1.8721  0.9685  0.2375
18219TIP3   OH276071   0.782   5.414   5.695 -0.0004 -0.5539 -0.3304
18219TIP3    H176072   0.727   5.341   5.668 -0.2296 -0.2135 -0.8042
18219TIP3    H276073   0.853   5.416   5.632 -0.5454  0.2519 -0.9424
18220TIP3   OH276074   3.383   0.888  13.776  0.1967 -0.2261  0.7054
18220TIP3    H176075   3.409   0.979  13.769  2.1552 -0.5785  2.4444
18220TIP3    H276076   3.458   0.844  13.816 -0.2405 -2.8418 -1.1032
18221TIP3   OH276077   1.827   1.372  13.529  0.0708 -0.2262  0.3638
18221TIP3    H176078   1.811   1.298  13.587 -1.2075 -0.0786  0.2381
18221TIP3    H276079   1.866   1.334  13.451 -1.1651 -0.8791  0.0351
18222TIP3   OH276080   3.989   0.821   3.234 -0.5930  0.0842  0.0513
18222TIP3    H176081   3.983   0.726   3.238  1.4350 -0.0765  3.4489
18222TIP3    H276082   4.049   0.838   3.162 -0.3523 -1.2645 -0.0918
18223TIP3   OH276083   4.999   4.803   0.622 -0.0172  0.4512 -0.2172
18223TIP3    H176084   4.961   4.741   0.685  2.7221 -1.7709 -0.5427
18223TIP3    H276085   4.937   4.802   0.549  0.6895 -3.4978 -1.0007
18224TIP3   OH276086   2.260   2.947   4.484 -0.0633  0.3734  0.4194
18224TIP3    H176087   2.246   2.887   4.557 -0.0912 -2.0128 -1.4137
18224TIP3    H276088   2.306   3.021   4.522 -1.0174 -0.2690  3.0263
18225TIP3   OH276089   5.188   3.359  14.360  0.2100  0.2430 -0.4480
18225TIP3    H176090   5.205   3.267  14.338  0.9583  0.1862  0.3298
18225TIP3    H276091   5.124   3.355  14.432 -0.4244  0.3623 -0.9966
18226TIP3   OH276092   3.529   4.442   2.990  0.9510  0.0011 -0.3664
18226TIP3    H176093   3.446   4.441   2.943  0.9864 -0.0012 -0.4294
18226TIP3    H276094   3.594   4.467   2.924  1.0647 -0.4192 -0.4184
18227TIP3   OH276095   0.207   6.253   5.019  0.3362  0.6628  0.1985
18227TIP3    H176096   0.259   6.192   5.071  0.3244  1.5376  1.2907
18227TIP3    H276097   0.143   6.199   4.974  3.3236 -0.7441 -2.7635
18228TIP3   OH276098   6.320   3.264   6.468  0.0279 -0.1117 -0.1348
18228TIP3    H176099   6.251   3.322   6.437  1.2431  1.2745 -0.3545
18228TIP3    H276100   6.376   3.319   6.522  0.7321 -1.2997  0.4007
18229TIP3   OH276101   6.018   2.409   4.075 -0.4219  0.1014 -0.2150
18229TIP3    H176102   5.937   2.431   4.122 -0.7099  0.6427 -0.9562
18229TIP3    H276103   6.088   2.430   4.137 -0.8285 -0.0272  0.2954
18230TIP3   OH276104   0.835   2.030  15.357  0.7003  0.2070 -0.1362
18230TIP3    H176105   0.882   2.019  15.440  1.8880 -0.4421 -0.8768
18230TIP3    H276106   0.825   2.125  15.348  0.3002  0.2812  0.8726
18231TIP3   OH276107   4.568   4.567  14.993  0.5380  0.5729  0.1806
18231TIP3    H176108   4.493   4.622  15.015  0.3415  0.5489 -0.4244
18231TIP3    H276109   4.607   4.545  15.078 -0.5698 -0.0211  0.5615
18232TIP3   OH276110   5.333   6.472  11.098  0.0349 -0.3111 -0.0391
18232TIP3    H176111   5.408   6.519  11.062 -0.1074  1.7481  2.1047
18232TIP3    H276112   5.368   6.427  11.175 -0.2967 -2.0707 -0.8713
18233TIP3   OH276113   5.409   5.688   0.296 -0.4207  0.3469  0.0205
18233TIP3    H176114   5.389   5.595   0.310 -0.0009  0.3413  0.6065
18233TIP3    H276115   5.504   5.694   0.308 -0.2251  0.6059 -1.4207
18234TIP3   OH276116   6.381   2.477   4.804  0.6723 -0.0589  1.3491
18234TIP3    H176117   6.332   2.411   4.852 -1.6872  0.5116 -0.1366
18234TIP3    H276118   6.358   2.560   4.846 -2.1727  0.5616 -1.1406
18235TIP3   OH276119   3.969   1.142   3.284 -0.0487  0.2728 -0.4257
18235TIP3    H176120   3.981   1.171   3.194 -1.4863  0.1237 -0.6765
18235TIP3    H276121   3.927   1.216   3.328  2.7801  1.3282  0.8026
18236TIP3   OH276122   2.615   1.670  15.884  0.2904 -0.5474  0.1370
18236TIP3    H176123   2.589   1.679  15.792 -2.0810 -3.1368  0.4106
18236TIP3    H276124   2.632   1.759  15.913  1.2561  0.3515 -2.8135
18237TIP3   OH276125   4.742   0.411  16.564 -0.0410 -0.2944  0.2621
18237TIP3    H176126   4.711   0.473  16.629 -0.5361 -0.0201 -0.2305
18237TIP3    H276127   4.824   0.448  16.531 -0.4217  0.1948 -0.1538
18238TIP3   OH276128   4.721   5.986  17.127  0.3236 -0.7899  0.3535
18238TIP3    H176129   4.763   5.917  17.177  0.5720 -0.5398  0.4923
18238TIP3    H276130   4.728   5.958  17.035  0.4344 -0.9392  0.4079
18239TIP3   OH276131   6.657   1.308  13.040 -0.2233 -0.3751  0.3976
18239TIP3    H176132   6.711   1.339  13.113 -1.3950  2.1735  0.2953
18239TIP3    H276133   6.699   1.344  12.962 -0.8618 -0.1927  0.1306
18240TIP3   OH276134   6.172   2.880   5.199  0.5584  0.1862  0.5219
18240TIP3    H176135   6.223   2.799   5.193  1.0814  0.5942 -1.1227
18240TIP3    H276136   6.237   2.949   5.210  0.3682  0.6629 -1.0899
18241TIP3   OH276137   3.927   0.491   4.697 -0.3128  0.1485 -0.4366
18241TIP3    H176138   3.880   0.532   4.625 -1.1517 -0.0243  0.0020
18241TIP3    H276139   3.937   0.400   4.669 -0.0338  0.2346 -0.6254
18242TIP3   OH276140   3.523   0.631   7.002 -0.2256  0.6242 -0.7751
18242TIP3    H176141   3.606   0.616   7.046  0.0047  1.3713 -0.9480
18242TIP3    H276142   3.516   0.559   6.938 -0.3305 -0.1772  0.1183
18243TIP3   OH276143   0.165   4.905  13.803 -0.8493 -0.4549  0.0018
18243TIP3    H176144   0.098   4.867  13.746 -1.2285  0.0474  0.0998
18243TIP3    H276145   0.119   4.923  13.885 -0.7073  0.2845 -0.0729
18244TIP3   OH276146   3.450   1.073  14.075 -0.2944 -0.2955  0.2106
18244TIP3    H176147   3.409   1.104  13.994 -1.9497 -1.0730  0.7000
18244TIP3    H276148   3.467   1.153  14.125 -0.8661  0.0828 -0.1865
18245TIP3   OH276149   5.574   5.957   3.315  0.5044 -0.2234 -0.3911
18245TIP3    H176150   5.535   6.005   3.388  0.0152 -0.4841 -0.4817
18245TIP3    H276151   5.536   5.870   3.320  1.2939 -0.5785 -0.3048
18246TIP3   OH276152   0.637   0.497   5.461 -0.2130  0.1444  0.4069
18246TIP3    H176153   0.580   0.464   5.531  0.8914  2.0436  2.3460
18246TIP3    H276154   0.723   0.506   5.503  0.3560  1.9017 -1.0177
18247TIP3   OH276155   5.512   6.476  11.597  0.0105  0.5321 -0.1324
18247TIP3    H176156   5.454   6.400  11.590  1.4788 -0.6550  0.0608
18247TIP3    H276157   5.600   6.441  11.582  0.8167  2.0572  0.7355
18248TIP3   OH276158   2.688   2.529   4.112  0.6720 -0.3901  0.0312
18248TIP3    H176159   2.772   2.533   4.158  0.4126  0.3504  0.4558
18248TIP3    H276160   2.711   2.498   4.024  1.3904 -0.2020  0.1426
18249TIP3   OH276161   4.912   5.765  17.184 -0.4552  0.4721  0.0345
18249TIP3    H176162   4.968   5.789  17.258 -0.8374 -0.7675  0.7567
18249TIP3    H276163   4.849   5.702  17.221 -1.0181  0.2708 -1.2191
18250TIP3   OH276164   5.775   0.311  12.615  0.0066 -0.6272 -0.1205
18250TIP3    H176165   5.696   0.362  12.596  0.4464  0.0588 -0.1443
18250TIP3    H276166   5.765   0.231  12.564 -0.8604 -0.7224  0.1884
18251TIP3   OH276167   4.157   4.579  16.762 -0.0122 -0.1593  0.1193
18251TIP3    H176168   4.241   4.613  16.792 -0.5295  0.7573  0.5593
18251TIP3    H276169   4.175   4.549  16.672  0.4974  1.2283 -0.2753
18252TIP3   OH276170   4.965   2.699  16.104 -0.5351 -0.0852 -0.2051
18252TIP3    H176171   5.032   2.745  16.053  0.5212  1.1448  2.1404
18252TIP3    H276172   4.975   2.607  16.078  1.3063  0.2195 -0.7634
18253TIP3   OH276173   4.605   1.141   5.677 -0.0421 -0.4858  0.0853
18253TIP3    H176174   4.618   1.047   5.685 -1.5134 -0.7761 -0.6471
18253TIP3    H276175   4.573   1.168   5.763 -2.0243 -1.1233 -0.3965
18254TIP3   OH276176   1.160   0.696  13.505  0.4161 -0.3806 -0.0321
18254TIP3    H176177   1.128   0.758  13.570  0.2823  0.9622 -1.3280
18254TIP3    H276178   1.248   0.673  13.534  0.6584  0.7993  0.2191
18255TIP3   OH276179   4.809   2.933  12.300 -0.7680  0.4718  0.1089
18255TIP3    H176180   4.727   2.905  12.341 -0.3727 -1.7432 -0.4814
18255TIP3    H276181   4.876   2.913  12.366 -0.4548 -0.1391 -0.3907
18256TIP3   OH276182   6.373   4.361   1.584  0.3770 -0.3354  0.1641
18256TIP3    H176183   6.378   4.272   1.549 -1.2779  0.5501 -2.6657
18256TIP3    H276184   6.281   4.372   1.609 -0.5969  1.7558 -3.5216
18257TIP3   OH276185   0.944   2.039  14.729 -0.2707  0.0360 -0.0275
18257TIP3    H176186   1.017   2.022  14.670  0.2527 -0.0489  0.6391
18257TIP3    H276187   0.983   2.087  14.802 -0.2172 -2.7186  1.8959
18258TIP3   OH276188   1.088   3.655  13.679 -0.2102  0.5338 -0.5578
18258TIP3    H176189   1.065   3.606  13.600  0.6723  0.9352 -1.0756
18258TIP3    H276190   1.184   3.651  13.682 -0.1821  1.4156 -0.0904
18259TIP3   OH276191   4.616   6.228  13.695  0.2863  0.3764 -0.0334
18259TIP3    H176192   4.580   6.291  13.632 -1.6037 -0.4878  0.1139
18259TIP3    H276193   4.710   6.245  13.695  0.2245  1.0241 -2.3900
18260TIP3   OH276194   2.357   2.836   3.927 -0.6932 -0.2068 -0.1780
18260TIP3    H176195   2.386   2.846   4.018 -0.0680 -0.1217 -0.3836
18260TIP3    H276196   2.314   2.751   3.925  0.8946 -1.0389 -0.2095
18261TIP3   OH276197   0.665   1.448   4.144 -0.0666  0.1754  0.1474
18261TIP3    H176198   0.722   1.502   4.089 -0.6142  1.0256  0.3968
18261TIP3    H276199   0.686   1.475   4.234 -2.0077  1.7195  0.1901
18262TIP3   OH276200   1.584   2.997  14.514  0.0710 -0.0588 -0.0234
18262TIP3    H176201   1.539   2.915  14.533  1.6083 -0.8823  0.2526
18262TIP3    H276202   1.517   3.064  14.525 -0.7144 -1.0756  1.8980
18263TIP3   OH276203   2.245   2.955   3.700  0.4393 -0.4900  0.0634
18263TIP3    H176204   2.287   2.910   3.773 -2.5590 -2.2418  0.8799
18263TIP3    H276205   2.191   3.023   3.741 -1.7563 -1.8890 -0.3617
18264TIP3   OH276206   5.973   5.458   0.915 -0.0011 -0.3303 -0.4785
18264TIP3    H176207   5.919   5.497   0.984 -1.4663 -2.8726 -0.0597
18264TIP3    H276208   6.062   5.461   0.950 -0.7638 -2.1155  1.9674
18265TIP3   OH276209   2.824   0.077   3.309 -0.1969  0.4930 -0.0824
18265TIP3    H176210   2.817  -0.017   3.325 -0.4879  0.7037  1.1033
18265TIP3    H276211   2.792   0.118   3.389  2.3534  1.5985  0.4583
18266TIP3   OH276212   0.630   6.413   4.223  0.1508 -0.5337 -0.2450
18266TIP3    H176213   0.696   6.405   4.154  0.7879  0.9831  0.1549
18266TIP3    H276214   0.556   6.457   4.181  0.7506  0.8912  0.1385
18267TIP3   OH276215   1.991   4.804  11.903 -0.1736 -0.4440  0.7442
18267TIP3    H176216   2.008   4.721  11.949  1.0711 -0.5262  0.1623
18267TIP3    H276217   2.033   4.793  11.818 -0.9465  0.3851  0.2410
18268TIP3   OH276218   1.187   1.512  12.326 -0.3931  0.0275 -0.7250
18268TIP3    H176219   1.194   1.528  12.231 -1.0508  0.0726 -0.7666
18268TIP3    H276220   1.278   1.517  12.357 -0.2369  0.6241 -1.2531
18269TIP3   OH276221   5.407   0.888  16.387  0.2863  0.8146 -0.3685
18269TIP3    H176222   5.342   0.957  16.375  0.4967  0.9521 -0.7260
18269TIP3    H276223   5.397   0.832  16.310 -0.4749 -0.0427  0.3386
18270TIP3   OH276224   4.812   0.895   2.131 -0.6210 -0.2934 -0.0199
18270TIP3    H176225   4.769   0.959   2.186 -2.3650 -1.1765 -0.2986
18270TIP3    H276226   4.906   0.914   2.140 -1.0508  1.7224  0.5443
18271TIP3   OH276227   6.057   1.262  11.511 -0.3585 -0.3934 -0.5819
18271TIP3    H176228   6.005   1.268  11.591  1.3029  0.5721  0.4877
18271TIP3    H276229   6.043   1.347  11.468  1.2071  0.3679  0.3269
18272TIP3   OH276230   1.697   0.345   0.406  0.0234  0.4965 -0.1420
18272TIP3    H176231   1.774   0.320   0.354 -0.5561 -1.5851 -0.0913
18272TIP3    H276232   1.624   0.300   0.364 -0.8816  0.9754  0.8780
18273TIP3   OH276233   3.433   6.002  16.126 -0.2717  0.0126 -0.1539
18273TIP3    H176234   3.459   6.036  16.211 -1.1877  1.4177 -0.3942
18273TIP3    H276235   3.355   6.054  16.102  0.4942  0.3102 -2.2427
18274TIP3   OH276236   6.272   6.263   4.320  0.7128  0.6604 -0.2709
18274TIP3    H176237   6.260   6.290   4.411  1.9085  0.6808 -0.1090
18274TIP3    H276238   6.297   6.343   4.274  2.3508  0.2364 -0.1639
18275TIP3   OH276239   2.854   2.642  13.498  0.4237  0.6907  0.1728
18275TIP3    H176240   2.807   2.691  13.430  0.5999 -0.2419 -0.6459
18275TIP3    H276241   2.790   2.579  13.531 -0.3543  2.5081  2.4414
18276TIP3   OH276242   6.592   3.941   4.967  0.5951  0.0053 -0.0267
18276TIP3    H176243   6.549   3.962   4.883 -2.0492  0.4979  1.3472
18276TIP3    H276244   6.659   3.876   4.944 -0.6089 -0.5096 -2.4254
18277TIP3   OH276245   5.780   4.870  10.510  0.3659 -0.1361  0.0955
18277TIP3    H176246   5.794   4.916  10.427  0.3767 -2.5408 -1.3393
18277TIP3    H276247   5.695   4.903  10.541  1.1352  2.0236  0.0464
18278TIP3   OH276248   0.026   1.438   0.477 -0.3202 -0.4190  0.2042
18278TIP3    H176249   0.090   1.369   0.462  1.0630  0.6350  0.9572
18278TIP3    H276250   0.078   1.517   0.488 -1.7411  0.4615  1.0216
18279TIP3   OH276251   4.758   4.877  17.103  0.1644  0.3490  0.3914
18279TIP3    H176252   4.820   4.841  17.166  0.7275 -0.3118 -0.5060
18279TIP3    H276253   4.724   4.800  17.057 -0.7424  0.7635  0.3500
18280TIP3   OH276254   6.543   3.425  12.200  0.3948  0.6256  0.2470
18280TIP3    H176255   6.455   3.449  12.170 -0.6519  0.3343  2.8355
18280TIP3    H276256   6.545   3.330  12.195  0.2367  0.5805  1.0016
18281TIP3   OH276257   3.942   2.881  15.300 -0.0675 -0.4029 -0.1118
18281TIP3    H176258   3.953   2.787  15.317 -0.2582 -0.3693  0.2107
18281TIP3    H276259   4.025   2.908  15.260  0.5995 -0.3861  1.2410
18282TIP3   OH276260   4.916   1.889   2.945 -0.0463 -0.4577 -0.4269
18282TIP3    H176261   4.885   1.823   3.007  0.9108 -2.4123 -1.9055
18282TIP3    H276262   4.911   1.972   2.993  2.5933 -2.0498  3.0579
18283TIP3   OH276263   4.218   1.528   3.902 -0.0502 -0.0921 -0.4182
18283TIP3    H176264   4.273   1.460   3.942  0.7990  1.2655  0.8554
18283TIP3    H276265   4.251   1.536   3.813 -1.3773 -2.5684 -1.2209
18284TIP3   OH276266   5.027   5.598   3.135 -0.4011  0.0908 -0.1301
18284TIP3    H176267   5.100   5.543   3.109 -0.3105  0.3741 -0.4695
18284TIP3    H276268   5.066   5.683   3.154 -0.6498  0.2570 -0.3619
18285TIP3   OH276269   5.002   1.490   2.072 -0.2691 -0.0536 -0.1636
18285TIP3    H176270   5.057   1.549   2.021  0.1465 -0.2600  0.0412
18285TIP3    H276271   4.930   1.467   2.013 -0.1951  0.3029 -0.3946
18286TIP3   OH276272   2.885   2.475   0.811 -0.4876  0.4943  0.2239
18286TIP3    H176273   2.866   2.406   0.747  0.5482  2.2649 -2.1254
18286TIP3    H276274   2.800   2.519   0.825 -0.3157  1.6380 -1.9323
18287TIP3   OH276275   1.165   6.594  17.277 -0.2463  0.4575 -0.6606
18287TIP3    H176276   1.167   6.690  17.275  0.6810  0.5196  0.9280
18287TIP3    H276277   1.188   6.573  17.368  0.7643 -1.2995 -1.2985
18288TIP3   OH276278   0.718   3.018   4.963  0.3297  0.0833  0.0088
18288TIP3    H176279   0.641   2.969   4.991  1.0028 -1.3741 -0.6007
18288TIP3    H276280   0.683   3.102   4.933 -0.8162  0.1695  1.4485
18289TIP3   OH276281   4.563   2.577   2.030  0.2216  0.0979  0.0105
18289TIP3    H176282   4.535   2.505   2.087  0.8985 -1.5024 -1.5853
18289TIP3    H276283   4.524   2.655   2.070 -0.4966 -1.1151  1.8441
18290TIP3   OH276284   4.072   0.660  15.114 -0.4701 -0.8158 -0.2629
18290TIP3    H176285   4.113   0.585  15.071  0.2425 -0.9368  0.6040
18290TIP3    H276286   4.098   0.653  15.206  1.8377  1.9253 -0.5781
18291TIP3   OH276287   0.427   0.107   4.543  0.4822 -0.4355 -0.0388
18291TIP3    H176288   0.500   0.169   4.536  0.4499 -0.5780 -3.4185
18291TIP3    H276289   0.350   0.163   4.551  0.7443 -0.2407  1.5398
18292TIP3   OH276290   0.946   6.099   2.842 -0.1672 -0.2923  0.6142
18292TIP3    H176291   0.854   6.098   2.814 -0.6460 -1.1048  2.0948
18292TIP3    H276292   0.995   6.087   2.761 -1.2698  1.5836 -0.4263
18293TIP3   OH276293   5.454   5.527  11.822  0.2482 -0.5227 -0.7733
18293TIP3    H176294   5.406   5.591  11.875  1.4446  0.5365 -0.9095
18293TIP3    H276295   5.388   5.488  11.765 -0.7327 -0.3461  0.2178
18294TIP3   OH276296   2.963   0.647   0.155  0.1062 -0.1164 -0.4004
18294TIP3    H176297   2.957   0.698   0.236 -1.9354 -0.5462 -0.2451
18294TIP3    H276298   3.056   0.653   0.131  0.7785  0.0322  1.9365
18295TIP3   OH276299   5.344   1.354   6.653 -0.8750  1.0431 -0.2011
18295TIP3    H176300   5.341   1.284   6.718  0.8968 -0.5850 -1.7699
18295TIP3    H276301   5.261   1.347   6.607 -0.6729 -0.1447 -0.4244
18296TIP3   OH276302   0.876   4.247   6.493  0.1774  0.3367  0.0964
18296TIP3    H176303   0.901   4.254   6.585 -0.0968  1.1168  0.1173
18296TIP3    H276304   0.792   4.291   6.487 -0.0467 -0.1467 -0.4369
18297TIP3   OH276305   1.587   1.078   2.880 -0.1405 -0.2287 -0.2826
18297TIP3    H176306   1.528   1.002   2.881 -0.0312 -0.3465 -1.2734
18297TIP3    H276307   1.675   1.040   2.881 -0.0852 -0.1305 -0.8844
18298TIP3   OH276308   1.883   4.958  12.253  0.1907 -0.2680 -0.4420
18298TIP3    H176309   1.900   5.037  12.304  0.5005 -0.9196  0.4932
18298TIP3    H276310   1.787   4.951  12.252  0.1782 -0.2031 -0.0120
18299TIP3   OH276311   6.015   3.188  14.801 -0.2785 -0.3375  0.7353
18299TIP3    H176312   6.062   3.172  14.883  1.7272  0.6728 -0.1511
18299TIP3    H276313   6.030   3.109  14.749  1.9092  0.5806 -0.1513
18300TIP3   OH276314   3.570   4.224  13.498 -0.4030 -0.1700  0.7543
18300TIP3    H176315   3.534   4.304  13.459  0.2347 -0.8753 -1.4174
18300TIP3    H276316   3.661   4.223  13.471 -0.7914 -2.4447 -0.7352
18301TIP3   OH276317   5.365   3.778  14.469 -0.0953  0.0810  0.2142
18301TIP3    H176318   5.326   3.865  14.466 -0.4198 -0.0167  1.1925
18301TIP3    H276319   5.455   3.791  14.441 -0.3917  0.5709 -0.5418
18302TIP3   OH276320   4.281   5.736   1.821  0.4559  0.0396 -0.1598
18302TIP3    H176321   4.229   5.704   1.747 -0.1603  1.3281 -0.3111
18302TIP3    H276322   4.228   5.806   1.860  0.0983 -1.5435  2.4149
18303TIP3   OH276323   5.245   0.725  13.235 -0.1513  0.7573 -0.5411
18303TIP3    H176324   5.266   0.637  13.203  0.0447  0.3609  0.6180
18303TIP3    H276325   5.218   0.773  13.157  0.2053 -0.1916 -1.2720
18304TIP3   OH276326   5.478   3.129  13.506 -0.1377  0.2469  0.1094
18304TIP3    H176327   5.397   3.126  13.455 -1.3162 -1.3877  1.9336
18304TIP3    H276328   5.459   3.078  13.585  2.3281  0.7490  1.1307
18305TIP3   OH276329   2.489   4.772   0.900  0.4289 -0.3518 -0.1785
18305TIP3    H176330   2.410   4.792   0.950  0.0067 -0.2676 -0.8752
18305TIP3    H276331   2.528   4.698   0.945  0.1119 -0.2056  0.3426
18306TIP3   OH276332   1.438   5.321   4.789  0.4678 -0.5441 -0.2310
18306TIP3    H176333   1.378   5.306   4.862 -1.0897  2.2473 -0.7830
18306TIP3    H276334   1.415   5.409   4.757  2.2017 -0.9838 -3.0276
18307TIP3   OH276335   5.612   0.325  15.753  0.0178 -0.0632 -0.5873
18307TIP3    H176336   5.638   0.417  15.746  2.2261 -0.6863 -1.5058
18307TIP3    H276337   5.550   0.323  15.826  0.9989  1.9400  0.3940
18308TIP3   OH276338   2.328   3.487   5.763  0.6372  0.4144 -0.1291
18308TIP3    H176339   2.258   3.421   5.761 -0.2935  1.2628  1.9549
18308TIP3    H276340   2.333   3.514   5.854  1.9906  2.2046 -0.6848
18309TIP3   OH276341   0.838   1.245   1.636  0.0795 -0.5129 -0.2145
18309TIP3    H176342   0.869   1.154   1.628  2.2059  0.0155  1.3230
18309TIP3    H276343   0.855   1.269   1.727 -5.0737 -0.0789  0.9314
18310TIP3   OH276344   3.919   4.373   6.110  0.3315 -0.7883 -0.0433
18310TIP3    H176345   3.994   4.327   6.146 -0.2016 -1.9402 -0.3610
18310TIP3    H276346   3.844   4.318   6.132 -0.3866  0.1731 -0.0173
18311TIP3   OH276347   5.841   5.291   3.306  0.1463 -0.4802 -0.1436
18311TIP3    H176348   5.865   5.335   3.225  1.0461 -0.1129  0.3037
18311TIP3    H276349   5.756   5.252   3.288  0.3192 -0.3861 -1.2523
18312TIP3   OH276350   3.356   5.646  15.432 -0.3900  0.0474 -0.6870
18312TIP3    H176351   3.376   5.568  15.381 -0.0358 -0.3880  0.1118
18312TIP3    H276352   3.397   5.717  15.382  1.2625 -0.5563 -0.2537
18313TIP3   OH276353   5.872   2.187   2.812  0.4157  0.3189  0.5618
18313TIP3    H176354   5.845   2.116   2.872 -2.9023  0.2168 -0.8236
18313TIP3    H276355   5.803   2.252   2.821  0.5834  0.9428 -2.0606
18314TIP3   OH276356   6.044   5.745  14.499 -0.3389  0.0219 -0.1168
18314TIP3    H176357   6.109   5.764  14.432  1.1992  0.7970  1.5282
18314TIP3    H276358   5.975   5.810  14.483  1.1548  1.8571  0.5057
18315TIP3   OH276359   5.964   5.315  16.092  0.1889 -0.0781 -0.3531
18315TIP3    H176360   5.920   5.398  16.075  0.6157 -0.4111 -3.8328
18315TIP3    H276361   6.047   5.340  16.134  0.1794  1.2543 -1.0584
18316TIP3   OH276362   4.857   4.657   4.535 -0.4918  0.2827 -0.1741
18316TIP3    H176363   4.869   4.731   4.476 -2.7909  0.1693 -0.8636
18316TIP3    H276364   4.874   4.693   4.622  0.2421  1.1300 -0.6527
18317TIP3   OH276365   2.280   1.122  16.864 -0.0036 -0.1348  0.0895
18317TIP3    H176366   2.257   1.138  16.772 -1.9585  0.8962  0.7234
18317TIP3    H276367   2.328   1.200  16.891 -0.8532  0.2887  0.3908
18318TIP3   OH276368   4.152   3.079   1.310 -0.2286  0.1022  0.0079
18318TIP3    H176369   4.142   3.084   1.405 -0.1418 -0.0850  0.0278
18318TIP3    H276370   4.081   3.133   1.276 -0.3403  0.0647  0.1775
18319TIP3   OH276371   1.675   0.485  16.149  0.3615 -0.3395  0.4335
18319TIP3    H176372   1.761   0.523  16.129  0.9008 -0.8279  1.7312
18319TIP3    H276373   1.691   0.428  16.224 -1.6108  1.7752  2.6044
18320TIP3   OH276374   4.328   6.557   0.651  0.0169  0.3987  0.0598
18320TIP3    H176375   4.274   6.636   0.647  0.8836  0.9834 -0.5607
18320TIP3    H276376   4.416   6.590   0.669  0.2839 -0.4781  0.3748
18321TIP3   OH276377   0.374   3.531  16.180  0.4503  0.1287  0.1602
18321TIP3    H176378   0.332   3.614  16.205  0.4490 -0.0050  0.6119
18321TIP3    H276379   0.450   3.558  16.129 -0.2122  0.3732 -0.7285
18322TIP3   OH276380   5.024   4.005   5.552  0.8321  0.1845 -0.4265
18322TIP3    H176381   5.074   4.018   5.632 -1.6118  0.3423  1.1541
18322TIP3    H276382   4.959   3.938   5.574 -1.5058  1.9981 -1.4545
18323TIP3   OH276383   5.708   4.702   4.730  0.4609 -0.0842 -0.3201
18323TIP3    H176384   5.734   4.762   4.661 -1.2411  0.9089 -0.1625
18323TIP3    H276385   5.623   4.668   4.702  0.6919 -1.2742  0.3197
18324TIP3   OH276386   2.605   3.553   2.214  0.2821 -0.2426 -0.0942
18324TIP3    H176387   2.540   3.558   2.284  0.5923 -1.1823  0.2752
18324TIP3    H276388   2.622   3.459   2.204  0.5320 -0.0965 -1.1592
18325TIP3   OH276389   4.633   5.494   2.972  0.2958 -0.3372 -0.2322
18325TIP3    H176390   4.664   5.427   3.033 -0.1401 -1.0522 -0.7901
18325TIP3    H276391   4.554   5.457   2.933 -0.2458  0.7174 -0.1659
18326TIP3   OH276392   5.537   3.713   2.741  0.5566  0.1734  0.1167
18326TIP3    H176393   5.574   3.664   2.667 -1.4329 -0.5733 -0.4485
18326TIP3    H276394   5.444   3.721   2.720  0.2311  1.3083  1.8194
18327TIP3   OH276395   5.943   3.667  14.494  0.3482  0.1300 -0.2926
18327TIP3    H176396   5.938   3.722  14.416 -0.7693  0.5137  0.0309
18327TIP3    H276397   5.971   3.727  14.564 -0.1576  0.1304 -0.0890
18328TIP3   OH276398   2.000   5.660  12.473  0.1220  0.1668  0.3363
18328TIP3    H176399   2.042   5.695  12.551 -1.5249  1.3740  0.7481
18328TIP3    H276400   2.052   5.695  12.400 -0.6997  2.5048  0.7883
18329TIP3   OH276401   1.919   4.053  11.610 -0.6728  0.0506 -0.1705
18329TIP3    H176402   1.990   4.102  11.569 -1.0465  0.8490  0.1327
18329TIP3    H276403   1.839   4.094  11.578 -0.9773  0.5104  1.1143
18330TIP3   OH276404   3.795   4.185  12.562  0.9976 -0.3744  0.1399
18330TIP3    H176405   3.784   4.229  12.646  2.6926  1.1817 -0.3632
18330TIP3    H276406   3.890   4.181  12.549  0.7930 -0.9595 -1.5065
18331TIP3   OH276407   0.888   0.154   4.979 -0.1433 -0.4890  0.5461
18331TIP3    H176408   0.943   0.138   5.056 -1.2558  0.4810  1.5713
18331TIP3    H276409   0.815   0.207   5.012 -0.8095 -0.3244 -1.1180
18332TIP3   OH276410   2.133   5.829   2.195 -0.4038 -0.2871  0.4896
18332TIP3    H176411   2.166   5.771   2.263 -0.7834  0.8192  1.6584
18332TIP3    H276412   2.205   5.889   2.177 -0.8046  0.3441  0.9807
18333TIP3   OH276413   6.336   0.698  12.679 -0.3819  0.1422 -0.6160
18333TIP3    H176414   6.390   0.733  12.609  0.6862 -1.4183 -0.6085
18333TIP3    H276415   6.248   0.692  12.641  0.2642 -1.0746 -1.9601
18334TIP3   OH276416   5.526   1.810   6.114 -0.4323 -0.8492 -0.3224
18334TIP3    H176417   5.433   1.808   6.135 -1.0016  0.3457 -2.3814
18334TIP3    H276418   5.538   1.740   6.050 -0.1867 -0.2795 -0.9213
18335TIP3   OH276419   5.508   2.104   4.775  0.4852  0.6064 -0.6869
18335TIP3    H176420   5.553   2.049   4.839 -0.8931  0.2950  0.0609
18335TIP3    H276421   5.576   2.129   4.712  1.7720  0.5638  0.6505
18336TIP3   OH276422   3.001   4.106   2.247 -0.1060 -0.1183 -0.0398
18336TIP3    H176423   2.953   4.174   2.200  0.3928 -0.6857 -1.4011
18336TIP3    H276424   3.040   4.152   2.321 -1.2801  0.7024  0.1082
18337TIP3   OH276425   1.880   0.846   4.303 -0.1135  0.0085  0.7690
18337TIP3    H176426   1.858   0.939   4.316 -0.6663 -0.2175  1.5428
18337TIP3    H276427   1.940   0.826   4.375  1.8105  0.3252 -0.6832
18338TIP3   OH276428   4.447   3.685  16.649  0.2971  0.1385  0.2193
18338TIP3    H176429   4.534   3.695  16.610  0.4199 -0.6602  0.2774
18338TIP3    H276430   4.411   3.607  16.607  0.2587 -0.4796  1.3738
18339TIP3   OH276431   4.307   2.965   3.298 -0.3546  0.0471  0.0870
18339TIP3    H176432   4.320   3.059   3.284  0.6743 -0.4991 -3.8646
18339TIP3    H276433   4.217   2.958   3.329 -0.3254  2.3430  0.8857
18340TIP3   OH276434   1.919   5.638  10.654 -0.0110  0.3123 -0.5968
18340TIP3    H176435   1.892   5.726  10.628  0.6832  1.0433  1.0229
18340TIP3    H276436   1.877   5.580  10.590 -1.5390  1.7100 -0.9299
18341TIP3   OH276437   6.538   2.325   3.067 -0.4621  0.1902 -0.0775
18341TIP3    H176438   6.473   2.274   3.019 -1.2213  0.5655  0.5320
18341TIP3    H276439   6.584   2.260   3.120 -0.8707  0.0233  0.0764
18342TIP3   OH276440   5.511   3.591  16.833  0.1200  0.5557 -0.1777
18342TIP3    H176441   5.568   3.599  16.909 -0.1614 -1.4803  0.2993
18342TIP3    H276442   5.447   3.662  16.843  0.0758  0.3078  1.4884
18343TIP3   OH276443   0.323   6.186   2.662  0.4513  0.1349 -0.0300
18343TIP3    H176444   0.239   6.214   2.699  0.0283  0.5738 -1.2434
18343TIP3    H276445   0.300   6.151   2.576  1.4210 -0.5742 -0.0085
18344TIP3   OH276446   2.147   5.590   4.480  0.0595  0.0959  0.0445
18344TIP3    H176447   2.223   5.566   4.533 -0.5683 -0.7230  0.6022
18344TIP3    H276448   2.167   5.556   4.393  1.0778  1.4073 -0.2689
18345TIP3   OH276449   1.406   2.958  14.079  0.7333 -0.1869  0.6037
18345TIP3    H176450   1.391   3.025  14.145 -1.2098  2.8781 -2.6067
18345TIP3    H276451   1.494   2.975  14.047  1.9922 -2.1852  2.7509
18346TIP3   OH276452   2.131   5.060   5.616  0.6947  0.5248  0.2799
18346TIP3    H176453   2.130   5.060   5.520 -0.7855  1.0870  0.2671
18346TIP3    H276454   2.203   5.118   5.640  0.2071  1.4761 -0.5067
18347TIP3   OH276455   1.314   6.666   4.145 -0.8035 -0.0375 -0.1411
18347TIP3    H176456   1.302   6.690   4.053  0.3517  0.5732 -0.1596
18347TIP3    H276457   1.361   6.583   4.142  0.2555  0.5438 -0.1305
18348TIP3   OH276458   2.182   3.053   0.890 -0.2576 -0.0795 -1.0788
18348TIP3    H176459   2.129   3.044   0.969 -0.3244  0.5212 -1.0450
18348TIP3    H276460   2.148   2.987   0.830 -0.0290 -0.7173 -0.5148
18349TIP3   OH276461   1.226   0.059   0.603 -0.4683  0.1772  0.3078
18349TIP3    H176462   1.168   0.013   0.665  0.6511  0.5238  1.6679
18349TIP3    H276463   1.290  -0.007   0.578 -0.9871  0.0061 -0.6102
18350TIP3   OH276464   4.190   5.819  16.243 -0.2533  0.2842  0.0086
18350TIP3    H176465   4.140   5.898  16.222  0.2277  0.6081  0.0810
18350TIP3    H276466   4.228   5.792  16.159  2.3271  2.0275  0.5093
18351TIP3   OH276467   4.436   4.129  14.027 -0.0888  0.3399  0.2799
18351TIP3    H176468   4.460   4.123  13.934  1.2511 -0.1728  0.6385
18351TIP3    H276469   4.465   4.216  14.053  3.5122 -0.9613  1.2152
18352TIP3   OH276470   4.905   0.963  11.942  0.4727  0.7422  0.1192
18352TIP3    H176471   4.819   1.005  11.950  0.1230  0.3098 -1.0926
18352TIP3    H276472   4.956   1.023  11.887  0.8422  0.8461  0.5743
18353TIP3   OH276473   0.887   6.555   0.476  0.7776  0.1484  0.2834
18353TIP3    H176474   0.971   6.526   0.512  0.9014 -1.1218 -0.9219
18353TIP3    H276475   0.911   6.611   0.402  0.5529  0.4310  0.4237
18354TIP3   OH276476   6.307   1.003  16.192  0.2248  0.4847 -0.2754
18354TIP3    H176477   6.386   1.003  16.139  0.8107  0.3101  0.5844
18354TIP3    H276478   6.292   0.911  16.213 -0.2183  0.5150 -0.4484
18355TIP3   OH276479   0.164   4.804  16.864 -0.8924  0.2212  0.1412
18355TIP3    H176480   0.077   4.772  16.844 -0.0937 -0.9564 -1.6504
18355TIP3    H276481   0.165   4.894  16.832 -1.7092  0.5603  1.0220
18356TIP3   OH276482   5.032   5.161   0.181 -0.1251  0.7886  0.6360
18356TIP3    H176483   5.064   5.246   0.211  0.3526  0.5923  0.6976
18356TIP3    H276484   5.082   5.097   0.233  0.0228  0.4650  0.1054
18357TIP3   OH276485   1.088   1.556  11.204  0.4650  0.5208 -0.9020
18357TIP3    H176486   1.144   1.565  11.281 -0.2447 -0.3344 -0.2718
18357TIP3    H276487   1.117   1.626  11.145  0.3180  1.8858  0.5759
18358TIP3   OH276488   1.500   0.310  10.798 -0.1581 -0.0235  0.7447
18358TIP3    H176489   1.450   0.256  10.859 -1.1997 -0.3549 -0.3647
18358TIP3    H276490   1.591   0.299  10.825 -0.4254 -1.6445  1.0900
18359TIP3   OH276491   0.268   2.641  13.136  0.5358 -0.4012 -0.5133
18359TIP3    H176492   0.286   2.555  13.175  0.1731  0.0643  0.7382
18359TIP3    H276493   0.255   2.622  13.043  0.6358 -1.6762 -0.2975
18360TIP3   OH276494   0.961   5.243   5.539 -0.0343 -0.0817 -0.1088
18360TIP3    H176495   0.983   5.157   5.504  0.4197  0.1758 -0.4730
18360TIP3    H276496   0.897   5.278   5.477 -1.1586 -0.6489  0.7083
18361TIP3   OH276497   1.024   2.148   4.134 -0.0068  0.5089  0.2085
18361TIP3    H176498   1.068   2.063   4.138 -0.1772  0.4427  0.9582
18361TIP3    H276499   1.093   2.211   4.158 -0.1321  0.4736  0.6805
18362TIP3   OH276500   1.535   2.399   2.388 -0.5001 -0.1614  0.0709
18362TIP3    H176501   1.525   2.305   2.375 -2.6049 -0.1726  1.3476
18362TIP3    H276502   1.534   2.411   2.483 -1.1414  1.2295 -0.0889
18363TIP3   OH276503   3.069   3.456  12.081  0.0621  0.7747  0.8141
18363TIP3    H176504   3.006   3.384  12.076 -0.6832  1.3717  1.4162
18363TIP3    H276505   3.154   3.414  12.068 -0.3269 -0.2891  1.5781
18364TIP3   OH276506   5.693   4.071   2.065  0.2987  1.0744 -0.0150
18364TIP3    H176507   5.739   4.147   2.031 -1.3936  2.5288  0.7889
18364TIP3    H276508   5.648   4.035   1.989  1.8045  0.2854 -0.5817
18365TIP3   OH276509   0.110   2.759  12.706  0.8358  0.1369  0.2429
18365TIP3    H176510   0.097   2.669  12.736 -0.0125 -0.4083 -1.5567
18365TIP3    H276511   0.034   2.807  12.740  1.5789  0.3301  1.6778
18366TIP3   OH276512   3.659   4.965   5.779  0.2280  0.3873 -0.3975
18366TIP3    H176513   3.692   4.979   5.867 -0.6164  0.6699 -0.1129
18366TIP3    H276514   3.656   5.053   5.741  1.6810  0.1488 -1.1247
18367TIP3   OH276515   2.442   0.459  13.568 -0.1066  0.1248 -0.1039
18367TIP3    H176516   2.400   0.528  13.517  2.1820  1.9420  0.3297
18367TIP3    H276517   2.437   0.489  13.659  0.6687 -0.4223  0.1325
18368TIP3   OH276518   0.664   0.177   2.407  0.5902  0.3100  0.2376
18368TIP3    H176519   0.716   0.213   2.335  0.6355 -0.4095 -0.1035
18368TIP3    H276520   0.587   0.233   2.412 -1.1877 -1.5351 -2.6916
18369TIP3   OH276521   5.183   6.019   5.345  0.2695 -0.5343  0.2948
18369TIP3    H176522   5.272   6.021   5.310  0.5766  0.1902  1.0865
18369TIP3    H276523   5.178   5.936   5.393  1.4071  0.5238  2.4169
18370TIP3   OH276524   5.285   5.106   5.069  0.1622  0.3066 -0.4356
18370TIP3    H176525   5.246   5.189   5.045 -0.8181 -0.5113 -1.7916
18370TIP3    H276526   5.221   5.065   5.127  0.6914  0.5099  0.3218
18371TIP3   OH276527   6.048   3.281   0.054  0.6589 -0.5969 -0.1556
18371TIP3    H176528   6.023   3.350   0.116  0.2249 -1.1810  0.3302
18371TIP3    H276529   6.079   3.209   0.108  1.7795 -0.5392 -0.6894
18372TIP3   OH276530   0.222   3.842  15.838 -0.4098 -0.7426  0.2697
18372TIP3    H176531   0.208   3.749  15.851  2.1928 -1.2403  0.1909
18372TIP3    H276532   0.272   3.848  15.757  0.4836  0.5902  0.8752
18373TIP3   OH276533   4.968   0.462  14.598 -0.0335 -0.0579  0.1034
18373TIP3    H176534   4.921   0.379  14.585  0.9405 -0.4398 -1.2835
18373TIP3    H276535   5.060   0.440  14.583  0.2943  1.1852  0.1551
18374TIP3   OH276536   0.568   6.411   0.369  0.1231  0.0721  0.1046
18374TIP3    H176537   0.533   6.333   0.325  0.1766 -1.3440  2.3996
18374TIP3    H276538   0.569   6.478   0.301 -1.8204 -1.3591 -1.4828
18375TIP3   OH276539   4.366   1.588   3.122 -0.1092 -0.0542  0.5174
18375TIP3    H176540   4.425   1.519   3.151  0.0988 -0.4395 -0.7470
18375TIP3    H276541   4.321   1.618   3.201  1.1241 -0.3789  1.3525
18376TIP3   OH276542   5.034   1.031   3.313  0.7730  0.1101  0.2074
18376TIP3    H176543   5.025   1.112   3.363  2.5669  1.4914 -1.5370
18376TIP3    H276544   5.022   1.058   3.222  3.0421 -1.2212 -0.5816
18377TIP3   OH276545   6.738   1.528   6.036  0.3883  0.1692 -0.0302
18377TIP3    H176546   6.670   1.479   6.082 -0.4228  0.9420 -0.3685
18377TIP3    H276547   6.723   1.508   5.944 -0.8143  2.0254 -0.3040
18378TIP3   OH276548   5.730   1.605   2.014 -0.1035 -0.5451 -0.4570
18378TIP3    H176549   5.788   1.681   2.018 -1.7953  0.8365 -0.9640
18378TIP3    H276550   5.735   1.574   1.924 -0.9212  0.2286 -0.7796
18379TIP3   OH276551   4.992   2.783   2.211 -0.4238 -0.0999  0.0354
18379TIP3    H176552   4.934   2.853   2.241 -0.3540  1.0204 -2.2461
18379TIP3    H276553   4.932   2.716   2.177 -0.4534 -0.2509  0.3887
18380TIP3   OH276554   4.458   6.223  16.720  0.0193  0.4137 -0.5555
18380TIP3    H176555   4.519   6.296  16.723  0.3766  0.1253 -0.6947
18380TIP3    H276556   4.509   6.147  16.747  0.0638 -0.0464 -1.8517
18381TIP3   OH276557   2.416   2.122   2.875  0.1270 -0.4161 -0.1213
18381TIP3    H176558   2.405   2.161   2.962 -0.9281 -1.2496  0.1411
18381TIP3    H276559   2.366   2.040   2.879 -0.2789 -0.2705 -1.6428
18382TIP3   OH276560   4.392   2.068   5.682  0.6144 -0.4158 -0.3321
18382TIP3    H176561   4.331   2.140   5.666 -0.7657 -1.6659 -0.8874
18382TIP3    H276562   4.445   2.098   5.756 -0.4376  0.8634 -0.0532
18383TIP3   OH276563   1.820   3.087  11.314  0.2783 -0.9107 -0.0804
18383TIP3    H176564   1.759   3.041  11.257 -0.7090 -0.0223  0.2219
18383TIP3    H276565   1.831   3.029  11.389 -1.1900 -0.5467  0.4432
18384TIP3   OH276566   2.661   2.174  11.066 -0.4431  0.3289  0.2209
18384TIP3    H176567   2.737   2.116  11.076 -0.3243  0.5953  0.9480
18384TIP3    H276568   2.676   2.220  10.983  1.0580  1.6125  1.1573
18385TIP3   OH276569   6.336   3.097   5.121  0.0325 -0.0688  0.2653
18385TIP3    H176570   6.256   3.151   5.121 -0.6275 -1.0141  1.4318
18385TIP3    H276571   6.363   3.094   5.212  1.4630  0.2749 -0.1226
18386TIP3   OH276572   4.123   4.807  12.958  0.2745  0.6249  0.4379
18386TIP3    H176573   4.030   4.801  12.981  0.8417 -2.3650  2.4992
18386TIP3    H276574   4.126   4.786  12.865 -1.1247  1.2553  0.2203
18387TIP3   OH276575   4.037   0.514  12.582  0.0017 -0.0534 -0.5504
18387TIP3    H176576   4.020   0.466  12.500  1.7967  1.8107 -2.1064
18387TIP3    H276577   4.096   0.457  12.631 -0.6647 -0.9488 -0.7459
18388TIP3   OH276578   6.386   3.293  15.295  0.2220 -0.0597  0.2389
18388TIP3    H176579   6.367   3.356  15.365 -1.2916  2.0716 -1.9202
18388TIP3    H276580   6.302   3.281  15.251  1.4410  0.1662 -2.3356
18389TIP3   OH276581   0.042   4.927  15.998 -0.1760 -0.5657 -0.3001
18389TIP3    H176582  -0.002   4.915  15.914 -1.8647 -1.1872  0.6244
18389TIP3    H276583   0.042   4.840  16.038 -0.3782 -0.0727  0.8039
18390TIP3   OH276584   2.094   3.596  15.062  0.0672 -0.1846  0.6519
18390TIP3    H176585   2.135   3.621  14.979  0.6294  0.2856  1.0689
18390TIP3    H276586   2.149   3.526  15.096 -0.5774 -0.8842  0.2850
18391TIP3   OH276587   3.681   6.373  13.522 -0.3286 -0.1686 -0.3388
18391TIP3    H176588   3.619   6.309  13.554 -1.4934  1.5960  1.0838
18391TIP3    H276589   3.725   6.406  13.600 -1.2783  2.2503 -0.7303
18392TIP3   OH276590   2.948   0.129  11.826  0.0707 -0.2969 -0.2484
18392TIP3    H176591   2.952   0.184  11.748 -1.7043  0.5316  0.1845
18392TIP3    H276592   2.983   0.184  11.896  0.4544 -0.5744 -0.2176
18393TIP3   OH276593   2.337   5.523  12.487  0.1188  0.0708 -0.9287
18393TIP3    H176594   2.304   5.610  12.510  2.0841  0.3263  1.3421
18393TIP3    H276595   2.432   5.534  12.481  0.3699 -1.8182 -1.1394
18394TIP3   OH276596   2.703   6.595  15.531 -0.0842 -0.2504 -0.4707
18394TIP3    H176597   2.621   6.643  15.548 -0.0677  0.4292 -2.1682
18394TIP3    H276598   2.677   6.522  15.476  0.7200  1.2765 -3.0136
18395TIP3   OH276599   5.061   5.170  17.161 -0.3738  0.3758  0.7466
18395TIP3    H176600   5.022   5.257  17.173 -0.8669  0.2084  0.3737
18395TIP3    H276601   5.003   5.126  17.099 -1.4144 -1.0307  2.6096
18396TIP3   OH276602   2.151   1.341   5.104  0.3950  0.2737 -0.2671
18396TIP3    H176603   2.056   1.355   5.102  0.3527  0.3688  1.3184
18396TIP3    H276604   2.187   1.427   5.124  0.7890  0.1533 -0.4610
18397TIP3   OH276605   5.089   4.732   0.179  0.1965  0.6479  0.6988
18397TIP3    H176606   5.011   4.718   0.126  0.1849  0.2221  0.8268
18397TIP3    H276607   5.056   4.762   0.264  0.2064  1.1434  0.5314
18398TIP3   OH276608   5.064   0.868  12.417  0.2719  0.6724 -0.2311
18398TIP3    H176609   5.071   0.948  12.469  1.1312  0.5344 -0.1257
18398TIP3    H276610   5.092   0.894  12.329 -0.3747  0.7082 -0.4304
18399TIP3   OH276611   6.471   0.466   4.073  0.3741  0.7513 -0.1125
18399TIP3    H176612   6.492   0.464   3.979  0.7361  0.4634 -0.0285
18399TIP3    H276613   6.539   0.520   4.112 -0.6993  2.2523 -0.2285
18400TIP3   OH276614   3.719   4.215   6.147  0.1151  0.1003 -0.6818
18400TIP3    H176615   3.697   4.127   6.179  0.5310  0.0937 -0.4057
18400TIP3    H276616   3.721   4.205   6.052  0.4386 -0.2627 -0.6425
18401TIP3   OH276617   0.986   5.252  11.615 -0.5814  0.2912 -0.7070
18401TIP3    H176618   1.030   5.193  11.554 -1.0770 -0.2606 -0.5356
18401TIP3    H276619   0.905   5.207  11.639  0.1004  0.0004  1.2096
18402TIP3   OH276620   5.773   6.096  12.059 -0.3955  0.0001  0.1292
18402TIP3    H176621   5.816   6.018  12.021  0.0591 -0.0969  0.8269
18402TIP3    H276622   5.710   6.123  11.992 -0.1331 -0.6120 -0.3805
18403TIP3   OH276623   5.292   3.094  13.314  0.0344  0.3918 -0.0942
18403TIP3    H176624   5.252   3.007  13.323 -0.5544  0.6353 -0.3233
18403TIP3    H276625   5.232   3.142  13.258  0.2209  1.0372  0.2523
18404TIP3   OH276626   4.423   6.180   1.629  0.3702  0.3738 -0.6523
18404TIP3    H176627   4.363   6.115   1.668  1.3079 -0.5344 -0.6650
18404TIP3    H276628   4.485   6.200   1.700  0.7855  0.3566 -1.0045
18405TIP3   OH276629   1.077   1.080  17.128  0.1191  0.0811 -0.9289
18405TIP3    H176630   1.152   1.122  17.170 -0.2105  1.3942 -1.5770
18405TIP3    H276631   1.105   1.068  17.037  0.8937 -2.8805 -0.4140
18406TIP3   OH276632   0.449   4.165   0.733 -0.0130 -0.2090  0.4906
18406TIP3    H176633   0.416   4.216   0.807  1.3296  0.6959  0.4912
18406TIP3    H276634   0.491   4.089   0.773  1.1397  0.5230  0.7144
18407TIP3   OH276635   2.251   3.420  15.215 -0.0945 -0.1159 -0.1125
18407TIP3    H176636   2.176   3.375  15.254 -0.4597  0.5362 -0.0458
18407TIP3    H276637   2.323   3.357  15.222 -0.5345 -0.5951  0.1938
18408TIP3   OH276638   3.238   2.777  17.308  0.6039 -0.5412  0.2916
18408TIP3    H176639   3.265   2.800  17.219  0.6763 -0.6376  0.2896
18408TIP3    H276640   3.173   2.708  17.297 -1.6195  1.4614  0.1755
18409TIP3   OH276641   6.104   3.979  14.384 -0.4427 -0.4983 -0.5733
18409TIP3    H176642   6.041   3.922  14.339 -1.2200 -0.1536  0.0543
18409TIP3    H276643   6.134   3.927  14.459 -0.9139 -0.2208 -0.1814
18410TIP3   OH276644   1.722   3.922   4.645 -0.0083 -0.2952  0.1067
18410TIP3    H176645   1.744   3.960   4.729 -2.2267  0.4391  0.4091
18410TIP3    H276646   1.758   3.833   4.649  2.6200  0.7041  0.5535
18411TIP3   OH276647   6.295   1.127  16.959 -0.1269  0.3759  0.5351
18411TIP3    H176648   6.387   1.107  16.939 -0.2822  0.4865 -0.3267
18411TIP3    H276649   6.263   1.172  16.880 -2.0946 -3.2662 -0.9733
18412TIP3   OH276650   5.436   3.835   0.545  0.2702  0.5441  0.1756
18412TIP3    H176651   5.495   3.897   0.587  1.2410 -0.1057 -0.1835
18412TIP3    H276652   5.489   3.756   0.533 -0.7623 -0.1628  0.1034
18413TIP3   OH276653   4.964   1.421   4.730 -0.5551  0.2204 -0.1132
18413TIP3    H176654   4.905   1.488   4.697 -0.6543  1.6907  2.6980
18413TIP3    H276655   4.935   1.340   4.688 -0.4053  1.8318 -3.6773
18414TIP3   OH276656   2.438   6.261   4.596 -0.4108  0.1450  0.0503
18414TIP3    H176657   2.489   6.205   4.537  0.1021  1.8453 -1.1986
18414TIP3    H276658   2.350   6.261   4.559 -0.3933  0.2363  0.0103
18415TIP3   OH276659   2.715   4.145  13.939  0.1362  0.2138  0.0322
18415TIP3    H176660   2.632   4.097  13.933 -0.0608  0.6961 -1.3989
18415TIP3    H276661   2.727   4.183  13.852  1.9308  0.0476  0.1819
18416TIP3   OH276662   3.320   0.707  17.002 -0.2144 -0.3913  0.0451
18416TIP3    H176663   3.326   0.801  16.984 -0.3988  0.0155  1.9190
18416TIP3    H276664   3.229   0.693  17.026  0.0541 -0.8258  0.8483
18417TIP3   OH276665   2.595   3.147  13.945  0.0931 -0.0132 -0.6255
18417TIP3    H176666   2.604   3.235  13.981  0.6612 -0.0906 -0.5728
18417TIP3    H276667   2.682   3.125  13.913  0.8944 -1.9048  2.4575
18418TIP3   OH276668   2.380   1.388   1.086  0.2302 -0.5281 -0.4987
18418TIP3    H176669   2.313   1.321   1.070  0.2601 -1.2920  2.1239
18418TIP3    H276670   2.334   1.470   1.072 -1.1267 -1.0476  0.6712
18419TIP3   OH276671   6.449   2.864   6.377 -0.5654  0.0564  0.5512
18419TIP3    H176672   6.483   2.942   6.421  1.2782 -0.5578  0.3225
18419TIP3    H276673   6.461   2.794   6.440 -0.0820 -0.4143 -0.0414
18420TIP3   OH276674   2.528   5.330   0.736 -0.0317 -0.1469  0.0477
18420TIP3    H176675   2.559   5.292   0.818 -1.6663  1.2394  1.3938
18420TIP3    H276676   2.444   5.286   0.720 -0.1986  0.3067 -0.3362
18421TIP3   OH276677   5.248   6.265   6.271 -0.2502  0.6826 -0.2679
18421TIP3    H176678   5.336   6.234   6.295 -0.0795  0.9593 -0.5255
18421TIP3    H276679   5.215   6.197   6.211 -0.6066  0.0838  0.5839
18422TIP3   OH276680   2.307   5.984   1.137 -0.3457 -0.1099 -0.1213
18422TIP3    H176681   2.240   5.950   1.078 -1.2838  0.6636  0.4735
18422TIP3    H276682   2.353   5.907   1.169  0.3739 -0.5363 -2.0632
18423TIP3   OH276683   3.659   3.131  14.560 -0.0091 -0.6285 -0.5061
18423TIP3    H176684   3.670   3.217  14.518  0.6949  0.2928  1.4587
18423TIP3    H276685   3.739   3.084  14.539  0.7539  0.1693  0.5253
18424TIP3   OH276686   5.528   3.399   2.888  0.1545 -0.8242  0.4744
18424TIP3    H176687   5.561   3.337   2.954  0.1974 -1.5069 -0.1773
18424TIP3    H276688   5.500   3.475   2.939  0.2070 -1.3326  1.2850
18425TIP3   OH276689   3.314   3.242  12.592  0.3775 -0.0463 -0.0323
18425TIP3    H176690   3.298   3.210  12.681 -3.2642  1.7501  0.1542
18425TIP3    H276691   3.323   3.163  12.539  0.9837 -1.1687  1.6811
18426TIP3   OH276692   4.417   3.443  17.167  0.0830 -0.1117  0.3156
18426TIP3    H176693   4.351   3.501  17.205 -2.5069 -1.5937 -1.5762
18426TIP3    H276694   4.400   3.358  17.206  1.7396 -0.3056  0.6900
18427TIP3   OH276695   4.861   1.941   4.963 -0.3852 -0.1001  0.3965
18427TIP3    H176696   4.935   1.885   4.984 -0.1304 -0.2577 -0.8043
18427TIP3    H276697   4.890   1.990   4.885 -1.0937  0.7257  0.6324
18428TIP3   OH276698   3.009   6.478   0.270  0.1053  0.4803  0.6617
18428TIP3    H176699   2.955   6.551   0.300 -0.2108  0.3143  0.4935
18428TIP3    H276700   3.044   6.439   0.351 -0.1722  0.4752  0.7786
18429TIP3   OH276701   0.926   6.081  14.020 -0.8004  0.6953 -0.5374
18429TIP3    H176702   0.978   6.080  14.100  0.2003  2.2200 -1.1367
18429TIP3    H276703   0.958   6.007  13.969 -1.5957 -0.4262  0.5142
18430TIP3   OH276704   5.866   3.726   1.112 -0.9204  0.1087  0.4549
18430TIP3    H176705   5.869   3.668   1.189  0.5860  1.0233  1.1412
18430TIP3    H276706   5.898   3.810   1.144 -0.8325  0.6824 -1.0550
18431TIP3   OH276707   5.653   1.934  12.210 -0.0670  0.0477  0.0528
18431TIP3    H176708   5.593   1.886  12.153  0.1843  1.0342 -1.0878
18431TIP3    H276709   5.598   1.994  12.259 -0.4756 -1.7515  1.9814
18432TIP3   OH276710   1.955   2.921   4.006  0.3086  0.5551  0.4257
18432TIP3    H176711   2.001   2.896   4.086  0.0977 -0.4477  0.2457
18432TIP3    H276712   2.013   2.985   3.964  0.4141  1.1116  1.3752
18433TIP3   OH276713   4.831   0.196   3.409 -0.7382  0.5068 -0.2785
18433TIP3    H176714   4.770   0.137   3.365  0.5123  0.6144 -2.2973
18433TIP3    H276715   4.809   0.283   3.378 -1.4890  0.9578  1.3902
18434TIP3   OH276716   4.570   5.886   0.501  0.2661  0.2138  0.4882
18434TIP3    H176717   4.648   5.925   0.461  0.3590 -1.0505 -0.6063
18434TIP3    H276718   4.601   5.850   0.584  0.9274 -0.5427 -0.0733
18435TIP3   OH276719   2.066   0.493  11.622  0.1692  0.1754 -0.0233
18435TIP3    H176720   2.156   0.503  11.591  0.3549  0.1912  0.5046
18435TIP3    H276721   2.045   0.402  11.604 -0.5341  0.7282 -2.2583
18436TIP3   OH276722   5.112   1.876  14.933 -0.2532 -0.2057  0.5721
18436TIP3    H176723   5.123   1.959  14.886 -0.4095 -0.5368 -0.0490
18436TIP3    H276724   5.201   1.846  14.949 -0.2022 -0.1877  0.3227
18437TIP3   OH276725   3.003   3.032   5.949 -0.1478  0.1456 -0.0938
18437TIP3    H176726   3.009   3.066   6.038  0.3355 -0.1921  0.0079
18437TIP3    H276727   3.057   3.092   5.897  0.9792 -0.6251  0.1427
18438TIP3   OH276728   6.080   4.940  13.942  0.2848 -0.0358  0.3253
18438TIP3    H176729   6.105   4.955  14.033 -1.1917 -0.5885  0.8533
18438TIP3    H276730   6.063   5.028  13.908 -1.0075  0.0587  1.1650
18439TIP3   OH276731   3.807   3.757   1.585 -0.0301 -0.0232 -0.0621
18439TIP3    H176732   3.761   3.761   1.669  1.0516 -0.1541  0.5558
18439TIP3    H276733   3.860   3.836   1.582 -0.6127  0.3571 -0.9778
18440TIP3   OH276734   3.058   4.377  15.299  0.0720 -0.0772 -0.4038
18440TIP3    H176735   2.986   4.438  15.283 -0.7540 -0.6389  0.9823
18440TIP3    H276736   3.089   4.399  15.386 -0.1955 -1.5674  0.0995
18441TIP3   OH276737   2.385   0.780   0.114  0.0023 -0.3563 -0.2044
18441TIP3    H176738   2.421   0.797   0.027 -0.9294  0.6041 -0.4200
18441TIP3    H276739   2.459   0.747   0.164  0.3481 -1.7904 -1.5962
18442TIP3   OH276740   3.806   3.553   5.098 -0.3127 -0.2664  0.1344
18442TIP3    H176741   3.757   3.609   5.038  1.5646  0.5619 -0.7070
18442TIP3    H276742   3.840   3.612   5.165  0.2488 -0.6561  0.2069
18443TIP3   OH276743   6.059   4.145  11.745  0.1227  0.6459  0.6011
18443TIP3    H176744   6.106   4.116  11.823  0.1043  0.2892  0.4805
18443TIP3    H276745   6.079   4.079  11.679 -1.5794 -0.2228  0.9109
18444TIP3   OH276746   3.414   6.680  11.574  0.3046  0.6355  0.9038
18444TIP3    H176747   3.501   6.642  11.562  0.4320  0.8635  1.0885
18444TIP3    H276748   3.381   6.642  11.655 -0.6642 -1.1019 -0.2372
18445TIP3   OH276749   5.938   1.077   1.577  0.0231 -0.2311 -0.4076
18445TIP3    H176750   6.023   1.121   1.577 -0.5827  1.0412  0.8787
18445TIP3    H276751   5.925   1.048   1.487  1.7854 -0.3866 -0.6326
18446TIP3   OH276752   4.397   5.797   5.931 -0.0787 -0.2882 -0.2130
18446TIP3    H176753   4.400   5.807   5.836 -1.6127 -3.3738 -0.6913
18446TIP3    H276754   4.483   5.762   5.954 -0.2267 -1.0190 -0.7234
18447TIP3   OH276755   4.318   1.531  14.439  0.2843 -0.0521 -0.1325
18447TIP3    H176756   4.394   1.485  14.475 -0.4435 -0.2569  1.1663
18447TIP3    H276757   4.274   1.466  14.385  0.6631 -0.1253 -0.3555
18448TIP3   OH276758   2.264   1.781  16.495 -0.1218 -0.2504 -0.1389
18448TIP3    H176759   2.310   1.843  16.438 -0.5853  0.8410  0.6425
18448TIP3    H276760   2.319   1.703  16.496  0.6118  0.2452 -0.9251
18449TIP3   OH276761   0.621   3.265  17.028 -0.0780 -0.0889 -0.2079
18449TIP3    H176762   0.677   3.196  17.063  0.5371  0.0816 -0.8364
18449TIP3    H276763   0.678   3.316  16.970 -1.5008 -1.5887 -3.1519
18450TIP3   OH276764   6.313   6.320  14.633  1.0371 -0.7570  0.3444
18450TIP3    H176765   6.266   6.389  14.586  0.0228 -1.7282 -0.1068
18450TIP3    H276766   6.401   6.320  14.594  1.8670  1.8395  1.9821
18451TIP3   OH276767   4.981   1.168  11.745 -0.4635 -0.0822  0.1640
18451TIP3    H176768   4.889   1.192  11.741 -1.0595 -2.2225  0.2836
18451TIP3    H276769   5.000   1.130  11.659 -0.2819 -1.5947  0.8478
18452TIP3   OH276770   6.666   2.550   2.635 -0.3966  0.3512  0.8676
18452TIP3    H176771   6.744   2.592   2.672 -0.0140 -0.8807  1.5209
18452TIP3    H276772   6.643   2.482   2.698 -0.3801 -1.0810 -0.5890
18453TIP3   OH276773   3.834   2.644  14.184 -0.7053  0.1097 -0.0312
18453TIP3    H176774   3.836   2.557  14.224  0.5989  0.4633  0.7142
18453TIP3    H276775   3.753   2.683  14.218 -1.1481 -0.6809 -0.1294
18454TIP3   OH276776   5.398   1.348   1.124 -0.8570 -0.3600 -0.2938
18454TIP3    H176777   5.345   1.330   1.201 -0.4227 -2.5085 -0.4340
18454TIP3    H276778   5.477   1.390   1.158 -1.6707  0.8898  0.1301
18455TIP3   OH276779   2.759   3.576   4.650  0.3008 -0.6975 -0.2884
18455TIP3    H176780   2.697   3.587   4.723  1.0334 -0.6340  0.3460
18455TIP3    H276781   2.708   3.597   4.572 -0.2571  0.2031  0.2927
18456TIP3   OH276782   6.644   4.211  14.879 -0.5310  0.0684  0.5471
18456TIP3    H176783   6.652   4.117  14.863 -0.4922  0.3706 -1.5034
18456TIP3    H276784   6.598   4.244  14.802  1.3379  2.0333  0.1821
18457TIP3   OH276785   5.364   4.566  14.853  0.4941  0.8281  0.6099
18457TIP3    H176786   5.383   4.499  14.918  1.1532  0.3003 -0.0969
18457TIP3    H276787   5.269   4.577  14.856 -0.0736 -2.4089 -1.3680
18458TIP3   OH276788   6.385   4.827   3.624 -0.3094 -0.1994  0.4870
18458TIP3    H176789   6.332   4.818   3.545 -1.7299 -1.6395  1.5426
18458TIP3    H276790   6.398   4.737   3.655 -0.3145  0.3403  2.1960
18459TIP3   OH276791   3.517   1.935  16.996  0.7562  0.2799  0.4232
18459TIP3    H176792   3.424   1.935  16.973  0.5411 -0.2932  1.2530
18459TIP3    H276793   3.560   1.900  16.918  0.3478  1.1153 -0.1973
18460TIP3   OH276794   2.409   1.364   5.318  0.1283 -0.2805 -0.1080
18460TIP3    H176795   2.399   1.436   5.255 -3.2873 -0.6171 -0.1329
18460TIP3    H276796   2.365   1.395   5.397  2.3253 -0.7821  1.4055
18461TIP3   OH276797   4.945   4.532   1.802  0.1122  0.1281 -0.0116
18461TIP3    H176798   4.909   4.575   1.880 -1.0088 -1.3090  0.3012
18461TIP3    H276799   4.888   4.457   1.787  1.5424 -0.8057 -1.0184
18462TIP3   OH276800   3.616   0.873  11.148  0.0637 -0.0705 -0.3395
18462TIP3    H176801   3.614   0.964  11.118 -0.3368 -0.0500 -0.2596
18462TIP3    H276802   3.709   0.852  11.155  0.3604  1.7025  3.7976
18463TIP3   OH276803   4.729   1.884   5.633  0.0453 -0.2780  0.5222
18463TIP3    H176804   4.822   1.891   5.611  0.1237 -0.3884  0.8184
18463TIP3    H276805   4.728   1.865   5.726 -0.3214  1.9476  1.0204
18464TIP3   OH276806   5.310   2.448   3.154  0.6165  0.0902 -0.1981
18464TIP3    H176807   5.219   2.431   3.181  0.8795 -0.7540  0.1712
18464TIP3    H276808   5.309   2.540   3.126 -0.3394  0.1111 -0.1452
18465TIP3   OH276809   3.579   4.863  12.756 -0.4710 -0.0604 -0.0392
18465TIP3    H176810   3.594   4.896  12.668  0.6990  0.0446  0.1815
18465TIP3    H276811   3.596   4.769  12.749  0.6556  0.1117  0.2881
18466TIP3   OH276812   3.167   0.614  15.071  0.2848 -0.0613 -0.6031
18466TIP3    H176813   3.089   0.616  15.126 -0.3694 -0.0808 -1.5102
18466TIP3    H276814   3.217   0.539  15.104 -0.6655 -0.7989 -0.7988
18467TIP3   OH276815   0.757   5.406  16.634 -0.3861 -0.2417  0.0728
18467TIP3    H176816   0.687   5.429  16.572 -0.0552  0.2195 -0.1405
18467TIP3    H276817   0.750   5.471  16.704  1.4399  1.4682 -1.2200
18468TIP3   OH276818   0.562   0.536  13.500  0.0716 -0.1961  0.7476
18468TIP3    H176819   0.473   0.500  13.502 -0.8855  2.0099  1.3760
18468TIP3    H276820   0.607   0.486  13.432 -1.7141 -1.1986  0.2353
18469TIP3   OH276821   3.630   4.049   4.282  0.4627  0.0755  0.2366
18469TIP3    H176822   3.653   4.084   4.196  0.5731 -1.6319 -0.4670
18469TIP3    H276823   3.543   4.011   4.270  0.6332 -0.5110  0.7598
18470TIP3   OH276824   6.367   3.444   0.262  0.2153  0.5247 -0.1499
18470TIP3    H176825   6.290   3.491   0.295  1.2137  1.4466  0.9393
18470TIP3    H276826   6.400   3.499   0.191  0.1301  0.3415 -0.3348
18471TIP3   OH276827   0.433   3.331  10.872 -0.2154 -0.1851 -0.1979
18471TIP3    H176828   0.467   3.409  10.829  0.7085 -0.6899 -0.4098
18471TIP3    H276829   0.456   3.259  10.813  0.6727 -0.8349  0.8880
18472TIP3   OH276830   2.795   1.885   6.249 -0.9377 -0.3537 -0.0454
18472TIP3    H176831   2.846   1.956   6.211 -2.1633  0.0456 -1.0042
18472TIP3    H276832   2.841   1.805   6.223  0.7228  0.0513  1.4478
18473TIP3   OH276833   5.326   3.848  13.747 -0.6933 -0.5544 -0.2345
18473TIP3    H176834   5.352   3.800  13.825  0.5718  0.9344  0.3126
18473TIP3    H276835   5.341   3.787  13.675  0.6515 -1.0809  0.4559
18474TIP3   OH276836   1.825   5.926   2.631  0.0725  0.7232 -0.5541
18474TIP3    H176837   1.811   5.927   2.726 -0.1034  0.6208 -0.5792
18474TIP3    H276838   1.759   5.986   2.596 -0.6531 -0.1405 -0.7170
18475TIP3   OH276839   6.096   4.027  14.833  0.0075  0.3362  0.0741
18475TIP3    H176840   6.103   4.121  14.815  0.3682  0.3642  0.3376
18475TIP3    H276841   6.184   4.002  14.863  0.3726 -0.4210 -1.5102
18476TIP3   OH276842   4.793   4.163  14.069 -0.4874 -0.3185 -0.5408
18476TIP3    H176843   4.751   4.100  14.128  3.7934 -2.0951  0.9673
18476TIP3    H276844   4.809   4.240  14.124  2.1701 -1.4161  0.3597
18477TIP3   OH276845   0.817   0.086   0.741 -0.2900 -0.4406 -0.3368
18477TIP3    H176846   0.797   0.105   0.833  0.4480 -0.2433 -0.2163
18477TIP3    H276847   0.810   0.171   0.697  0.1832 -0.3858 -0.3104
18478TIP3   OH276848   1.213   5.333   1.460  0.1259 -0.3654 -0.4305
18478TIP3    H176849   1.153   5.403   1.483  2.1762  0.7492  2.0285
18478TIP3    H276850   1.199   5.265   1.526 -1.3785 -2.0975 -2.4053
18479TIP3   OH276851   6.553   3.752   1.582  0.2966  0.3179 -0.3859
18479TIP3    H176852   6.565   3.772   1.675 -1.0670  0.5598 -0.2473
18479TIP3    H276853   6.641   3.761   1.544  1.2692 -1.7679  1.2307
18480TIP3   OH276854   5.637   0.348   3.775  0.2979 -0.2084 -0.3255
18480TIP3    H176855   5.701   0.277   3.777  0.6290  0.0713 -0.8060
18480TIP3    H276856   5.626   0.368   3.682  0.4176  0.5552 -0.1810
18481TIP3   OH276857   0.081   5.218  14.878 -0.1815  0.1001  0.1015
18481TIP3    H176858   0.013   5.260  14.931 -0.2314  0.9402 -0.6150
18481TIP3    H276859   0.158   5.275  14.888  0.5797 -1.0555  1.2380
18482TIP3   OH276860   4.248   3.753  12.702  0.8206  0.1427 -0.0935
18482TIP3    H176861   4.206   3.668  12.689  0.7767  0.4610 -2.4775
18482TIP3    H276862   4.180   3.817  12.679  1.3427  0.7851  0.1235
18483TIP3   OH276863   1.397   0.663   5.463  0.2506  0.3756 -0.0044
18483TIP3    H176864   1.453   0.590   5.489 -1.1019 -0.4964  0.5794
18483TIP3    H276865   1.406   0.669   5.368 -0.6906 -1.4802 -0.2374
18484TIP3   OH276866   4.208   1.553   2.610 -0.0871  0.0419  0.4646
18484TIP3    H176867   4.248   1.555   2.696  1.3415  1.8161 -0.1784
18484TIP3    H276868   4.255   1.484   2.563  0.4318  0.3612  0.5167
18485TIP3   OH276869   1.464   1.300   1.849  0.8199  0.3247 -0.0054
18485TIP3    H176870   1.471   1.212   1.886  0.7947 -0.4452 -1.7270
18485TIP3    H276871   1.433   1.286   1.760  3.1490  1.8787 -1.1634
18486TIP3   OH276872   2.978   4.521   5.037  0.3029 -0.4329 -0.2234
18486TIP3    H176873   2.960   4.536   5.129  0.7952 -0.8695 -0.0533
18486TIP3    H276874   3.052   4.461   5.036 -0.5410 -1.5028 -0.8901
18487TIP3   OH276875   3.595   0.017  13.955  0.3334  0.3637  0.0330
18487TIP3    H176876   3.600   0.049  14.045 -1.1844  2.9647 -0.6918
18487TIP3    H276877   3.687   0.007  13.928  0.8081 -0.5084  1.8354
18488TIP3   OH276878   2.363   0.302   3.650  0.2369 -0.3360  0.2145
18488TIP3    H176879   2.437   0.352   3.615 -1.6338  1.3789 -1.5403
18488TIP3    H276880   2.338   0.349   3.730  0.6052 -0.5239  0.4436
18489TIP3   OH276881   5.255   5.703  15.272 -0.3781  0.1801  0.2628
18489TIP3    H176882   5.332   5.702  15.215  1.1955  0.6330  2.2641
18489TIP3    H276883   5.282   5.754  15.349 -2.0138 -1.2626  1.9043
18490TIP3   OH276884   0.719   4.969  13.270 -0.1478 -0.3035  0.1377
18490TIP3    H176885   0.650   5.019  13.314  0.8446  0.8234  0.4805
18490TIP3    H276886   0.677   4.887  13.245 -2.1210  0.9954 -1.1899
18491TIP3   OH276887   0.138   6.119   1.741  0.9952 -0.0709 -0.1843
18491TIP3    H176888   0.107   6.205   1.771  3.5872  1.2498 -0.9894
18491TIP3    H276889   0.123   6.120   1.646  2.5863  0.2536 -0.4571
18492TIP3   OH276890   1.169   4.238  17.178 -0.2279  0.0657  0.0684
18492TIP3    H176891   1.146   4.181  17.251 -1.5738  1.8476  1.1086
18492TIP3    H276892   1.115   4.208  17.105  0.2055 -0.9268  0.1403
18493TIP3   OH276893   6.700   6.590  12.094  0.4116  0.6270  0.1782
18493TIP3    H176894   6.775   6.629  12.049  0.3441  0.0966 -0.4083
18493TIP3    H276895   6.686   6.646  12.170  0.8618  1.2305 -0.1764
18494TIP3   OH276896   0.341   1.284   2.995 -0.7984 -0.1597  0.3508
18494TIP3    H176897   0.379   1.320   3.076 -1.4511  1.8874 -0.1951
18494TIP3    H276898   0.415   1.249   2.947 -0.4607 -1.9672  2.0534
18495TIP3   OH276899   1.190   0.629   3.549  0.2308 -0.1095 -0.1696
18495TIP3    H176900   1.199   0.593   3.461 -0.5874 -3.0066  0.8212
18495TIP3    H276901   1.255   0.582   3.601 -0.5134  0.2401  1.1188
18496TIP3   OH276902   2.640   3.953   5.809 -0.2475 -0.4791  0.0747
18496TIP3    H176903   2.555   3.913   5.788 -0.8378 -0.0158  1.4485
18496TIP3    H276904   2.695   3.879   5.833 -0.1506 -0.8131 -1.0885
18497TIP3   OH276905   4.652   4.211  17.157  0.4257  0.4158  0.8780
18497TIP3    H176906   4.721   4.145  17.168  0.3495  0.2323  0.3243
18497TIP3    H276907   4.598   4.177  17.085  0.5484  1.2148  0.3940
18498TIP3   OH276908   2.647   0.697  13.556 -0.0583  0.1540  0.0754
18498TIP3    H176909   2.710   0.626  13.547 -1.3228 -1.1055  0.7941
18498TIP3    H276910   2.637   0.709  13.650 -0.3971  0.7957 -0.0368
18499TIP3   OH276911   3.540   3.418  12.756  0.1652  0.1730 -0.3860
18499TIP3    H176912   3.569   3.499  12.798 -1.9013  0.0894  1.3495
18499TIP3    H276913   3.445   3.423  12.756  0.0135 -0.8716 -3.1771
18500TIP3   OH276914   1.571   5.306  14.267  0.0678 -0.0510 -0.5195
18500TIP3    H176915   1.593   5.346  14.183 -0.9448 -2.2488 -1.9247
18500TIP3    H276916   1.600   5.215  14.258 -2.2240 -0.9550  0.5673
18501TIP3   OH276917   4.126   1.876  16.888  0.2291 -0.0057 -0.1722
18501TIP3    H176918   4.181   1.849  16.814  1.6598  0.2129  0.7732
18501TIP3    H276919   4.183   1.929  16.943 -1.3450  1.4466  0.1467
18502TIP3   OH276920   1.454   1.615   1.424 -0.6600  0.4068  0.3685
18502TIP3    H176921   1.408   1.564   1.492 -0.2923  0.5859  0.7565
18502TIP3    H276922   1.494   1.550   1.367 -2.4087  0.2048 -0.7089
18503TIP3   OH276923   6.523   4.609  17.241 -0.2853  0.2748  0.2482
18503TIP3    H176924   6.568   4.618  17.158 -1.5453  1.2710 -0.3626
18503TIP3    H276925   6.581   4.649  17.306  1.0005 -1.0946 -0.0143
18504TIP3   OH276926   5.784   1.096  13.724 -0.5855 -0.1721 -0.3264
18504TIP3    H176927   5.844   1.087  13.651  0.3094 -2.9341  0.6267
18504TIP3    H276928   5.705   1.135  13.686  1.1291  1.9590 -1.9395
18505TIP3   OH276929   3.345   5.737  12.979  0.0685  0.5509 -0.7784
18505TIP3    H176930   3.328   5.680  13.055 -1.5509  0.2610 -1.3234
18505TIP3    H276931   3.277   5.714  12.916 -0.6452  3.1031 -1.0256
18506TIP3   OH276932   5.856   3.195   5.298 -0.1368 -0.5367 -0.0885
18506TIP3    H176933   5.825   3.251   5.228  0.7494  1.7336  1.2306
18506TIP3    H276934   5.779   3.145   5.325 -0.5695 -1.2257 -2.3668
18507TIP3   OH276935   1.973   0.914   1.389 -0.2049 -0.5832 -0.1382
18507TIP3    H176936   1.912   0.848   1.420  1.1881 -1.7784  0.2088
18507TIP3    H276937   1.973   0.981   1.457 -0.3734 -1.0805  0.3574
18508TIP3   OH276938   1.571   5.662   1.582  0.0909 -0.1306 -0.7913
18508TIP3    H176939   1.665   5.647   1.590 -0.1587 -0.5425  3.0078
18508TIP3    H276940   1.532   5.576   1.595 -0.8604  0.1527 -1.6440
18509TIP3   OH276941   6.543   2.296   0.323 -0.0878 -0.3749  0.3262
18509TIP3    H176942   6.559   2.246   0.403  1.7407  0.5720  0.5874
18509TIP3    H276943   6.455   2.270   0.296 -0.2144 -1.7154  1.9025
18510TIP3   OH276944   1.073   4.764   0.719  0.0288  0.2739 -0.2818
18510TIP3    H176945   1.125   4.712   0.781 -0.1758  0.2872 -0.1006
18510TIP3    H276946   1.086   4.720   0.635  1.2925  0.9558 -0.4677
18511TIP3   OH276947   4.657   2.122   5.249  0.3850  0.2467  0.4631
18511TIP3    H176948   4.606   2.074   5.313 -0.4673  0.4246 -0.0679
18511TIP3    H276949   4.622   2.211   5.252 -0.3412  0.0445 -0.9056
18512TIP3   OH276950   0.557   0.869  12.439  0.1202 -0.4000  1.1607
18512TIP3    H176951   0.494   0.932  12.404  0.9543 -0.2380 -0.1235
18512TIP3    H276952   0.554   0.796  12.378  2.8012  0.5796 -0.3182
18513TIP3   OH276953   2.763   4.256   0.397 -0.1004  0.2897 -0.2534
18513TIP3    H176954   2.786   4.177   0.446 -1.9380 -0.9626 -1.3172
18513TIP3    H276955   2.786   4.236   0.307 -1.4645  0.5880 -0.6887
18514TIP3   OH276956   0.255   4.388   1.553  0.4693 -0.5280 -0.4456
18514TIP3    H176957   0.188   4.445   1.514  0.4043  2.0857  3.0347
18514TIP3    H276958   0.205   4.324   1.604  0.5578  0.0718  0.4122
18515TIP3   OH276959   5.461   5.862   5.257 -0.1830  0.4662 -0.5755
18515TIP3    H176960   5.437   5.875   5.165 -0.1622  0.6078 -0.5623
18515TIP3    H276961   5.542   5.812   5.253 -1.3205 -1.4476 -0.5873
18516TIP3   OH276962   3.723   2.199   1.073 -0.0777 -0.1596 -0.5545
18516TIP3    H176963   3.704   2.280   1.120 -0.4808 -1.1359  1.0353
18516TIP3    H276964   3.809   2.172   1.106 -0.9398 -1.5446  0.6914
18517TIP3   OH276965   1.543   0.296   0.787  0.3387 -0.2899  0.0149
18517TIP3    H176966   1.509   0.310   0.875  2.3006 -2.5830  1.2640
18517TIP3    H276967   1.565   0.202   0.784  1.2264 -0.0850 -2.5731
18518TIP3   OH276968   5.029   3.897   3.237 -0.2150  0.5124 -0.2837
18518TIP3    H176969   5.010   3.991   3.244  0.5962  0.6556  0.1360
18518TIP3    H276970   5.053   3.871   3.326 -0.1869 -0.0414 -0.4476
18519TIP3   OH276971   5.088   3.982  13.145 -0.0696 -0.2758  0.2315
18519TIP3    H176972   5.119   4.001  13.233  0.9666  1.3670 -0.4276
18519TIP3    H276973   5.011   4.037  13.134 -0.4293 -0.7689  0.2191
18520TIP3   OH276974   0.279   5.898   0.405 -0.0352  0.2650  0.0601
18520TIP3    H176975   0.266   5.849   0.487 -1.3771  0.1063 -0.2264
18520TIP3    H276976   0.293   5.988   0.433 -0.4745  0.2099  0.4710
18521TIP3   OH276977   5.837   4.025  13.833 -0.3022  0.2731 -0.0868
18521TIP3    H176978   5.894   4.027  13.757 -2.3783 -3.4496 -2.0302
18521TIP3    H276979   5.766   4.085  13.810 -1.2487 -1.2906 -1.5797
18522TIP3   OH276980   4.382   1.062  15.576 -0.0655  0.3823 -0.2282
18522TIP3    H176981   4.373   1.157  15.571 -0.6512  0.3416 -0.0464
18522TIP3    H276982   4.425   1.037  15.495 -1.6538  0.6013 -1.1754
18523TIP3   OH276983   3.531   4.394   6.145  0.1085 -0.2160  0.0425
18523TIP3    H176984   3.460   4.386   6.209  1.4215  2.2993  2.0086
18523TIP3    H276985   3.594   4.327   6.170 -0.7933 -1.3549 -0.6667
18524TIP3   OH276986   2.702   2.199   6.338  0.5467  0.2182 -1.0310
18524TIP3    H176987   2.653   2.281   6.351 -0.9261 -0.4502 -2.0422
18524TIP3    H276988   2.725   2.200   6.245  0.5362 -0.5085 -1.0409
18525TIP3   OH276989   4.600   4.677   6.015 -0.3452  0.2281 -0.0859
18525TIP3    H176990   4.681   4.682   6.066 -1.3294  0.8211  1.4542
18525TIP3    H276991   4.572   4.586   6.025 -0.1843  0.1696 -0.1524
18526TIP3   OH276992   6.579   2.850   5.483 -0.1321  0.1237 -0.1741
18526TIP3    H176993   6.596   2.795   5.408  0.0925 -1.2973  0.8835
18526TIP3    H276994   6.547   2.790   5.551 -1.3629  1.5043  0.5366
18527TIP3   OH276995   2.829   6.081   0.884  0.0488 -0.0467  0.0394
18527TIP3    H176996   2.888   6.150   0.915  0.1306 -1.1681  2.6689
18527TIP3    H276997   2.743   6.110   0.912 -0.2280 -0.0214 -0.8028
18528TIP3   OH276998   5.591   3.866  11.152  0.0581  0.0353 -0.4247
18528TIP3    H176999   5.680   3.855  11.183  0.5424  2.4418 -0.7717
18528TIP3    H277000   5.548   3.918  11.220 -1.0581 -0.9614 -0.3370
18529TIP3   OH277001   3.439   5.893   5.191 -0.0410  0.5491  0.5309
18529TIP3    H177002   3.416   5.804   5.216  0.3882  0.3373  0.1871
18529TIP3    H277003   3.533   5.900   5.207 -0.1491  1.0832  0.9744
18530TIP3   OH277004   0.195   5.928  14.206  0.4384  0.3545 -0.1933
18530TIP3    H177005   0.234   5.986  14.140  0.3962  0.3695 -0.2052
18530TIP3    H277006   0.218   5.840  14.176  0.8849  0.3831  0.0688
18531TIP3   OH277007   4.498   3.359  12.038 -0.0771  0.1252 -0.1448
18531TIP3    H177008   4.457   3.427  11.985 -0.9587  0.2243  0.6320
18531TIP3    H277009   4.584   3.394  12.060  0.1122  0.2849 -1.0963
18532TIP3   OH277010   3.494   5.054  17.288  0.4059 -0.2471  0.3454
18532TIP3    H177011   3.545   4.973  17.284  0.5711 -0.1223 -0.1868
18532TIP3    H277012   3.469   5.071  17.197 -1.3560 -0.7868  0.6822
18533TIP3   OH277013   5.561   0.150  16.184 -0.1078 -0.9681 -0.4043
18533TIP3    H177014   5.486   0.115  16.233 -0.0422 -0.3406  0.1574
18533TIP3    H277015   5.624   0.078  16.183 -0.0877 -0.9728  0.4846
18534TIP3   OH277016   2.459   4.013  14.103  0.2125  0.1964  0.4793
18534TIP3    H177017   2.497   4.079  14.161 -0.3605  1.1383 -0.1978
18534TIP3    H277018   2.424   3.946  14.162 -0.5918  1.2630  1.2284
18535TIP3   OH277019   0.558   3.918  14.444  0.1066 -0.2405  0.3881
18535TIP3    H177020   0.639   3.873  14.468 -0.3922 -0.8598  0.9465
18535TIP3    H277021   0.568   4.006  14.479  0.6086 -0.2573  0.2970
18536TIP3   OH277022   2.409   5.627  11.605  0.4951  0.2266 -0.5811
18536TIP3    H177023   2.373   5.681  11.675  1.8162  2.8683 -1.8047
18536TIP3    H277024   2.337   5.618  11.542 -0.1846 -0.7831  0.2921
18537TIP3   OH277025   5.201   5.713  13.306  0.3251  0.2352  0.0131
18537TIP3    H177026   5.171   5.795  13.345 -0.2449  1.1408 -2.1952
18537TIP3    H277027   5.251   5.740  13.229  0.9321 -1.4729 -0.2292
18538TIP3   OH277028   1.243   5.758  10.503  0.0870  0.3602 -0.4404
18538TIP3    H177029   1.236   5.831  10.565 -3.1369  0.2839 -0.5490
18538TIP3    H277030   1.180   5.778  10.435 -0.6077 -2.3206 -0.6937
18539TIP3   OH277031   0.855   2.616   4.016 -0.6673 -0.0414 -0.2141
18539TIP3    H177032   0.824   2.558   3.947  2.7313 -1.6362 -0.6103
18539TIP3    H277033   0.891   2.557   4.082  1.2234  1.5292  0.2485
18540TIP3   OH277034   3.533   2.649  13.096  0.3576  0.5603  0.2489
18540TIP3    H177035   3.572   2.649  13.183  0.6632 -1.1579  0.1510
18540TIP3    H277036   3.607   2.648  13.036  0.3376 -3.2927  0.0667
18541TIP3   OH277037   2.175   2.065   5.850 -0.8215 -0.0962 -0.2469
18541TIP3    H177038   2.225   2.021   5.780  0.0036  0.3949  0.0213
18541TIP3    H277039   2.241   2.108   5.903 -1.5136  0.2260  0.3693
18542TIP3   OH277040   2.071   2.978   4.810  0.2758  0.4887 -0.0394
18542TIP3    H177041   2.078   2.886   4.785 -0.4774  0.5752 -0.5795
18542TIP3    H277042   2.162   3.007   4.820  0.5214 -0.3401  0.2696
18543TIP3   OH277043   2.470   4.082  15.218 -0.3155 -0.0847  0.6512
18543TIP3    H177044   2.388   4.050  15.257  0.6589 -1.5327  1.6302
18543TIP3    H277045   2.536   4.021  15.250  1.1897  1.1818  0.0588
18544TIP3   OH277046   4.471   6.140   3.519 -0.0731 -0.1083  0.6239
18544TIP3    H177047   4.482   6.102   3.432  0.0921 -0.8372  0.9557
18544TIP3    H277048   4.461   6.065   3.578  0.8895  0.3185  1.3812
18545TIP3   OH277049   2.702   1.583   1.780  0.6263 -0.2795 -0.5936
18545TIP3    H177050   2.607   1.589   1.767  0.5071 -0.6533  0.0700
18545TIP3    H277051   2.713   1.518   1.850  1.2145  2.1863  1.7509
18546TIP3   OH277052   4.462   4.137   2.777  0.9087 -0.6936  0.4189
18546TIP3    H177053   4.483   4.157   2.685  2.5028  0.5963  1.0078
18546TIP3    H277054   4.380   4.182   2.794  1.6684  0.8353  0.1773
18547TIP3   OH277055   0.064   6.471   4.933  0.0067  0.0419 -0.7769
18547TIP3    H177056   0.125   6.433   4.997 -2.2016 -0.2385  1.2806
18547TIP3    H277057   0.097   6.560   4.919 -0.4162  0.7668  2.2077
18548TIP3   OH277058   5.687   2.885  15.433 -0.3189 -0.0869 -0.1732
18548TIP3    H177059   5.705   2.809  15.489  0.7959 -0.8097 -1.4594
18548TIP3    H277060   5.770   2.932  15.429 -0.7879  0.7654 -0.0641
18549TIP3   OH277061   4.169   5.280   1.050 -0.0317  0.4366  0.0572
18549TIP3    H177062   4.155   5.285   0.955 -1.6510 -0.5426  0.1905
18549TIP3    H277063   4.159   5.370   1.081  1.4605  0.9139 -0.7929
18550TIP3   OH277064   5.032   2.618  12.204 -0.0291  0.1002  0.0717
18550TIP3    H177065   5.034   2.640  12.296 -1.5232  0.7326 -0.0133
18550TIP3    H277066   4.979   2.538  12.200 -0.6983  0.5476 -0.2939
18551TIP3   OH277067   5.458   0.649   3.588  1.1528 -0.0015  0.1285
18551TIP3    H177068   5.420   0.579   3.535  0.2891 -0.3353  1.1401
18551TIP3    H277069   5.548   0.621   3.603  0.4485 -1.6552  1.6772
18552TIP3   OH277070   4.295   3.347  13.865 -0.3163 -0.4612  0.3876
18552TIP3    H177071   4.213   3.331  13.911 -1.4989  2.4235 -0.5391
18552TIP3    H277072   4.307   3.270  13.810 -2.1474 -1.1409  0.8646
18553TIP3   OH277073   3.156   1.614   4.320 -0.0490  0.1620  0.3726
18553TIP3    H177074   3.129   1.526   4.293  1.1648 -0.6347  1.6508
18553TIP3    H277075   3.130   1.670   4.247 -0.9072 -1.2338 -0.4426
18554TIP3   OH277076   1.139   0.477   5.910  0.0039  0.2221  0.4978
18554TIP3    H177077   1.204   0.415   5.942 -0.9034  0.1187  2.2523
18554TIP3    H277078   1.056   0.428   5.909 -0.2855  0.6924 -0.5499
18555TIP3   OH277079   1.307   1.244  11.189  0.2552  0.2614  0.2332
18555TIP3    H177080   1.329   1.151  11.183 -1.1199 -0.2787  2.3398
18555TIP3    H277081   1.277   1.268  11.102  3.1506 -0.5073 -1.0903
18556TIP3   OH277082   1.351   1.223  13.215 -0.0695 -0.1880 -0.2261
18556TIP3    H177083   1.288   1.288  13.247  1.2037  0.6477  0.6852
18556TIP3    H277084   1.347   1.232  13.120 -1.7768 -0.6168 -0.2342
18557TIP3   OH277085   1.643   1.849  12.549  0.0636 -0.0063  0.3234
18557TIP3    H177086   1.679   1.855  12.637 -0.2342  3.0851  0.3260
18557TIP3    H277087   1.549   1.837  12.562  0.1352 -0.5552  0.3802
18558TIP3   OH277088   1.064   3.590   2.985 -0.2472 -0.0331  0.0037
18558TIP3    H177089   1.146   3.553   2.952  1.1680 -0.8107  3.8784
18558TIP3    H277090   1.012   3.514   3.012 -0.8217  0.5496  0.5814
18559TIP3   OH277091   2.916   4.351   2.158  0.3546  0.2986  0.6914
18559TIP3    H177092   2.982   4.420   2.171  0.8455 -0.4103  2.0899
18559TIP3    H277093   2.842   4.379   2.211 -0.7452  1.3682 -1.2951
18560TIP3   OH277094   1.979   1.376   2.201 -0.0499 -0.2525 -0.0586
18560TIP3    H177095   2.002   1.468   2.187  0.2291 -0.7433 -3.9920
18560TIP3    H277096   2.052   1.341   2.252  0.6235  1.3546  0.1585
18561TIP3   OH277097   5.869   6.125  16.156  0.6604  0.1513 -0.1762
18561TIP3    H177098   5.854   6.036  16.189 -0.8831  0.5228  0.2105
18561TIP3    H277099   5.823   6.126  16.072 -0.0644  0.8393  0.2250
18562TIP3   OH277100   1.041   1.712  14.027 -0.3008  0.6268 -0.1371
18562TIP3    H177101   1.084   1.692  14.110 -0.5248  1.6645  0.2409
18562TIP3    H277102   1.022   1.806  14.032 -1.1665  0.5086 -0.9609
18563TIP3   OH277103   0.604   0.796  13.447 -0.2110  0.1165 -0.4564
18563TIP3    H177104   0.574   0.793  13.357  1.8693 -1.1461 -1.1705
18563TIP3    H277105   0.604   0.705  13.476  0.1887  0.3877  0.4376
18564TIP3   OH277106   2.518   0.256  12.446  0.1831  0.1769 -0.4368
18564TIP3    H177107   2.533   0.320  12.376  0.2118 -1.0723 -1.6285
18564TIP3    H277108   2.427   0.228  12.434 -0.4133  1.2667  1.2036
18565TIP3   OH277109   6.408   0.781   3.853 -0.2804  0.1568 -0.0471
18565TIP3    H177110   6.347   0.724   3.900  1.7337 -1.9020  0.2438
18565TIP3    H277111   6.415   0.743   3.766 -0.9328  1.5839 -0.7475
18566TIP3   OH277112   6.246   5.431  17.331 -0.0306  0.3676 -0.5379
18566TIP3    H177113   6.276   5.471  17.249  1.1962  1.3623  0.3546
18566TIP3    H277114   6.230   5.340  17.308  2.1691  0.1516 -1.4747
18567TIP3   OH277115   0.332   5.990  11.498  0.2606 -0.3645 -0.5500
18567TIP3    H177116   0.313   5.898  11.478  0.2244 -0.5058  0.1185
18567TIP3    H277117   0.251   6.036  11.477 -0.6207 -0.8525  1.5425
18568TIP3   OH277118   0.771   2.276   4.148 -0.0045 -0.5542  0.2145
18568TIP3    H177119   0.860   2.245   4.131  0.7495  1.3247  0.5256
18568TIP3    H277120   0.733   2.290   4.061  0.5083 -0.0064  0.0759
18569TIP3   OH277121   4.299   1.860  15.192 -0.2776 -0.4823 -0.2249
18569TIP3    H177122   4.220   1.901  15.229 -0.6156 -0.2519 -1.1684
18569TIP3    H277123   4.309   1.901  15.107  2.5398  1.5948  0.9850
18570TIP3   OH277124   0.992   0.279  12.398 -0.4587  0.3566 -0.1468
18570TIP3    H177125   1.040   0.223  12.336 -0.6234 -0.0529  0.0964
18570TIP3    H277126   0.976   0.359  12.348 -0.7206 -0.0230 -0.6890
18571TIP3   OH277127   2.544   4.117   0.804  0.0636 -0.4747 -0.2420
18571TIP3    H177128   2.588   4.059   0.741  0.0997 -1.1224  0.3606
18571TIP3    H277129   2.477   4.162   0.752  1.0760  0.1414 -1.0648
18572TIP3   OH277130   4.530   4.683   4.346  0.3516 -0.2621  0.2990
18572TIP3    H177131   4.461   4.668   4.411 -0.3148  2.0677  0.2069
18572TIP3    H277132   4.485   4.675   4.262 -0.4925  3.4935  0.2311
18573TIP3   OH277133   0.807   2.415  16.000  0.2168 -0.1152  0.0546
18573TIP3    H177134   0.756   2.492  16.025  1.2049  0.6654 -0.2308
18573TIP3    H277135   0.838   2.435  15.912  0.2339 -0.9812 -0.1383
18574TIP3   OH277136   4.030   6.686  17.286  0.0561 -0.2978  0.3026
18574TIP3    H177137   4.120   6.689  17.255 -0.5984 -0.2976 -1.7230
18574TIP3    H277138   3.982   6.744  17.228 -1.5797 -1.7721  0.0973
18575TIP3   OH277139   1.503   3.694   3.516 -0.2137 -0.5461  0.1240
18575TIP3    H177140   1.444   3.623   3.491 -1.4125  0.4083  0.1611
18575TIP3    H277141   1.445   3.765   3.545  0.7646  1.4342 -2.3622
18576TIP3   OH277142   4.983   0.135  11.108 -0.6634  0.0622  0.3294
18576TIP3    H177143   5.004   0.214  11.058 -2.1428  0.2384 -0.0600
18576TIP3    H277144   5.006   0.063  11.049 -0.7542  0.2317  0.0864
18577TIP3   OH277145   3.244   0.945  16.557  0.3889  0.2058  0.0313
18577TIP3    H177146   3.305   0.889  16.509 -0.3717 -0.1222 -0.5750
18577TIP3    H277147   3.196   0.885  16.614  0.8705  0.5145  0.7858
18578TIP3   OH277148   3.283   5.572  12.292 -0.4946 -0.5026  0.1754
18578TIP3    H177149   3.240   5.657  12.304 -0.1120 -0.3462  0.4684
18578TIP3    H277150   3.243   5.536  12.213 -1.4776 -0.5558  0.6806
18579TIP3   OH277151   6.575   3.367  13.860  0.5771  0.0656  0.5807
18579TIP3    H177152   6.561   3.308  13.786 -2.7721 -0.1158  1.2147
18579TIP3    H277153   6.670   3.382  13.861  0.8956 -0.8898 -2.9375
18580TIP3   OH277154   6.331   5.359   6.348  0.3553 -0.5060  0.3841
18580TIP3    H177155   6.354   5.447   6.318 -0.9424  0.4461  1.9968
18580TIP3    H277156   6.412   5.309   6.339  0.9062  0.5939 -1.3646
18581TIP3   OH277157   1.038   6.079   1.841 -0.7301  0.2605  0.0707
18581TIP3    H177158   1.012   6.117   1.758  0.8146  0.3875 -0.3855
18581TIP3    H277159   0.957   6.044   1.878 -1.4601  0.3033 -1.4250
18582TIP3   OH277160   1.625   0.923  12.599  0.0569  0.1798  0.1850
18582TIP3    H177161   1.543   0.924  12.648 -0.2667  1.0796 -0.3364
18582TIP3    H277162   1.630   0.835  12.562 -0.0303 -0.2833  1.2649
18583TIP3   OH277163   2.007   5.854   2.916  0.0569  0.1486  0.1189
18583TIP3    H177164   1.981   5.932   2.866  0.2700  0.8359  1.0424
18583TIP3    H277165   2.039   5.793   2.851  0.0762  0.9174 -0.6102
18584TIP3   OH277166   0.577   4.981  12.962 -0.0490 -0.0387  0.2727
18584TIP3    H177167   0.621   4.910  13.009 -0.2348  0.4992  1.2913
18584TIP3    H277168   0.536   4.939  12.887  2.4022 -0.5480 -0.8821
18585TIP3   OH277169   2.722   6.032   6.633  0.3157  0.3983 -0.4691
18585TIP3    H177170   2.765   5.953   6.601  1.1877  0.6606  0.0209
18585TIP3    H277171   2.653   6.049   6.569  1.0372  0.0612 -1.3647
18586TIP3   OH277172   1.531   1.252   1.328 -0.6958  0.1292  0.8678
18586TIP3    H177173   1.592   1.181   1.309 -1.3347 -1.4051  3.9788
18586TIP3    H277174   1.461   1.243   1.263  0.6037 -0.2874 -0.5149
18587TIP3   OH277175   5.289   4.198  11.572  0.9549 -0.2800 -0.0231
18587TIP3    H177176   5.260   4.287  11.593  0.5907 -0.4779  0.3303
18587TIP3    H277177   5.379   4.209  11.541  1.1698  0.1345  0.7087
18588TIP3   OH277178   4.812   1.259   0.552 -0.2880 -0.1766 -0.4664
18588TIP3    H177179   4.876   1.296   0.613  1.9535 -2.0097 -1.5470
18588TIP3    H277180   4.807   1.323   0.481 -0.1630  0.2978 -0.0570
18589TIP3   OH277181   6.570   0.126   5.606 -0.0939  0.2410  0.1691
18589TIP3    H177182   6.504   0.057   5.611  1.3997 -1.1761  2.3025
18589TIP3    H277183   6.524   0.206   5.630 -1.5356 -0.2511 -0.8431
18590TIP3   OH277184   3.449   2.547   5.971  0.0724  0.5389  0.2324
18590TIP3    H177185   3.437   2.599   5.892  0.0316  0.7150  0.3534
18590TIP3    H277186   3.364   2.551   6.015  0.4558  1.5049  0.9230
18591TIP3   OH277187   5.801   0.649  15.170  0.3805 -0.1865 -0.6729
18591TIP3    H177188   5.714   0.684  15.188  0.7660  0.5581 -0.1766
18591TIP3    H277189   5.844   0.644  15.256  1.1030  0.2486 -0.9920
18592TIP3   OH277190   6.700   5.821  16.122 -0.0066  0.1999 -0.0307
18592TIP3    H177191   6.734   5.894  16.070  0.5949 -0.0134  0.0528
18592TIP3    H277192   6.607   5.842  16.135  0.3206  1.3423  0.6618
18593TIP3   OH277193   0.884   0.856  14.342  0.3267 -0.0176  0.0943
18593TIP3    H177194   0.867   0.846  14.436  0.8189 -0.6173  0.1238
18593TIP3    H277195   0.948   0.789  14.322  0.7883  0.5951 -0.5283
18594TIP3   OH277196   1.735   5.025  16.303 -0.4992  0.0023 -0.2511
18594TIP3    H177197   1.669   5.069  16.250 -1.1926 -0.3235  0.3337
18594TIP3    H277198   1.694   5.013  16.389 -0.6052 -2.3590 -0.5665
18595TIP3   OH277199   1.860   1.851  12.403  0.0975 -0.3617  0.7748
18595TIP3    H177200   1.770   1.854  12.436 -0.8273  1.7378 -1.5995
18595TIP3    H277201   1.862   1.775  12.346  0.3743 -1.3886  2.1104
18596TIP3   OH277202   5.814   6.720   4.789  0.0678 -0.3059 -0.1752
18596TIP3    H177203   5.737   6.704   4.844 -2.1237  1.4062 -2.4822
18596TIP3    H277204   5.838   6.811   4.808  1.6291 -0.8234  0.5320
18597TIP3   OH277205   2.931   4.948  16.220  0.1980 -0.4692  0.4623
18597TIP3    H177206   2.927   4.906  16.306 -1.0935  0.8804  1.1206
18597TIP3    H277207   2.938   4.876  16.158 -1.1072 -1.6241  1.5914
18598TIP3   OH277208   6.421   5.571   4.470  0.1198 -0.3824 -0.7585
18598TIP3    H177209   6.333   5.565   4.506  0.3514 -0.3556 -0.1833
18598TIP3    H277210   6.471   5.504   4.516 -0.0498 -1.7509 -2.4441
18599TIP3   OH277211   0.358   6.102   4.021  0.7359 -0.7079 -0.0859
18599TIP3    H177212   0.336   6.178   4.075  0.4258 -1.4241  0.8160
18599TIP3    H277213   0.350   6.134   3.931 -0.4168  0.0444  0.2631
18600TIP3   OH277214   1.619   4.433  11.661 -0.0716 -0.0640 -0.1559
18600TIP3    H177215   1.704   4.475  11.656  0.7198 -1.5914 -0.0818
18600TIP3    H277216   1.634   4.344  11.631 -1.1886 -0.9838  1.7941
18601TIP3   OH277217   5.691   6.018   5.031 -0.2669 -0.0064  0.1397
18601TIP3    H177218   5.599   5.993   5.043  0.2313 -1.8680  0.4516
18601TIP3    H277219   5.735   5.937   5.003  1.3933  0.6705  0.6324
18602TIP3   OH277220   6.716   2.332   3.546  0.0973  0.0630  0.2754
18602TIP3    H177221   6.687   2.419   3.518 -0.8807 -0.0537  0.8696
18602TIP3    H277222   6.710   2.278   3.467  0.2078  0.4037  0.0286
18603TIP3   OH277223   3.867   2.816  12.089  0.1598 -0.0637  0.2765
18603TIP3    H177224   3.845   2.823  11.996  0.6862  0.6329  0.1948
18603TIP3    H277225   3.895   2.904  12.113  1.7821 -0.6565  0.6396
18604TIP3   OH277226   4.097   3.587   0.907  0.0919  0.1718  0.1741
18604TIP3    H177227   4.091   3.589   1.003 -0.2498  0.5480  0.1487
18604TIP3    H277228   4.189   3.603   0.889 -0.3484  3.9206  0.3756
18605TIP3   OH277229   0.970   1.749   1.848 -0.9607  0.1037  0.2919
18605TIP3    H177230   1.060   1.717   1.856  0.2221  3.1494  0.6320
18605TIP3    H277231   0.960   1.809   1.922 -3.1811  0.0643  0.0798
18606TIP3   OH277232   2.890   3.985   0.396  0.2919  0.6799  0.1699
18606TIP3    H177233   2.985   3.977   0.393  0.4190  2.0507  0.0940
18606TIP3    H277234   2.863   3.999   0.306 -0.2735 -2.1663 -0.2020
18607TIP3   OH277235   1.765   0.323  16.337 -0.2250 -0.2717 -0.2867
18607TIP3    H177236   1.719   0.247  16.374 -0.0217  0.1778  0.9464
18607TIP3    H277237   1.844   0.287  16.298  0.0763 -0.6543  0.6619
18608TIP3   OH277238   2.955   2.574   0.200  0.4249 -0.0781 -0.2438
18608TIP3    H177239   2.919   2.662   0.202 -0.2908 -0.3810  1.1105
18608TIP3    H277240   2.889   2.522   0.154  0.7842  0.0479 -0.9191
18609TIP3   OH277241   5.585   1.480   6.647 -0.5557  0.2646 -0.0706
18609TIP3    H177242   5.491   1.463   6.639 -0.5297 -0.1322  0.4745
18609TIP3    H277243   5.613   1.427   6.721  0.3497 -0.6464 -1.0231
18610TIP3   OH277244   0.239   2.515   5.741  0.1680 -0.0596 -0.1748
18610TIP3    H177245   0.322   2.484   5.777  0.3436  1.8878  1.2664
18610TIP3    H277246   0.262   2.554   5.657  0.3664 -1.2472 -0.6942
18611TIP3   OH277247   3.448   1.871  13.709 -0.1224 -0.4218 -0.0302
18611TIP3    H177248   3.468   1.806  13.641  1.7690  0.1143 -0.0600
18611TIP3    H277249   3.353   1.879  13.708 -0.1744 -0.4911 -2.5740
18612TIP3   OH277250   1.817   0.751   4.975  0.2203  0.4082  0.4404
18612TIP3    H177251   1.910   0.738   4.957 -0.1853 -1.6410 -0.5408
18612TIP3    H277252   1.802   0.845   4.964  1.8242  0.5185 -1.1592
18613TIP3   OH277253   1.617   5.292  16.436 -0.3054  0.3364 -0.5744
18613TIP3    H177254   1.572   5.211  16.462 -2.2157  1.3697 -0.4844
18613TIP3    H277255   1.633   5.337  16.519 -1.0479  0.9384 -0.7488
18614TIP3   OH277256   6.341   0.008   5.851  0.1931 -0.5211 -0.1586
18614TIP3    H177257   6.310  -0.024   5.936 -1.0969  3.3673  1.0688
18614TIP3    H277258   6.416   0.063   5.872  0.2630 -0.0226 -1.5912
18615TIP3   OH277259   4.706   4.645   5.258 -0.6673  0.6144  0.3217
18615TIP3    H177260   4.706   4.623   5.351 -1.3259  1.8756  0.6436
18615TIP3    H277261   4.708   4.561   5.213  0.8844 -0.0016  1.4656
18616TIP3   OH277262   3.084   0.327   4.699  0.4788  0.1466 -0.2274
18616TIP3    H177263   3.165   0.297   4.659  0.4865  1.8707 -1.6157
18616TIP3    H277264   3.109   0.407   4.746 -0.3635  0.5882 -0.5119
18617TIP3   OH277265   3.106   4.911   2.157  0.0748  0.1676 -0.8600
18617TIP3    H177266   3.031   4.853   2.164 -0.5986  1.0498 -0.6183
18617TIP3    H277267   3.069   4.996   2.132  0.8558  0.8874  0.3194
18618TIP3   OH277268   4.149   3.011  13.381 -0.6775  0.3406  0.1257
18618TIP3    H177269   4.156   2.956  13.304  0.6759  0.9719 -0.2420
18618TIP3    H277270   4.175   2.955  13.454 -1.1222 -0.0181  0.0067
18619TIP3   OH277271   0.478   5.220  14.815 -0.0804  0.3866 -0.5523
18619TIP3    H177272   0.572   5.214  14.836 -0.1340  2.5845  0.5593
18619TIP3    H277273   0.476   5.245  14.723  0.4767  1.4243 -0.2976
18620TIP3   OH277274   4.843   2.291   6.913  0.0092  0.0060  0.2113
18620TIP3    H177275   4.763   2.342   6.923  0.6895  0.9315  1.1406
18620TIP3    H277276   4.912   2.347   6.948  0.9816 -1.0079 -0.0199
18621TIP3   OH277277   4.431   4.761  16.380  0.2708  0.6384 -0.2878
18621TIP3    H177278   4.423   4.713  16.298 -0.8376 -1.5379  0.9856
18621TIP3    H277279   4.525   4.759  16.400  0.3317 -0.4327 -0.6190
18622TIP3   OH277280   4.862   6.661   5.843  0.3360 -0.2578 -0.3587
18622TIP3    H177281   4.799   6.634   5.909 -0.5057  0.9246 -0.6484
18622TIP3    H277282   4.947   6.636   5.879 -0.2518 -1.4944  0.2261
18623TIP3   OH277283   0.095   3.862   4.514 -0.4813  0.5548  0.6411
18623TIP3    H177284   0.112   3.779   4.558  0.5020  0.1566 -0.4571
18623TIP3    H277285   0.135   3.928   4.570 -0.2580  0.1774  0.9270
18624TIP3   OH277286   4.189   4.956   2.839  0.3123  0.4605 -0.5796
18624TIP3    H177287   4.267   4.989   2.884  0.5542 -0.3962 -0.3416
18624TIP3    H277288   4.224   4.896   2.773 -0.0508  1.6036 -1.8469
18625TIP3   OH277289   4.888   3.263  17.306 -0.3492  1.1501  0.1832
18625TIP3    H177290   4.872   3.283  17.398 -1.6333 -1.9446  0.7552
18625TIP3    H277291   4.819   3.310  17.259 -1.3811  0.6138  1.1108
18626TIP3   OH277292   3.240   0.127   3.539 -0.3367  0.0028 -0.4666
18626TIP3    H177293   3.228   0.062   3.470  1.4826 -0.6860 -0.2057
18626TIP3    H277294   3.214   0.082   3.620 -2.6915  0.8849 -0.6771
18627TIP3   OH277295   5.547   5.637  15.480  0.1806  0.2688  0.2837
18627TIP3    H177296   5.585   5.649  15.393 -0.6249 -1.4060 -0.3332
18627TIP3    H277297   5.594   5.563  15.517 -1.2709 -0.7425  0.1802
18628TIP3   OH277298   0.521   1.794   4.179  0.4157 -0.4422 -0.2095
18628TIP3    H177299   0.527   1.843   4.097 -1.0141  1.6686  0.8434
18628TIP3    H277300   0.429   1.770   4.186  0.5227 -0.6114  0.7707
18629TIP3   OH277301   6.038   4.618  14.503 -0.1556 -0.9940 -0.5570
18629TIP3    H177302   6.075   4.705  14.494 -2.4468  0.0968 -0.2004
18629TIP3    H277303   5.973   4.612  14.433 -1.5701 -1.5223  0.7414
18630TIP3   OH277304   0.295   2.514  13.614  0.3882  0.6001 -0.1087
18630TIP3    H177305   0.264   2.557  13.535 -0.1984  0.0331 -0.1972
18630TIP3    H277306   0.346   2.439  13.581  0.6221  0.6883  0.0494
18631TIP3   OH277307   1.539   2.165  14.433  0.0317  0.3763 -0.1863
18631TIP3    H177308   1.587   2.233  14.386 -1.4930  0.9671 -0.9487
18631TIP3    H277309   1.607   2.111  14.474  1.3804  0.5396 -2.0978
18632TIP3   OH277310   3.952   0.870  11.482  0.4624  0.0180 -0.4917
18632TIP3    H177311   3.961   0.857  11.387  0.1631  0.1493 -0.5399
18632TIP3    H277312   3.857   0.870  11.497  0.3882  2.2221 -0.5380
18633TIP3   OH277313   3.133   4.613  13.276  0.1489  0.0809 -0.3994
18633TIP3    H177314   3.091   4.618  13.189 -0.3014  1.8905 -0.1202
18633TIP3    H277315   3.217   4.570  13.259  0.6136  1.4946 -1.9763
18634TIP3   OH277316   5.554   6.558  15.947 -0.2621 -0.6678 -0.1171
18634TIP3    H177317   5.618   6.488  15.959 -1.5161 -1.5599  1.8402
18634TIP3    H277318   5.487   6.541  16.013 -2.0287  0.7991 -1.4273
18635TIP3   OH277319   0.750   1.248   5.827 -0.3659 -0.2022  0.4031
18635TIP3    H177320   0.804   1.295   5.763 -1.4687  0.8888  0.2152
18635TIP3    H277321   0.812   1.213   5.890  0.5292  2.7196  1.3316
18636TIP3   OH277322   4.366   3.354   6.127 -0.6258 -0.2072 -0.3723
18636TIP3    H177323   4.416   3.412   6.184  0.8649 -1.5787 -0.2155
18636TIP3    H277324   4.425   3.281   6.108 -1.2728 -0.1531 -3.1592
18637TIP3   OH277325   0.981   5.381   3.576  0.1796 -0.1032  0.2745
18637TIP3    H177326   1.014   5.299   3.539  1.0819  0.9469 -1.3870
18637TIP3    H277327   0.886   5.370   3.579  0.0557 -0.3496 -2.3069
18638TIP3   OH277328   0.845   5.949   5.795  0.1977 -0.1826  0.3536
18638TIP3    H177329   0.882   5.897   5.724  0.3228 -0.4447  0.6115
18638TIP3    H277330   0.750   5.941   5.784  0.1540  1.5842 -1.1345
18639TIP3   OH277331   0.055   6.418  13.811 -0.2386  0.9755 -0.4001
18639TIP3    H177332   0.041   6.498  13.861  0.8313  2.2123 -1.9645
18639TIP3    H277333   0.142   6.388  13.837  0.1094  1.3425 -1.1064
18640TIP3   OH277334   3.801   4.329  11.826  0.4631 -0.4064  0.1256
18640TIP3    H177335   3.781   4.247  11.780  0.2115 -0.2184 -0.1028
18640TIP3    H277336   3.721   4.380  11.819  1.6137  1.2322 -2.6182
18641TIP3   OH277337   5.747   4.776   4.441 -0.2643 -0.2324  0.5813
18641TIP3    H177338   5.770   4.808   4.354  1.4595 -2.8209 -0.0413
18641TIP3    H277339   5.809   4.705   4.458 -0.9495 -0.2411  3.6867
18642TIP3   OH277340   6.232   5.825  14.768 -0.0743 -0.4946  0.0706
18642TIP3    H177341   6.254   5.857  14.680  0.3018  1.9060  0.9667
18642TIP3    H277342   6.138   5.804  14.762  0.1406 -1.2685 -1.1113
18643TIP3   OH277343   3.415   4.515   1.700 -0.3149  0.1790 -0.2376
18643TIP3    H177344   3.344   4.545   1.643 -1.7914  1.2947  2.0139
18643TIP3    H277345   3.387   4.428   1.729 -0.6602  0.4968  0.4164
18644TIP3   OH277346   6.320   1.309  11.321  0.0648  0.0659 -0.0071
18644TIP3    H177347   6.296   1.272  11.406 -2.2337  0.7495 -0.3004
18644TIP3    H277348   6.415   1.318  11.325 -0.0021  0.4060  2.6423
18645TIP3   OH277349   2.815   0.382   5.959 -0.3124 -0.3136 -0.1238
18645TIP3    H177350   2.795   0.318   5.890 -1.1171  0.6655 -0.8191
18645TIP3    H277351   2.782   0.342   6.039 -0.4415 -0.9506 -0.4855
18646TIP3   OH277352   0.396   5.432   1.987  0.0003  0.2200  0.3096
18646TIP3    H177353   0.301   5.420   1.997 -0.3179  2.4398  0.5065
18646TIP3    H277354   0.434   5.353   2.025 -1.7429 -0.2034  1.2943
18647TIP3   OH277355   0.663   5.785  16.016  0.3848 -0.3425  0.2997
18647TIP3    H177356   0.703   5.767  15.930 -2.5694  0.2122 -1.3244
18647TIP3    H277357   0.702   5.868  16.044  1.5634 -0.6463 -0.3534
18648TIP3   OH277358   2.236   3.550   6.254  0.7085 -0.1924 -0.5685
18648TIP3    H177359   2.143   3.565   6.238  0.6375 -1.9448 -2.1826
18648TIP3    H277360   2.240   3.522   6.346 -0.5946 -1.6108 -0.9078
18649TIP3   OH277361   4.211   5.052  15.540  0.1287  0.1555 -0.2658
18649TIP3    H177362   4.240   5.041  15.631  1.3905  0.9257 -0.5403
18649TIP3    H277363   4.183   5.143  15.535  0.9981  0.3960 -0.8785
18650TIP3   OH277364   1.376   1.858   1.346  0.2479  0.0609  0.4364
18650TIP3    H177365   1.336   1.880   1.262 -2.0746  0.0817  1.4578
18650TIP3    H277366   1.401   1.766   1.337 -1.6631 -0.4918  0.2614
18651TIP3   OH277367   6.380   0.864   4.370  0.1563  0.8696 -0.4059
18651TIP3    H177368   6.363   0.956   4.351  0.0817  1.4847  2.2279
18651TIP3    H277369   6.294   0.824   4.379  0.1456  1.2171  1.2008
18652TIP3   OH277370   5.504   0.496   2.004  0.0635  0.0032  0.2800
18652TIP3    H177371   5.508   0.424   2.067 -1.2789 -0.2577  0.0864
18652TIP3    H277372   5.509   0.454   1.918 -1.5070  0.0440  0.1445
18653TIP3   OH277373   5.284   1.995  15.353 -0.1850 -0.3404 -0.5216
18653TIP3    H177374   5.220   1.924  15.356 -1.5487  0.7514 -1.7664
18653TIP3    H277375   5.355   1.961  15.298  1.3827 -2.2947  2.4690
18654TIP3   OH277376   3.797   3.730   4.033  0.3140 -0.3177  0.1041
18654TIP3    H177377   3.848   3.811   4.043 -2.6452  1.8776 -0.9727
18654TIP3    H277378   3.759   3.716   4.119  1.7350 -1.3204  0.6077
18655TIP3   OH277379   6.168   5.427   4.512  0.2724  0.5133 -0.4707
18655TIP3    H177380   6.093   5.485   4.529 -0.8132 -0.8272 -0.4751
18655TIP3    H277381   6.132   5.339   4.522  1.8323 -0.1685 -0.6592
18656TIP3   OH277382   5.363   1.378   2.677 -0.2801 -0.1987 -0.2778
18656TIP3    H177383   5.436   1.328   2.714 -0.1459 -0.7718 -1.2601
18656TIP3    H277384   5.342   1.444   2.743  1.9324  0.7806 -0.4799
18657TIP3   OH277385   2.207   2.566   5.940  0.5924  0.0726  0.2965
18657TIP3    H177386   2.240   2.539   6.025  3.2109 -1.2738 -1.0368
18657TIP3    H277387   2.149   2.495   5.913 -2.7600  1.8854  2.1179
18658TIP3   OH277388   3.604   6.133  11.719 -0.4199 -0.3175 -0.1581
18658TIP3    H177389   3.614   6.162  11.810  0.6715  2.0715 -0.9453
18658TIP3    H277390   3.658   6.055  11.712  0.4613  0.1643  0.9760
18659TIP3   OH277391   0.749   2.224   3.023 -0.2738  0.0181  0.6392
18659TIP3    H177392   0.836   2.195   2.994  0.3154  0.1125  2.2128
18659TIP3    H277393   0.767   2.304   3.073 -1.4231  0.7550 -0.0815
18660TIP3   OH277394   1.456   6.738  13.064  0.6182  0.1011 -0.2867
18660TIP3    H177395   1.505   6.754  12.983  0.2357  0.2489 -0.4909
18660TIP3    H277396   1.480   6.811  13.121 -0.9278  1.3254 -1.1238
18661TIP3   OH277397   1.835   4.392  15.586 -0.3569  0.6274 -0.5027
18661TIP3    H177398   1.890   4.392  15.664  0.4554  0.7487 -1.0565
18661TIP3    H277399   1.883   4.446  15.523  0.5130 -1.8391 -2.1137
18662TIP3   OH277400   3.004   1.295   5.033 -0.4487  0.2906 -0.2393
18662TIP3    H177401   3.092   1.274   5.004 -0.3513  1.2241 -0.6533
18662TIP3    H277402   2.981   1.224   5.093  1.3999  1.1251  1.5830
18663TIP3   OH277403   3.867   5.085  14.445  0.2277  0.1205  0.5014
18663TIP3    H177404   3.843   5.138  14.369 -0.8481 -0.3339  0.5025
18663TIP3    H277405   3.854   4.995  14.417 -0.0906 -0.0528  1.1895
18664TIP3   OH277406   2.651   4.887   1.823  0.6135  0.4347 -0.1493
18664TIP3    H177407   2.661   4.975   1.785 -1.3910 -0.0076 -1.9117
18664TIP3    H277408   2.709   4.832   1.771  0.5288  0.4308 -0.2410
18665TIP3   OH277409   4.718   3.636   0.627 -0.0316  0.0633  0.1187
18665TIP3    H177410   4.709   3.706   0.563  0.0564 -0.4668 -0.4792
18665TIP3    H277411   4.762   3.677   0.702 -1.2446  0.9884  0.3529
18666TIP3   OH277412   1.867   0.182   3.951 -0.0575 -0.1012  0.1259
18666TIP3    H177413   1.848   0.100   3.996  0.6490  0.1999  0.9936
18666TIP3    H277414   1.810   0.247   3.993  1.1652  0.3412  1.1812
18667TIP3   OH277415   1.672   4.099   2.049  0.0787  0.0058 -0.1979
18667TIP3    H177416   1.712   4.145   1.976  1.5228 -1.5177 -0.4292
18667TIP3    H277417   1.694   4.153   2.126 -0.9617  1.3060 -0.7705
18668TIP3   OH277418   4.336   1.749  15.627  0.9831 -0.0665 -0.0317
18668TIP3    H177419   4.366   1.811  15.560  1.0154  2.1091  1.9060
18668TIP3    H277420   4.379   1.777  15.707 -0.7121 -1.3008  1.3743
18669TIP3   OH277421   5.073   2.925  12.121 -0.1000  0.0644  0.0025
18669TIP3    H177422   5.158   2.942  12.080 -0.6769  0.3526 -1.1224
18669TIP3    H277423   5.056   2.832  12.104 -0.7534  0.3897 -1.2755
18670TIP3   OH277424   5.603   4.766   0.600 -0.4044  0.3487  0.0695
18670TIP3    H177425   5.614   4.692   0.541 -0.0454  0.0562  0.4996
18670TIP3    H277426   5.524   4.745   0.650  1.0861 -0.9858  1.9719
18671TIP3   OH277427   2.754   6.241   4.362 -0.1450  0.6250  0.2661
18671TIP3    H177428   2.755   6.232   4.266 -0.6808 -0.0825  0.3127
18671TIP3    H277429   2.834   6.197   4.391  0.6907  1.9755  0.0733
18672TIP3   OH277430   6.252   0.685  13.833  0.7806  0.0683  0.1667
18672TIP3    H177431   6.267   0.719  13.745 -0.4700  1.1358  0.3422
18672TIP3    H277432   6.293   0.749  13.890  0.8294 -0.1645  0.3916
18673TIP3   OH277433   4.647   3.445   4.202  0.4891  0.0176 -0.2073
18673TIP3    H177434   4.733   3.473   4.171  1.0632 -0.4285  0.9492
18673TIP3    H277435   4.632   3.497   4.281 -0.1856 -0.1183 -0.2415
18674TIP3   OH277436   1.470   1.170  13.802 -0.5804 -0.2917 -0.2229
18674TIP3    H177437   1.438   1.246  13.850  2.9016  0.2590  1.5942
18674TIP3    H277438   1.426   1.095  13.843  0.8426  0.3240  2.7144
18675TIP3   OH277439   6.352   0.641  11.664 -0.2420 -0.4329  0.0827
18675TIP3    H177440   6.330   0.612  11.576  0.2650 -1.4045  0.2631
18675TIP3    H277441   6.354   0.560  11.716  1.2050 -0.0850  0.6095
18676TIP3   OH277442   5.664   5.856  15.270  0.4341 -0.3223  0.4963
18676TIP3    H177443   5.745   5.885  15.312  0.7703 -1.1788  0.4516
18676TIP3    H277444   5.646   5.923  15.203  0.5827  0.3738  1.1386
18677TIP3   OH277445   1.623   6.185  13.295  0.3155 -0.2332  0.1182
18677TIP3    H177446   1.587   6.113  13.346  0.3164 -0.6274 -0.4315
18677TIP3    H277447   1.676   6.142  13.228  0.5743  0.2913 -0.0151
18678TIP3   OH277448   2.360   0.373   3.929  0.2803 -0.4761 -0.5528
18678TIP3    H177449   2.274   0.395   3.964  0.7303  0.1672  0.1721
18678TIP3    H277450   2.422   0.410   3.992  1.0973 -2.7451  0.0622
18679TIP3   OH277451   5.417   2.992  13.731  0.8103 -0.1530  0.5512
18679TIP3    H177452   5.499   2.985  13.780  1.1862  0.2699 -0.0078
18679TIP3    H277453   5.398   2.903  13.703 -0.1215 -0.6467  2.5857
18680TIP3   OH277454   6.026   5.620   1.776  0.1972 -0.2346 -0.4525
18680TIP3    H177455   6.037   5.525   1.771  0.6977 -0.1652 -0.7446
18680TIP3    H277456   6.094   5.649   1.837  0.1116 -0.0506 -0.4433
18681TIP3   OH277457   2.202   1.793  12.219  0.1794  0.4072 -0.0403
18681TIP3    H177458   2.180   1.796  12.126  0.6483  0.2448 -0.1579
18681TIP3    H277459   2.265   1.722  12.227  0.2842  0.5421  0.3698
18682TIP3   OH277460   1.827   6.447   2.120  0.2480 -0.3173  0.4834
18682TIP3    H177461   1.828   6.391   2.043 -0.5584 -0.1140  0.3167
18682TIP3    H277462   1.765   6.406   2.180 -0.7578  0.6604  0.1448
18683TIP3   OH277463   4.966   4.391  11.594 -0.0321  0.1713  0.3292
18683TIP3    H177464   4.878   4.373  11.627  1.0094 -2.6445  1.9274
18683TIP3    H277465   5.021   4.392  11.673  1.5105  0.8318 -0.7159
18684TIP3   OH277466   5.999   5.666   0.666 -0.2323 -0.0469 -0.3346
18684TIP3    H177467   5.917   5.700   0.632  0.4359  1.8860 -0.1012
18684TIP3    H277468   5.973   5.598   0.729 -1.6699  1.0895  0.3461
18685TIP3   OH277469   4.436   1.239   1.697 -0.4512 -0.3369  0.3227
18685TIP3    H177470   4.367   1.298   1.726  0.9125  0.3355  2.3718
18685TIP3    H277471   4.421   1.158   1.746  0.3680 -0.0750  1.0319
18686TIP3   OH277472   1.783   4.961   1.392 -0.1756  0.0314  0.5607
18686TIP3    H177473   1.765   4.947   1.300 -0.4334  0.6316  0.5134
18686TIP3    H277474   1.751   4.882   1.436  0.9427 -0.7438  0.0307
18687TIP3   OH277475   2.938   3.864  17.318 -0.0367 -0.0419 -0.3341
18687TIP3    H177476   2.974   3.895  17.236  3.5268 -0.2630  0.9833
18687TIP3    H277477   2.966   3.930  17.383 -2.2771 -0.1384  0.8352
18688TIP3   OH277478   1.627   5.743  12.209  0.5079 -0.5156  0.1821
18688TIP3    H177479   1.542   5.708  12.182  0.2974 -0.5949  0.9264
18688TIP3    H277480   1.648   5.695  12.289  0.2680  0.9404  1.1620
18689TIP3   OH277481   1.325   2.280  10.772  0.5610 -0.1024  0.1021
18689TIP3    H177482   1.342   2.245  10.685 -0.2970  0.0708 -0.1466
18689TIP3    H277483   1.243   2.329  10.763  0.0032 -0.7794  1.1864
18690TIP3   OH277484   0.930   5.529  13.392 -0.2590 -0.7106 -0.1046
18690TIP3    H177485   0.895   5.617  13.404  2.8088  0.8379 -1.3684
18690TIP3    H277486   0.921   5.512  13.298  0.7471 -1.0024 -0.1553
18691TIP3   OH277487   4.676   0.475   2.169  0.4606  1.0004 -0.6445
18691TIP3    H177488   4.641   0.395   2.208 -0.4724  1.5550 -0.3090
18691TIP3    H277489   4.721   0.446   2.090 -1.0087  0.2610 -1.2516
18692TIP3   OH277490   4.808   2.973   5.996  0.0351 -0.2236 -0.2201
18692TIP3    H177491   4.774   2.997   6.083  0.7310 -1.5906  0.4536
18692TIP3    H277492   4.891   3.020   5.990  0.2588 -0.5743  0.0979
18693TIP3   OH277493   3.491   5.650  15.672  0.8219  0.4165  0.7480
18693TIP3    H177494   3.442   5.663  15.591 -0.3756  1.0865  1.5460
18693TIP3    H277495   3.543   5.730  15.681 -0.1632  1.0054  1.3699
18694TIP3   OH277496   3.697   3.478   4.343  1.0807  0.3745 -0.5111
18694TIP3    H177497   3.659   3.566   4.333 -1.9426 -0.9204 -1.5904
18694TIP3    H277498   3.787   3.494   4.370  0.4826  3.7944 -0.0702
18695TIP3   OH277499   6.137   1.953  16.942 -0.7392 -0.1400  0.4941
18695TIP3    H177500   6.070   2.017  16.963  0.4525  0.9205  1.2609
18695TIP3    H277501   6.220   1.996  16.966  0.0399 -2.4926  2.5389
18696TIP3   OH277502   2.807   2.798   0.264  0.1957  0.5069  0.1829
18696TIP3    H177503   2.814   2.860   0.336  2.0209 -0.7659  1.1567
18696TIP3    H277504   2.719   2.761   0.273 -0.2467  1.6208  0.6615
18697TIP3   OH277505   1.748   1.557  16.016 -0.0118  0.6019  0.3288
18697TIP3    H177506   1.776   1.621  15.951 -0.5772 -0.3267 -0.8931
18697TIP3    H277507   1.667   1.593  16.053  0.6985  1.4721  1.0460
18698TIP3   OH277508   5.801   0.189  14.037  0.2835  0.2358  0.4290
18698TIP3    H177509   5.894   0.183  14.015  0.8544  0.9654  2.3769
18698TIP3    H277510   5.756   0.178  13.954  2.1798  2.1948 -0.9899
18699TIP3   OH277511   0.286   1.515   4.388  0.0884  0.1186  0.4391
18699TIP3    H177512   0.320   1.491   4.474  0.0811 -1.1271  0.1243
18699TIP3    H277513   0.214   1.453   4.374 -0.7695  1.1671  0.0923
18700TIP3   OH277514   1.030   4.491  13.019 -0.4034 -0.1538 -0.5147
18700TIP3    H177515   1.044   4.468  13.110 -1.8306  0.2486 -0.1750
18700TIP3    H277516   1.114   4.528  12.990  0.2017 -0.7203  0.4800
18701TIP3   OH277517   4.730   5.868   5.955  0.4914 -0.3548  0.0744
18701TIP3    H177518   4.692   5.836   5.873  0.6403  0.7152 -0.4257
18701TIP3    H277519   4.733   5.791   6.012 -1.0424 -0.7842 -0.3900
18702TIP3   OH277520   5.136   3.682  13.315  0.5967  0.0046  0.2136
18702TIP3    H177521   5.154   3.601  13.363 -0.2331  0.9188  2.1703
18702TIP3    H277522   5.043   3.679  13.296  1.0298 -0.6816 -2.1115
18703TIP3   OH277523   5.752   5.131   4.449  0.4472  0.1875  0.2674
18703TIP3    H177524   5.671   5.182   4.438  1.0601  0.9695 -0.9159
18703TIP3    H277525   5.742   5.057   4.388 -0.5708 -1.3539  2.1991
18704TIP3   OH277526   3.252   4.932  17.058  0.0270 -0.3039  0.4444
18704TIP3    H177527   3.211   4.989  17.123 -0.8811  2.2079 -2.1233
18704TIP3    H277528   3.325   4.984  17.023 -0.0013 -1.2437 -1.0871
18705TIP3   OH277529   0.339   4.958   1.722  0.3931  0.0277  0.2206
18705TIP3    H177530   0.319   5.050   1.734  0.4870  0.0484  0.2218
18705TIP3    H277531   0.356   4.925   1.810 -0.4861 -0.1914  0.3223
18706TIP3   OH277532   4.253   2.860  11.622  0.6907 -0.6103  0.0729
18706TIP3    H177533   4.247   2.955  11.614  0.0885 -0.5384  1.1841
18706TIP3    H277534   4.212   2.827  11.542 -2.1011  0.0627  1.1063
18707TIP3   OH277535   6.457   4.725   2.810 -0.1108 -0.6585 -0.3405
18707TIP3    H177536   6.362   4.733   2.808 -0.2899  0.0029  3.4627
18707TIP3    H277537   6.487   4.778   2.736 -2.6634  0.3087 -0.7937
18708TIP3   OH277538   1.626   5.572   5.109  0.1424 -0.4053 -0.0702
18708TIP3    H177539   1.665   5.602   5.027  1.0499 -1.3683 -0.0128
18708TIP3    H277540   1.611   5.478   5.096  0.1372 -0.5330  0.8032
18709TIP3   OH277541   3.826   2.195  16.014  0.2086  0.6203  0.2888
18709TIP3    H177542   3.900   2.136  16.003 -0.9051 -1.2642  2.1061
18709TIP3    H277543   3.793   2.209  15.926  1.3172 -0.3829 -0.3182
18710TIP3   OH277544   6.691   5.014  11.792  0.0326  0.7170 -0.2926
18710TIP3    H177545   6.710   4.934  11.744 -2.8913 -2.6544  3.4620
18710TIP3    H277546   6.753   5.014  11.864 -1.1489  0.7785  0.7463
18711TIP3   OH277547   0.898   3.740  15.082 -0.1034 -0.2390 -0.0395
18711TIP3    H177548   0.815   3.756  15.037  0.1094  1.7335  0.1662
18711TIP3    H277549   0.873   3.706  15.168 -0.6943  0.1498 -0.0512
18712TIP3   OH277550   0.028   6.657   5.298 -0.2531 -0.8819  0.5459
18712TIP3    H177551   0.122   6.637   5.299 -0.0993 -0.7065 -2.3078
18712TIP3    H277552  -0.015   6.573   5.288 -0.5098 -1.0539  2.7167
18713TIP3   OH277553   4.702   4.377  11.657  0.7758  0.0944  0.0543
18713TIP3    H177554   4.619   4.419  11.635  0.1032 -1.8785 -1.4791
18713TIP3    H277555   4.727   4.416  11.741 -1.4926  1.0286  0.3697
18714TIP3   OH277556   2.177   6.278   4.499 -0.3614 -0.1355  0.0713
18714TIP3    H177557   2.164   6.263   4.405 -0.2342  0.4544 -0.0396
18714TIP3    H277558   2.106   6.228   4.540 -0.7643  0.0711 -0.3631
18715TIP3   OH277559   3.176   4.181  14.167 -0.4669 -0.0150 -0.2476
18715TIP3    H177560   3.194   4.178  14.073 -0.7712 -1.3303 -0.2824
18715TIP3    H277561   3.139   4.268  14.181  0.7958  0.6993 -1.1036
18716TIP3   OH277562   3.690   5.256   6.038 -0.2573 -0.1812 -0.3698
18716TIP3    H177563   3.611   5.297   6.073  1.1439  0.9309  1.7604
18716TIP3    H277564   3.675   5.162   6.046 -1.1266  0.0223  0.6221
18717TIP3   OH277565   6.740   2.754   2.147  0.0320  0.0100 -0.2444
18717TIP3    H177566   6.664   2.784   2.197  0.2381  0.8248 -0.3944
18717TIP3    H277567   6.761   2.828   2.089  0.9715 -0.1785 -0.1667
18718TIP3   OH277568   6.430   0.067   1.833 -0.2785  0.5091 -0.3954
18718TIP3    H177569   6.379  -0.007   1.798  0.2935 -0.0368 -0.0870
18718TIP3    H277570   6.404   0.141   1.778  0.0531 -0.1753 -1.5128
18719TIP3   OH277571   1.997   0.512   3.621 -0.1949  0.2557 -0.3768
18719TIP3    H177572   2.054   0.553   3.556 -0.3754  1.6284  0.2873
18719TIP3    H277573   1.969   0.585   3.677 -0.1650 -0.8652  1.1514
18720TIP3   OH277574   5.645   0.272   5.086 -0.7402  0.5883 -0.4050
18720TIP3    H177575   5.672   0.352   5.130 -0.6255  0.8460 -0.9398
18720TIP3    H277576   5.571   0.240   5.138  0.4578 -0.0342  0.9723
18721TIP3   OH277577   1.408   6.003   3.022  0.1109  0.5811 -0.2517
18721TIP3    H177578   1.365   6.054   3.091 -1.5366 -1.8639  0.6481
18721TIP3    H277579   1.390   6.051   2.941  0.8470  2.7523  0.8073
18722TIP3   OH277580   2.791   5.705   2.656 -0.1466 -0.1239  0.6075
18722TIP3    H177581   2.862   5.752   2.698  0.9132 -0.3882 -0.7968
18722TIP3    H277582   2.779   5.625   2.708 -0.1257  0.4113  1.4387
18723TIP3   OH277583   5.641   3.343   5.173  0.6597  0.4887 -0.3160
18723TIP3    H177584   5.660   3.437   5.183  0.9311  0.2245  2.8701
18723TIP3    H277585   5.553   3.333   5.211  1.8522 -0.8801  2.3956
18724TIP3   OH277586   5.300   5.553   3.058 -0.0368  0.3902 -0.3061
18724TIP3    H177587   5.248   5.565   2.978  0.0233  1.2384 -0.2258
18724TIP3    H277588   5.381   5.602   3.042 -0.4270  1.3839  0.6355
18725TIP3   OH277589   2.538   1.870   6.470 -0.3647  0.5273  0.0442
18725TIP3    H177590   2.491   1.927   6.531 -1.8440 -0.8009  0.2236
18725TIP3    H277591   2.475   1.802   6.448  0.1218  0.8818 -2.9291
18726TIP3   OH277592   3.877   0.001  13.904 -0.1860 -0.1872 -0.1765
18726TIP3    H177593   3.930   0.011  13.826 -1.1570 -1.4108 -1.0426
18726TIP3    H277594   3.900   0.076  13.959  1.1481  0.2255 -1.2466
18727TIP3   OH277595   5.791   2.295   5.259 -0.4730 -0.3260 -0.6902
18727TIP3    H177596   5.738   2.219   5.283  0.0591 -0.1691  1.1210
18727TIP3    H277597   5.875   2.280   5.302 -0.5858  1.6033  0.2993
18728TIP3   OH277598   3.298   4.202  13.303 -0.0997  0.7374 -0.4861
18728TIP3    H177599   3.266   4.183  13.215 -1.3323  1.3334 -0.1949
18728TIP3    H277600   3.391   4.180  13.301 -0.0860  0.8658 -1.9709
18729TIP3   OH277601   0.145   5.618  13.712 -0.2494  0.1933 -0.0145
18729TIP3    H177602   0.058   5.654  13.696  0.2302  1.5418  0.2993
18729TIP3    H277603   0.142   5.591  13.804 -0.7211 -0.9698 -0.3424
18730TIP3   OH277604   2.456   2.436   5.293 -0.6382 -0.2047  0.6323
18730TIP3    H177605   2.372   2.400   5.265 -0.3892 -0.7041  0.4981
18730TIP3    H277606   2.521   2.376   5.255 -0.2041  0.4418  0.3334
18731TIP3   OH277607   6.367   1.261   5.427 -0.1495  0.1393  0.5640
18731TIP3    H177608   6.462   1.275   5.429  0.0096 -0.6076 -0.5083
18731TIP3    H277609   6.337   1.283   5.515  0.7229  2.3982  0.3440
18732TIP3   OH277610   5.549   4.991   4.821  0.4281  0.2140  0.2866
18732TIP3    H177611   5.524   4.919   4.879 -0.6530  0.1192 -0.2751
18732TIP3    H277612   5.494   5.064   4.848  1.7029  0.9334  1.0273
18733TIP3   OH277613   5.413   2.841  15.532  0.4517  0.1327 -0.2990
18733TIP3    H177614   5.406   2.794  15.616 -0.1537  0.8189  0.0521
18733TIP3    H277615   5.505   2.832  15.507  0.5472 -0.4492  0.2246
18734TIP3   OH277616   1.844   0.836  16.229 -0.2468  0.0595  0.6100
18734TIP3    H177617   1.897   0.800  16.158 -0.5394 -0.1181  0.4773
18734TIP3    H277618   1.771   0.879  16.184  0.5632  1.6400  0.7163
18735TIP3   OH277619   1.144   2.516  14.672 -0.3445  0.1116 -0.3282
18735TIP3    H177620   1.162   2.425  14.652 -3.0564 -1.0659  1.9064
18735TIP3    H277621   1.078   2.542  14.608 -1.3139 -0.3046  0.4758
18736TIP3   OH277622   6.516   6.500  12.426  0.1469  0.2678 -0.0296
18736TIP3    H177623   6.457   6.436  12.385 -0.0198  1.5718 -1.9965
18736TIP3    H277624   6.602   6.460  12.421 -0.1243 -0.3221 -0.0847
18737TIP3   OH277625   1.949   1.226  15.617 -0.7293 -0.4116 -0.5067
18737TIP3    H177626   1.973   1.137  15.643 -0.2712 -0.2201 -0.2738
18737TIP3    H277627   1.961   1.227  15.522 -0.5179 -0.5300 -0.4808
18738TIP3   OH277628   4.046   0.174  11.791 -0.5308  0.2634 -0.5099
18738TIP3    H177629   3.990   0.233  11.841 -0.2622 -0.0213  0.1357
18738TIP3    H277630   4.135   0.203  11.810 -0.4054 -0.2179 -0.3562
18739TIP3   OH277631   1.293   0.457   0.068 -0.1577 -0.0853 -0.0615
18739TIP3    H177632   1.305   0.474   0.162  2.2750 -1.0251 -0.1462
18739TIP3    H277633   1.212   0.505   0.046 -0.0145  1.3604  2.1814
18740TIP3   OH277634   6.756   2.605   4.043  0.1454  0.2833 -0.8416
18740TIP3    H177635   6.725   2.637   4.128  1.6705  0.5073 -0.3282
18740TIP3    H277636   6.769   2.684   3.991 -1.7161  0.0909 -1.6557
18741TIP3   OH277637   4.080   5.327  13.931  0.0360  0.0906 -0.0989
18741TIP3    H177638   4.169   5.359  13.945  1.1909 -2.6598 -0.6796
18741TIP3    H277639   4.037   5.399  13.884  1.7765  1.6640  0.5928
18742TIP3   OH277640   0.859   1.056  16.501 -0.1906  0.3882 -0.3126
18742TIP3    H177641   0.795   0.991  16.471  0.4683  0.0987 -1.1499
18742TIP3    H277642   0.915   1.071  16.424  0.5070  0.9231  0.2875
18743TIP3   OH277643   1.292   6.175   3.198 -0.3010 -0.0729  0.1480
18743TIP3    H177644   1.307   6.268   3.187  0.3569 -0.0013  1.4549
18743TIP3    H277645   1.202   6.161   3.167 -0.7224  1.1472  0.7581
18744TIP3   OH277646   5.151   0.907  15.408  0.2734 -0.6152 -0.1369
18744TIP3    H177647   5.057   0.887  15.408 -0.0938  0.9326 -0.8452
18744TIP3    H277648   5.193   0.823  15.391 -0.9590 -1.4075  0.5417
18745TIP3   OH277649   4.656   6.436  10.706  0.3294 -0.0708  0.5693
18745TIP3    H177650   4.707   6.493  10.764 -0.9302 -0.4911  2.1769
18745TIP3    H277651   4.637   6.359  10.760 -0.4669 -0.7057 -0.5937
18746TIP3   OH277652   5.058   2.734  17.007  0.5833 -0.0903 -0.4642
18746TIP3    H177653   4.971   2.694  17.011  0.1537  0.8312 -0.2361
18746TIP3    H277654   5.045   2.814  16.956  1.2500  0.1895 -0.2076
18747TIP3   OH277655   3.796   1.286   2.870 -0.0904  0.1363 -0.3425
18747TIP3    H177656   3.854   1.218   2.904 -1.7642  0.2472  3.1266
18747TIP3    H277657   3.827   1.367   2.912 -0.5439  0.8579 -1.3407
18748TIP3   OH277658   6.649   4.534   4.914 -0.2674  0.4191  0.3319
18748TIP3    H177659   6.604   4.459   4.876 -0.1032  0.5312 -0.0906
18748TIP3    H277660   6.741   4.522   4.889 -0.3280  1.0600 -0.2361
18749TIP3   OH277661   3.350   5.289  13.067 -0.2183  0.5507  0.0089
18749TIP3    H177662   3.326   5.321  12.980 -3.8014 -1.4663  0.0519
18749TIP3    H277663   3.307   5.349  13.128  0.9052  1.0011  0.3823
18750TIP3   OH277664   2.605   5.176   4.989  0.3563 -0.0829  0.6515
18750TIP3    H177665   2.589   5.098   4.936 -0.2078 -2.4091  3.9379
18750TIP3    H277666   2.700   5.189   4.983  0.2718 -0.0607 -1.1250
18751TIP3   OH277667   1.025   2.964  11.783 -0.0050  0.3595 -0.0834
18751TIP3    H177668   1.047   2.911  11.860 -0.6253 -0.0700 -0.1870
18751TIP3    H277669   1.100   2.955  11.725 -1.0450 -2.4221 -1.1539
18752TIP3   OH277670   4.611   5.342   3.738 -0.1744  0.4820  0.1290
18752TIP3    H177671   4.554   5.400   3.787 -0.3918 -0.3525  0.8891
18752TIP3    H277672   4.669   5.303   3.804  1.3690  1.3784 -0.6278
18753TIP3   OH277673   6.105   5.813  16.916 -0.0140 -0.0357 -0.5501
18753TIP3    H177674   6.149   5.850  16.993  0.1527 -1.8257  0.2493
18753TIP3    H277675   6.077   5.890  16.866  1.5416  1.1696  0.3282
18754TIP3   OH277676   5.022   3.001  12.540 -0.2445 -0.0167  0.0272
18754TIP3    H177677   5.025   3.052  12.460 -1.8753  0.6243  0.3387
18754TIP3    H277678   5.108   2.959  12.545  0.1268  0.4678 -1.6815
18755TIP3   OH277679   2.166   2.071   0.864 -0.1430 -0.0847 -0.1186
18755TIP3    H177680   2.165   2.111   0.950  1.1414  0.5972 -0.4051
18755TIP3    H277681   2.228   1.998   0.872 -0.5758 -0.4813 -0.2811
18756TIP3   OH277682   1.509   0.800   2.396  0.1389  0.3251 -0.4066
18756TIP3    H177683   1.526   0.872   2.457  1.4029  0.0848 -0.4462
18756TIP3    H277684   1.419   0.775   2.414  0.4048  0.4086  1.2170
18757TIP3   OH277685   4.940   2.526   3.958  0.5080  0.9293 -0.2425
18757TIP3    H177686   4.970   2.540   3.868 -0.6379  0.0066 -0.7828
18757TIP3    H277687   4.961   2.435   3.977  0.9161  1.1683  0.5093
18758TIP3   OH277688   6.140   2.522  16.380  0.1370 -0.2031  0.7958
18758TIP3    H177689   6.069   2.585  16.386  0.1716 -0.2890  2.9945
18758TIP3    H277690   6.218   2.575  16.360 -0.3670 -0.0186 -0.8171
18759TIP3   OH277691   1.369   1.777   0.910 -0.0260 -0.3648  0.1313
18759TIP3    H177692   1.392   1.860   0.952 -2.6954  0.6694 -0.2324
18759TIP3    H277693   1.391   1.791   0.818 -1.3928  0.3770 -0.1086
18760TIP3   OH277694   4.829   4.751   0.848 -0.3244 -0.1391 -0.0769
18760TIP3    H177695   4.818   4.665   0.889 -1.5996  0.5935  1.2142
18760TIP3    H277696   4.843   4.810   0.922 -0.2407  0.8784 -0.8970
18761TIP3   OH277697   3.835   2.349  15.479  0.1752 -0.2139 -0.1187
18761TIP3    H177698   3.774   2.280  15.453  0.2892  0.1656 -1.5031
18761TIP3    H277699   3.915   2.302  15.505 -0.2834 -0.6566  0.5079
18762TIP3   OH277700   6.657   0.437   6.675  0.2706  0.4124  0.4369
18762TIP3    H177701   6.564   0.461   6.672 -0.0763 -0.8922  0.2143
18762TIP3    H277702   6.665   0.366   6.612  1.0961 -0.5782  1.6239
18763TIP3   OH277703   0.707   6.111  12.513  0.0354 -0.1363 -0.1880
18763TIP3    H177704   0.679   6.021  12.528  0.0755  0.0459  1.0630
18763TIP3    H277705   0.627   6.158  12.491 -0.1039 -0.3197 -0.0704
18764TIP3   OH277706   2.560   2.020  13.722 -0.1713  0.4286 -0.3230
18764TIP3    H177707   2.637   2.031  13.778  0.1985  1.3236 -0.9943
18764TIP3    H277708   2.564   2.093  13.662  0.9361 -1.8840 -3.3249
18765TIP3   OH277709   2.520   5.123   1.348 -0.0747 -0.0356  0.2727
18765TIP3    H177710   2.497   5.032   1.362  0.8901 -0.1553  1.2441
18765TIP3    H277711   2.611   5.129   1.377 -0.1732  1.2650  0.3678
18766TIP3   OH277712   0.746   0.521  15.106 -0.0344  0.0178 -0.2641
18766TIP3    H177713   0.836   0.551  15.116  0.5948 -1.4978 -0.9824
18766TIP3    H277714   0.752   0.426  15.117 -1.3609 -0.2327 -1.4986
18767TIP3   OH277715   0.020   1.143  16.414  0.8390 -0.3107 -0.0064
18767TIP3    H177716   0.061   1.216  16.462 -0.7351  1.6595 -1.4711
18767TIP3    H277717  -0.071   1.143  16.444  0.9104 -1.9860  0.2660
18768TIP3   OH277718   4.435   4.080   1.704  0.3429  0.5180 -0.9807
18768TIP3    H177719   4.524   4.045   1.709  0.3747  0.7580  0.6646
18768TIP3    H277720   4.444   4.164   1.658  0.9384  0.4650 -0.9617
18769TIP3   OH277721   4.510   0.337   3.597  0.4064 -0.3529 -0.2396
18769TIP3    H177722   4.605   0.332   3.592  0.3004 -2.8998 -1.3132
18769TIP3    H277723   4.489   0.296   3.681  0.2086 -2.7577 -1.3743
18770TIP3   OH277724   6.164   3.582  11.402  0.0702  0.7922 -0.2795
18770TIP3    H177725   6.216   3.660  11.422  1.4437 -0.5537  1.7375
18770TIP3    H277726   6.074   3.609  11.417  0.3963  2.3203 -0.8484
18771TIP3   OH277727   0.302   0.382   4.262  0.2167 -0.2626  0.1181
18771TIP3    H177728   0.348   0.301   4.243 -0.0335 -0.1839 -0.8866
18771TIP3    H277729   0.289   0.423   4.176  1.2899  1.3615  0.6830
18772TIP3   OH277730   1.557   6.126  11.328 -0.0246  0.4427  0.1166
18772TIP3    H177731   1.615   6.069  11.276 -0.9019  0.2237 -0.6376
18772TIP3    H277732   1.469   6.105  11.298 -0.5350  0.5374  1.4963
18773TIP3   OH277733   2.564   2.698  15.336  0.1222  0.4855 -0.3308
18773TIP3    H177734   2.551   2.608  15.307 -0.7892 -0.3748  2.3872
18773TIP3    H277735   2.654   2.699  15.371  0.3562  0.8243 -0.9326
18774TIP3   OH277736   2.482   1.004   6.151 -0.0730 -0.6875 -0.3461
18774TIP3    H177737   2.495   1.057   6.072  1.1225  0.9660  0.8745
18774TIP3    H277738   2.562   0.952   6.158  0.1141 -0.3523  0.0864
18775TIP3   OH277739   1.798   2.693  11.093  0.2943 -0.3030 -0.1147
18775TIP3    H177740   1.835   2.612  11.057 -3.4985 -1.2011 -2.6433
18775TIP3    H277741   1.798   2.754  11.019  0.3731  1.0141  0.9391
18776TIP3   OH277742   6.654   2.793  11.630  0.4662  0.4111  0.1774
18776TIP3    H177743   6.594   2.719  11.619  0.7067  0.1012  0.8820
18776TIP3    H277744   6.605   2.855  11.684  0.6052  0.3648  0.3555
18777TIP3   OH277745   3.785   1.289  14.748  0.5846  0.6098 -0.1437
18777TIP3    H177746   3.742   1.247  14.822  0.6491  0.1493 -0.3577
18777TIP3    H277747   3.722   1.283  14.676  1.5123 -1.4004 -0.8710
18778TIP3   OH277748   3.505   2.403  14.173  0.4386  0.4801 -0.3911
18778TIP3    H177749   3.480   2.495  14.162 -1.0714  0.2754  1.0036
18778TIP3    H277750   3.573   2.405  14.241  0.0758  0.5227 -0.0287
18779TIP3   OH277751   0.799   0.409  16.040 -0.6489  0.3654  0.8328
18779TIP3    H177752   0.771   0.489  16.085  1.4955  1.5228  0.2853
18779TIP3    H277753   0.857   0.440  15.971 -2.9558 -1.4170 -2.1581
18780TIP3   OH277754   5.698   2.819   5.336  0.0979  0.2980 -0.6291
18780TIP3    H177755   5.728   2.907   5.360  0.7474 -0.0414 -0.1447
18780TIP3    H277756   5.626   2.801   5.396 -0.7239  0.8920 -1.4117
18781TIP3   OH277757   1.233   1.844  10.772 -0.1128 -0.2256 -0.2004
18781TIP3    H177758   1.217   1.851  10.678 -1.2045 -3.9303 -0.4351
18781TIP3    H277759   1.315   1.795  10.779 -1.1636 -1.9593  0.6507
18782TIP3   OH277760   6.226   1.188  16.359 -0.0114 -0.3411  0.6453
18782TIP3    H177761   6.144   1.140  16.373 -0.1966 -0.8834 -1.8968
18782TIP3    H277762   6.284   1.126  16.316  1.0381  0.6389  0.5793
18783TIP3   OH277763   2.851   6.582   3.405 -0.4847 -0.4278 -0.3293
18783TIP3    H177764   2.855   6.527   3.327  0.6750 -0.0021 -0.5957
18783TIP3    H277765   2.757   6.597   3.420 -0.9454 -3.5365  0.5459
18784TIP3   OH277766   2.947   2.920  14.421  0.0682  0.0141  0.3629
18784TIP3    H177767   2.968   2.859  14.492  0.4354  0.0869  0.3196
18784TIP3    H277768   3.021   2.912  14.360 -0.2088  0.0051  0.0246
18785TIP3   OH277769   1.077   2.564   2.362 -0.5240  0.0277 -0.4055
18785TIP3    H177770   1.097   2.626   2.292  0.4859  1.5039  1.1014
18785TIP3    H277771   0.982   2.573   2.375 -0.9106 -1.0867 -2.2828
18786TIP3   OH277772   2.412   6.126  17.284  0.1868 -0.3694 -0.3965
18786TIP3    H177773   2.472   6.137  17.211  0.5783  0.2539  0.0122
18786TIP3    H277774   2.431   6.039  17.318  0.5073 -0.3752 -0.5866
18787TIP3   OH277775   3.181   4.580  14.281  0.4907 -0.2237  1.0090
18787TIP3    H177776   3.179   4.538  14.367 -0.6072  0.3836  1.2945
18787TIP3    H277777   3.101   4.633  14.277 -0.2351 -1.3305 -0.9364
18788TIP3   OH277778   4.326   6.707   5.724  0.3729  0.7117 -0.4566
18788TIP3    H177779   4.348   6.751   5.806 -1.1054  0.6539  0.0056
18788TIP3    H277780   4.395   6.642   5.713  0.0445  0.0002  1.3188
18789TIP3   OH277781   5.046   5.094   4.311 -0.3167  0.3143  0.1076
18789TIP3    H177782   5.098   5.124   4.385 -0.4440 -0.2004  0.4176
18789TIP3    H277783   4.968   5.054   4.351  0.1091 -0.9321 -0.2358
18790TIP3   OH277784   5.428   0.728   1.693  0.9607 -0.0448 -0.1494
18790TIP3    H177785   5.366   0.748   1.622  1.9789  2.3078 -0.4807
18790TIP3    H277786   5.426   0.806   1.748  2.4252 -0.6044  0.7460
18791TIP3   OH277787   5.839   1.974   3.000  0.1164  0.2333 -0.1695
18791TIP3    H177788   5.869   1.994   3.088  0.4358 -0.5066 -0.1050
18791TIP3    H277789   5.852   1.880   2.991 -4.1787 -0.6374  0.6533
18792TIP3   OH277790   0.283   6.226  12.113 -0.2511  0.0367 -0.9074
18792TIP3    H177791   0.286   6.304  12.168  1.1369 -0.7164  0.1714
18792TIP3    H277792   0.276   6.153  12.175  1.5604 -0.8501 -1.6740
18793TIP3   OH277793   0.360   2.400   3.168  0.0310 -0.2414 -0.3555
18793TIP3    H177794   0.368   2.495   3.160  0.8072 -0.2720 -0.0680
18793TIP3    H277795   0.439   2.374   3.216  0.0842 -1.0907 -0.8897
18794TIP3   OH277796   4.225   0.968  15.310 -0.2549  0.4378 -0.6600
18794TIP3    H177797   4.185   0.969  15.223  0.1053  2.1018 -0.8413
18794TIP3    H277798   4.316   0.943  15.294 -0.7571 -1.7109 -0.4376
18795TIP3   OH277799   4.457   1.421  16.925  0.0353 -1.0274 -0.6246
18795TIP3    H177800   4.399   1.454  16.857  1.2821 -0.8513 -1.6573
18795TIP3    H277801   4.400   1.402  17.000 -1.4587 -1.7837 -1.9111
18796TIP3   OH277802   2.896   1.270   1.466  0.0578  0.0445  0.1425
18796TIP3    H177803   2.809   1.311   1.467 -0.2382 -0.5370 -0.6265
18796TIP3    H277804   2.954   1.339   1.434 -0.0691  0.5070  0.8705
18797TIP3   OH277805   5.513   5.065   3.218 -0.1171 -0.5353 -0.1079
18797TIP3    H177806   5.578   5.036   3.282  1.1152  1.1528 -0.5289
18797TIP3    H277807   5.429   5.059   3.264  0.5493 -0.9658  1.0843
18798TIP3   OH277808   6.267   0.071   4.598 -0.4598 -0.5286 -0.3112
18798TIP3    H177809   6.320   0.151   4.595  1.1130 -1.4895  0.4344
18798TIP3    H277810   6.249   0.058   4.691  0.6718 -1.8701 -0.2537
18799TIP3   OH277811   6.464   6.294  16.888 -0.4649  0.4105  0.3590
18799TIP3    H177812   6.549   6.337  16.898 -0.5239  0.7689 -0.6004
18799TIP3    H277813   6.484   6.211  16.843 -0.5729  0.3073  0.5008
18800TIP3   OH277814   0.417   4.454  14.253 -0.0206  1.0520  0.2085
18800TIP3    H177815   0.393   4.497  14.170  0.6409 -0.8643 -1.0542
18800TIP3    H277816   0.486   4.393  14.228  0.1956  0.4254  2.2150
18801TIP3   OH277817   6.028   6.439   0.481  0.9926  0.6018  0.2141
18801TIP3    H177818   6.027   6.533   0.462 -1.2980  0.4765 -0.6169
18801TIP3    H277819   5.989   6.432   0.568  0.1657  0.3679 -0.1688
18802TIP3   OH277820   1.424   5.960  14.298  0.3762 -0.1183  0.2624
18802TIP3    H177821   1.492   5.994  14.240  0.2930  0.3972  0.4580
18802TIP3    H277822   1.469   5.943  14.381  0.7450 -1.9701 -0.2799
18803TIP3   OH277823   2.256   3.986   5.569  0.3746 -0.0174 -0.2315
18803TIP3    H177824   2.193   4.025   5.628  0.5086  1.0801 -0.7772
18803TIP3    H277825   2.326   3.954   5.625 -1.1546 -2.3095  0.4849
18804TIP3   OH277826   1.735   4.526  15.971 -0.1113 -0.1578  0.2130
18804TIP3    H177827   1.707   4.456  16.030 -0.0501 -1.3718 -1.1530
18804TIP3    H277828   1.654   4.568  15.943 -0.1150  0.8006  1.5570
18805TIP3   OH277829   3.146   2.040  12.595 -0.2020 -0.2014 -0.6501
18805TIP3    H177830   3.129   1.953  12.633 -0.7133 -0.1506 -0.7574
18805TIP3    H277831   3.077   2.052  12.530  0.4961 -0.1611 -1.4032
18806TIP3   OH277832   5.882   1.554  16.831 -0.2655 -0.3696 -0.7468
18806TIP3    H177833   5.954   1.617  16.835  0.3111 -1.0169 -0.8152
18806TIP3    H277834   5.845   1.566  16.743  0.0554 -0.3577 -0.8825
18807TIP3   OH277835   3.420   4.811  14.871  0.3139 -0.1145  0.5030
18807TIP3    H177836   3.331   4.786  14.844 -0.1864  0.4174  1.6074
18807TIP3    H277837   3.407   4.873  14.942  1.5502  1.7542 -0.8115
18808TIP3   OH277838   6.038   1.595  16.523 -0.2670  0.5118 -0.3359
18808TIP3    H177839   5.945   1.618  16.513 -0.5605 -0.0342  0.9798
18808TIP3    H277840   6.037   1.502  16.545  0.7861 -0.3852 -3.5421
18809TIP3   OH277841   4.533   6.730  13.232 -0.0278  0.2714 -0.0175
18809TIP3    H177842   4.623   6.714  13.203 -0.2940  0.6470 -1.0794
18809TIP3    H277843   4.542   6.783  13.311  0.7017 -0.3213  0.3018
18810TIP3   OH277844   5.414   4.922   5.646  0.3282  0.1170 -0.3927
18810TIP3    H177845   5.351   4.861   5.682 -1.6378  1.2750 -1.6781
18810TIP3    H277846   5.403   4.916   5.551  1.8066  0.7356 -0.6458
18811TIP3   OH277847   3.324   1.693   2.516 -0.2695  0.4203  0.0597
18811TIP3    H177848   3.333   1.750   2.440  0.7549  1.1438  0.7008
18811TIP3    H277849   3.339   1.605   2.482  0.8450  0.7946 -0.4716
18812TIP3   OH277850   4.569   3.553  14.406 -0.8645 -0.2436 -0.4242
18812TIP3    H177851   4.595   3.487  14.341  0.3387  1.1925 -1.4826
18812TIP3    H277852   4.503   3.606  14.361  0.3495  1.0817 -0.7262
18813TIP3   OH277853   1.859   1.829  13.835  0.6259 -0.5526 -0.2834
18813TIP3    H177854   1.928   1.857  13.775  1.3157 -0.1815  0.6499
18813TIP3    H277855   1.849   1.735  13.820  0.3726 -0.3648 -1.3719
18814TIP3   OH277856   3.138   3.721   5.677  0.4193  0.3357 -0.1048
18814TIP3    H177857   3.179   3.643   5.713  1.5530  0.7343 -0.4851
18814TIP3    H277858   3.196   3.748   5.605 -2.5722 -1.4366 -3.5554
18815TIP3   OH277859   5.380   2.917  15.172  0.2033  0.3246 -0.1673
18815TIP3    H177860   5.316   2.869  15.121  1.3727 -0.1187 -1.2655
18815TIP3    H277861   5.464   2.879  15.147  1.2951  3.4300 -1.7479
18816TIP3   OH277862   1.062   4.073  17.360 -0.1389 -0.0249 -0.1596
18816TIP3    H177863   1.033   3.989  17.326 -0.6244  0.0496  0.0599
18816TIP3    H277864   1.090   4.055  17.450 -1.8362  0.3278  0.4839
18817TIP3   OH277865   0.574   6.569   1.315  0.4489 -0.1031  0.1616
18817TIP3    H177866   0.525   6.539   1.239  0.0414  2.4701 -0.6979
18817TIP3    H277867   0.665   6.543   1.297  0.1417 -0.7401 -0.5140
18818TIP3   OH277868   5.771   3.810  13.131 -0.4868  0.3431 -0.0064
18818TIP3    H177869   5.814   3.781  13.212 -0.3101  0.5697 -0.0170
18818TIP3    H277870   5.843   3.822  13.069 -0.7474 -1.6049 -0.7813
18819TIP3   OH277871   2.383   0.828  13.525  0.3718  0.2359  0.3246
18819TIP3    H177872   2.382   0.878  13.443 -2.4379  2.1866  1.3977
18819TIP3    H277873   2.456   0.767  13.515 -0.3849 -0.2960 -4.0151
18820TIP3   OH277874   6.081   4.633   3.898 -0.3625  0.3220 -0.3087
18820TIP3    H177875   6.123   4.702   3.950  0.3137 -1.1938  1.2913
18820TIP3    H277876   6.128   4.553   3.923 -2.2037 -0.9802 -0.7933
18821TIP3   OH277877   2.632   4.672   5.968 -0.2415  0.0422  0.7531
18821TIP3    H177878   2.727   4.683   5.965 -0.1956 -0.4640 -0.8863
18821TIP3    H277879   2.616   4.620   6.046  1.0097 -1.2416  0.1928
18822TIP3   OH277880   1.803   3.169  14.546  0.4156  0.2332 -0.0080
18822TIP3    H177881   1.728   3.127  14.504  0.9889  0.5368 -1.3727
18822TIP3    H277882   1.772   3.189  14.634 -0.9537 -0.0604 -0.3937
18823TIP3   OH277883   4.809   1.719  16.037 -0.5977 -0.2119 -0.2672
18823TIP3    H177884   4.821   1.813  16.045 -1.8269  0.0197 -0.8665
18823TIP3    H277885   4.875   1.681  16.094  0.6118  0.9840 -0.8220
18824TIP3   OH277886   5.522   1.345  13.868 -0.2326 -0.2385  0.3911
18824TIP3    H177887   5.532   1.439  13.854 -1.9970  0.0883  0.9834
18824TIP3    H277888   5.555   1.330  13.957  1.4817 -0.4780 -0.2647
18825TIP3   OH277889   2.072   4.893  17.025 -0.4218  0.2292 -0.2997
18825TIP3    H177890   2.026   4.851  17.098  1.1829  2.0480  1.8979
18825TIP3    H277891   2.154   4.844  17.017 -0.7049 -0.1285 -1.1054
18826TIP3   OH277892   0.972   1.045   0.797 -0.2133  0.4635  0.2276
18826TIP3    H177893   1.036   1.029   0.866 -0.5004  0.9410  0.6087
18826TIP3    H277894   0.981   0.969   0.739  0.1183  0.1168  0.7174
18827TIP3   OH277895   0.694   1.765  15.746  0.3325  0.7836  0.4603
18827TIP3    H177896   0.639   1.748  15.822 -3.9951 -0.2623 -2.5592
18827TIP3    H277897   0.733   1.681  15.724 -0.0508  0.6279  0.3754
18828TIP3   OH277898   6.067   4.956  11.388 -0.5058 -0.3100 -0.6410
18828TIP3    H177899   6.109   5.020  11.330 -0.1078  1.0557  1.0468
18828TIP3    H277900   5.977   4.952  11.358 -0.3081  0.3671 -1.3653
18829TIP3   OH277901   1.979   1.724   0.685 -0.3685  0.3316 -0.6820
18829TIP3    H177902   2.030   1.643   0.681 -0.1066  0.4427  0.0962
18829TIP3    H277903   2.020   1.774   0.756  0.0387  1.5453 -1.7334
18830TIP3   OH277904   0.783   6.202  12.236  0.2356 -0.1541  0.1831
18830TIP3    H177905   0.796   6.296  12.242  0.9534 -0.2472  0.1523
18830TIP3    H277906   0.783   6.172  12.327  0.9218 -0.2387  0.1602
18831TIP3   OH277907   6.427   4.134  14.378 -0.6816 -0.0669 -0.3796
18831TIP3    H177908   6.406   4.224  14.404  0.0555  0.0643 -0.2082
18831TIP3    H277909   6.518   4.139  14.346 -0.6651 -0.7332 -0.4473
18832TIP3   OH277910   6.019   3.097   1.259 -0.4548  0.1957  0.1789
18832TIP3    H177911   5.945   3.095   1.319 -0.0103  0.7662  0.7573
18832TIP3    H277912   6.083   3.037   1.297 -0.7399 -0.5437 -0.4899
18833TIP3   OH277913   3.750   1.242  10.889  0.2659  0.1796  0.7346
18833TIP3    H177914   3.769   1.300  10.963 -0.7955  2.3241 -0.5804
18833TIP3    H277915   3.663   1.269  10.859  1.0931  0.1667 -1.9478
18834TIP3   OH277916   4.993   0.623   4.184 -0.1640  0.3013  0.0716
18834TIP3    H177917   4.963   0.606   4.094  1.7601  0.8297 -0.7130
18834TIP3    H277918   5.010   0.717   4.187  1.2238  0.0609  0.5084
18835TIP3   OH277919   1.965   5.810  15.189 -0.5383  0.3633  0.1633
18835TIP3    H177920   1.994   5.872  15.122 -0.7218  0.4570  0.1721
18835TIP3    H277921   1.932   5.735  15.139  2.7628 -1.2268  0.0865
18836TIP3   OH277922   2.362   0.267   6.346  0.2829 -0.0341 -0.3441
18836TIP3    H177923   2.307   0.222   6.410 -0.0502  0.6291 -0.1566
18836TIP3    H277924   2.384   0.350   6.388 -0.6004  0.7576 -1.4201
18837TIP3   OH277925   3.479   3.146  15.230  0.4235  0.5266 -0.3735
18837TIP3    H177926   3.531   3.225  15.218 -1.5487  1.9584  0.0458
18837TIP3    H277927   3.524   3.098  15.299  0.5792  2.2811  0.8015
18838TIP3   OH277928   2.495   0.118   3.085  0.3077 -0.7277 -0.0216
18838TIP3    H177929   2.481   0.088   2.995 -1.2014 -0.6404  0.1637
18838TIP3    H277930   2.410   0.153   3.113  1.3380  1.4647  0.6196
18839TIP3   OH277931   5.400   5.715  13.522 -0.0206  0.5607  0.0802
18839TIP3    H177932   5.453   5.677  13.592  1.0618 -2.9967 -2.3464
18839TIP3    H277933   5.454   5.785  13.486  1.2478 -0.2530  0.3077
18840TIP3   OH277934   0.275   2.490  15.601 -0.7485 -0.7850 -0.1141
18840TIP3    H177935   0.291   2.413  15.657  2.8135  0.5611  0.9773
18840TIP3    H277936   0.239   2.555  15.661  0.2272 -0.3086 -0.0253
18841TIP3   OH277937   2.228   3.551   1.016  0.0216  0.2042 -0.2725
18841TIP3    H177938   2.242   3.550   0.922  0.9748  2.8770 -0.2418
18841TIP3    H277939   2.174   3.628   1.032 -1.3337 -0.9839  1.2778
18842TIP3   OH277940   6.243   6.656  11.631  0.0135  0.2935 -0.6403
18842TIP3    H177941   6.185   6.617  11.697  0.7726  1.2362  0.6312
18842TIP3    H277942   6.330   6.656  11.672  0.9129 -0.8609 -2.4072
18843TIP3   OH277943   2.410   4.512   2.875  0.7722 -0.2083  0.0145
18843TIP3    H177944   2.492   4.506   2.825 -0.8281 -1.6308 -2.6447
18843TIP3    H277945   2.423   4.452   2.948  3.2344  1.9985  1.5798
18844TIP3   OH277946   1.611   3.750   5.765  0.0238  0.0044  0.0673
18844TIP3    H177947   1.643   3.808   5.696 -0.1976  0.7191  0.5489
18844TIP3    H277948   1.532   3.794   5.798  1.3794  0.8859  2.3415
18845TIP3   OH277949   0.019   4.870   3.786 -0.5127 -0.2023  0.3228
18845TIP3    H177950  -0.048   4.808   3.817  0.1274 -0.7881  0.5498
18845TIP3    H277951  -0.008   4.954   3.824 -0.8300 -0.5353  0.8575
18846TIP3   OH277952   3.391   6.152   4.668  0.3827  0.3951  0.2589
18846TIP3    H177953   3.330   6.079   4.659 -0.0481  0.7539  0.2391
18846TIP3    H277954   3.450   6.143   4.593 -0.0426  0.4207 -0.0805
18847TIP3   OH277955   3.043   5.612   2.159 -0.3087 -0.1054  0.4003
18847TIP3    H177956   3.011   5.652   2.239 -0.8085 -0.3762  0.3391
18847TIP3    H277957   2.977   5.546   2.137  0.6383 -1.1878  0.6805
18848TIP3   OH277958   4.503   0.638  12.442 -0.0390 -0.1507  0.4013
18848TIP3    H177959   4.433   0.687  12.484  0.1306 -1.6716  2.5881
18848TIP3    H277960   4.507   0.555  12.489  1.0315 -1.4727 -1.8419
18849TIP3   OH277961   4.778   4.779  16.719 -0.6867 -0.4279  0.1031
18849TIP3    H177962   4.757   4.701  16.667  0.4496 -1.4135  1.0709
18849TIP3    H277963   4.829   4.834  16.660  0.8646 -1.6762  0.2056
18850TIP3   OH277964   2.064   3.108  12.902 -0.1085  0.6121  0.1461
18850TIP3    H177965   2.106   3.189  12.931  1.4876  0.0857 -0.5535
18850TIP3    H277966   2.111   3.085  12.821  0.6291 -1.8794  1.2082
18851TIP3   OH277967   3.729   1.855   0.325 -0.1906  0.2181 -0.3157
18851TIP3    H177968   3.738   1.784   0.389  1.1945  2.6812  2.4770
18851TIP3    H277969   3.818   1.884   0.309 -0.7184  1.3010 -1.4136
18852TIP3   OH277970   4.361   4.759  15.671  0.1855 -0.1728  0.3625
18852TIP3    H177971   4.425   4.692  15.695  2.1959  1.6529  0.4785
18852TIP3    H277972   4.280   4.733  15.715  0.4489 -3.2227 -0.7698
18853TIP3   OH277973   2.771   2.390   3.872 -0.0951 -0.4479 -0.8374
18853TIP3    H177974   2.866   2.391   3.866  0.0581  2.1724  0.2559
18853TIP3    H277975   2.742   2.441   3.796 -0.7437 -2.1877 -1.8012
18854TIP3   OH277976   5.682   1.680  15.394 -0.1372 -0.2050 -0.5866
18854TIP3    H177977   5.686   1.711  15.303  0.6590 -2.9133 -1.5580
18854TIP3    H277978   5.594   1.704  15.423 -0.3631  0.8535 -1.9990
18855TIP3   OH277979   2.936   0.906   5.397  0.5388 -0.3626  0.0703
18855TIP3    H177980   2.932   0.818   5.434 -2.1846  0.7235  2.7750
18855TIP3    H277981   2.961   0.962   5.472  0.7044  1.3524 -1.2052
18856TIP3   OH277982   5.464   6.461   5.579 -0.3668  0.2184 -0.1301
18856TIP3    H177983   5.473   6.396   5.509 -0.1056 -0.7421  0.7723
18856TIP3    H277984   5.412   6.417   5.646  1.2039  0.3168  1.2148
18857TIP3   OH277985   5.250   3.569   3.381 -0.5813  0.1054 -0.3928
18857TIP3    H177986   5.162   3.543   3.354  0.3945 -1.4943 -2.2680
18857TIP3    H277987   5.285   3.493   3.427  0.7510 -0.3644 -2.0748
18858TIP3   OH277988   5.913   6.230  17.350 -0.3896  0.1521 -0.7528
18858TIP3    H177989   5.842   6.206  17.409 -0.5545 -1.1759 -1.4567
18858TIP3    H277990   5.978   6.272  17.406  0.8597 -3.7083  1.0758
18859TIP3   OH277991   6.367   4.799   0.800  0.3063  0.7794  0.2356
18859TIP3    H177992   6.328   4.712   0.787  1.3360  0.0372  1.7403
18859TIP3    H277993   6.299   4.849   0.844 -0.1871  0.6519 -0.3641
18860TIP3   OH277994   0.858   1.191   4.715  0.2195 -0.2279 -0.3110
18860TIP3    H177995   0.923   1.129   4.682  1.1322  0.5714 -0.0462
18860TIP3    H277996   0.889   1.277   4.685 -1.0327  0.1140 -0.6940
18861TIP3   OH277997   5.678   4.160   4.435 -0.0042 -0.1833 -0.7402
18861TIP3    H177998   5.714   4.188   4.519 -0.9366 -3.6984  1.0517
18861TIP3    H277999   5.624   4.233   4.405  0.1236  1.0896  1.8650
18862TIP3   OH278000   4.878   6.681   0.652 -0.1704  0.4539  0.2450
18862TIP3    H178001   4.884   6.715   0.741  0.7802 -0.0979  0.4013
18862TIP3    H278002   4.968   6.681   0.620 -0.6313  1.7643 -1.1506
18863TIP3   OH278003   4.149   2.048   2.039 -0.2182 -0.3421 -0.0312
18863TIP3    H178004   4.128   2.074   1.949  0.6311 -0.7698 -0.3532
18863TIP3    H278005   4.169   1.955   2.034  1.5774 -0.0131  0.2754
18864TIP3   OH278006   2.030   5.444   0.748 -0.4308  0.1627  0.5196
18864TIP3    H178007   1.995   5.403   0.827 -0.4912  0.8617  0.8585
18864TIP3    H278008   2.043   5.535   0.772  3.4736 -0.3435  1.0569
18865TIP3   OH278009   1.151   2.202  15.240 -0.2023 -0.5810 -0.6379
18865TIP3    H178010   1.235   2.165  15.211 -0.9248 -2.6347 -0.2528
18865TIP3    H278011   1.091   2.184  15.169 -0.0012  2.6044 -1.7834
18866TIP3   OH278012   0.141   2.442  17.075  0.3013 -0.0502 -0.5581
18866TIP3    H178013   0.187   2.490  17.144 -2.5494 -0.6213  1.9676
18866TIP3    H278014   0.197   2.367  17.056  1.0540 -0.0611  1.4413
18867TIP3   OH278015   0.168   3.966  16.077  0.3303  0.1998 -0.0326
18867TIP3    H178016   0.175   3.906  16.002  0.5025 -0.4036  0.4584
18867TIP3    H278017   0.258   3.987  16.099  0.2787  0.3673  0.0164
18868TIP3   OH278018   3.722   1.860  14.163 -0.6941  0.1717 -0.5443
18868TIP3    H178019   3.758   1.787  14.213 -0.4564  1.1098  0.7255
18868TIP3    H278020   3.681   1.820  14.087 -0.8818 -1.3083  0.3007
18869TIP3   OH278021   6.604   2.850  12.708  0.0935  0.2261 -0.1806
18869TIP3    H178022   6.592   2.781  12.643  1.8918 -0.2543 -0.0586
18869TIP3    H278023   6.537   2.915  12.687 -1.5686 -1.4756 -0.3730
18870TIP3   OH278024   2.893   4.354  12.776  0.1090  0.3324 -0.2269
18870TIP3    H178025   2.798   4.346  12.767  0.2100 -0.8271 -0.4339
18870TIP3    H278026   2.914   4.433  12.727 -0.5234 -0.5672 -2.0730
18871TIP3   OH278027   1.802   3.314  11.703  0.2554  0.6246  0.4584
18871TIP3    H178028   1.806   3.303  11.608  2.5907 -1.9938  0.7441
18871TIP3    H278029   1.711   3.336  11.721 -0.3993  0.4676 -2.3280
18872TIP3   OH278030   2.230   4.253  14.469 -0.5583 -0.0656  0.3616
18872TIP3    H178031   2.313   4.207  14.453  0.6978  1.7264  1.2577
18872TIP3    H278032   2.188   4.257  14.384 -0.1610 -1.7694  0.0404
18873TIP3   OH278033   0.439   1.261   6.508  0.5233 -0.2006 -0.0999
18873TIP3    H178034   0.394   1.329   6.559  0.5395  0.0730 -0.4475
18873TIP3    H278035   0.369   1.204   6.477  0.3498  0.5340 -1.0982
18874TIP3   OH278036   4.205   5.004  13.873  0.2886 -0.4675 -0.4971
18874TIP3    H178037   4.196   4.950  13.795  1.3639 -0.9482 -0.3055
18874TIP3    H278038   4.289   5.048  13.863 -0.5919  1.2466 -0.6754
18875TIP3   OH278039   0.007   0.179  11.222 -0.7612  0.1661  0.1322
18875TIP3    H178040  -0.019   0.262  11.262  1.4574 -0.1543  2.5346
18875TIP3    H278041   0.090   0.199  11.179  1.3698 -1.2477  3.2263
18876TIP3   OH278042   3.696   1.643   1.220 -0.0399 -0.4886 -0.4706
18876TIP3    H178043   3.655   1.666   1.137  0.2882 -0.5480 -0.6493
18876TIP3    H278044   3.682   1.549   1.228  1.0301 -0.7144 -1.0729
18877TIP3   OH278045   1.789   4.858   3.396  0.0535 -0.4896  0.1568
18877TIP3    H178046   1.732   4.930   3.425  0.9337  1.2127 -2.0637
18877TIP3    H278047   1.875   4.880   3.433  0.4127 -0.1421 -0.8489
18878TIP3   OH278048   1.160   2.515   3.576  0.2820  0.0216  0.1141
18878TIP3    H178049   1.130   2.477   3.493  0.9118 -1.6398  0.5921
18878TIP3    H278050   1.101   2.478   3.642  0.4111  0.5271  0.5173
18879TIP3   OH278051   6.401   6.743   1.419  0.1896 -0.1965 -0.5255
18879TIP3    H178052   6.434   6.662   1.380  1.6313  0.4034 -0.6102
18879TIP3    H278053   6.347   6.782   1.350  0.9024 -0.2412 -1.1242
18880TIP3   OH278054   5.766   1.177   0.154  0.1389 -0.4976  0.2211
18880TIP3    H178055   5.759   1.118   0.228  3.6962 -1.8063 -0.3016
18880TIP3    H278056   5.831   1.243   0.181 -1.1732  1.1725 -0.4801
18881TIP3   OH278057   5.900   5.035  13.002  0.4750 -0.1655 -0.1193
18881TIP3    H178058   5.919   5.031  12.909  0.8856 -0.8069 -0.0147
18881TIP3    H278059   5.983   5.059  13.043  0.4075 -0.3354  0.1182
18882TIP3   OH278060   5.637   3.369  13.495  0.0912  0.6693  0.7756
18882TIP3    H178061   5.626   3.389  13.588  0.4781 -1.4247  1.3356
18882TIP3    H278062   5.594   3.285  13.483  2.1816 -0.3398 -0.3471
18883TIP3   OH278063   1.330   5.773   1.415 -0.1602  0.3471 -0.0500
18883TIP3    H178064   1.395   5.706   1.393 -1.7578 -1.1467 -0.5325
18883TIP3    H278065   1.333   5.779   1.510  1.2697  0.9572 -0.1140
18884TIP3   OH278066   3.780   0.856   0.363 -0.4421 -0.1711 -0.0591
18884TIP3    H178067   3.868   0.893   0.355 -0.3401 -0.1380  1.0437
18884TIP3    H278068   3.723   0.919   0.319 -0.0889  0.5766  0.5352
18885TIP3   OH278069   5.486   5.923   0.969 -0.1229  0.4963  0.2332
18885TIP3    H178070   5.419   5.935   0.901 -0.6741  0.5603  0.7825
18885TIP3    H278071   5.527   5.839   0.948 -0.3869  0.4487 -0.0933
18886TIP3   OH278072   4.906   4.860   0.373 -0.0341 -0.2354 -0.3077
18886TIP3    H178073   4.818   4.823   0.369 -0.8800  1.6453 -0.1336
18886TIP3    H278074   4.893   4.954   0.363  1.8884  0.1736  0.5715
18887TIP3   OH278075   3.425   5.436  14.822 -0.7161  0.4109  0.1941
18887TIP3    H178076   3.494   5.440  14.756  0.5156  0.3517  1.4329
18887TIP3    H278077   3.448   5.503  14.886 -1.8729  0.4630  0.5817
18888TIP3   OH278078   2.161   3.620   3.571 -0.2585  0.6700  0.4032
18888TIP3    H178079   2.189   3.643   3.659 -1.8560  0.4965  0.9940
18888TIP3    H278080   2.107   3.695   3.542  1.3737  1.3680 -1.0088
18889TIP3   OH278081   1.744   0.008   4.351  0.1296  0.7214  0.6038
18889TIP3    H178082   1.775   0.017   4.261 -1.1404 -0.7711 -0.0358
18889TIP3    H278083   1.753  -0.085   4.370 -2.6191  0.4095  0.7992
18890TIP3   OH278084   6.693   1.846   2.545 -0.5452  0.4514 -0.1699
18890TIP3    H178085   6.731   1.914   2.488 -0.4099  1.3740  0.9744
18890TIP3    H278086   6.767   1.815   2.598 -1.1971  1.8672  1.6886
18891TIP3   OH278087   5.665   5.463   0.230 -0.9411  0.2851  0.0945
18891TIP3    H178088   5.698   5.410   0.304 -0.5684 -0.8540 -0.8547
18891TIP3    H278089   5.699   5.419   0.152 -4.1823 -0.6522 -0.9631
18892TIP3   OH278090   0.468   2.872   3.901  0.1804 -0.1580  0.0586
18892TIP3    H178091   0.447   2.812   3.973  2.0896  1.1276  1.8010
18892TIP3    H278092   0.407   2.847   3.831 -2.6918 -0.6782  2.5005
18893TIP3   OH278093   3.062   1.845  16.697  0.3475 -0.0643 -0.1244
18893TIP3    H178094   3.026   1.927  16.665 -0.2439 -0.3048 -0.0863
18893TIP3    H278095   3.046   1.847  16.791  1.5770  0.3896  0.0936
18894TIP3   OH278096   0.180   6.383   1.128 -0.0655  0.3136  0.3778
18894TIP3    H178097   0.251   6.447   1.139  0.5435 -0.6219  2.3092
18894TIP3    H278098   0.220   6.311   1.078 -0.9334  1.6042 -2.3988
18895TIP3   OH278099   4.727   4.176  11.465  0.8531 -0.4749  0.7975
18895TIP3    H178100   4.698   4.246  11.405  1.3786 -1.9701 -1.3092
18895TIP3    H278101   4.718   4.215  11.552 -0.2533  1.7131 -0.1926
18896TIP3   OH278102   1.635   0.488   5.156  0.2248 -0.0904 -1.0748
18896TIP3    H178103   1.721   0.480   5.197  0.2194  0.5181 -0.9237
18896TIP3    H278104   1.654   0.499   5.062  0.3207  0.0982 -1.0350
18897TIP3   OH278105   3.612   3.368  15.202  0.2876 -0.6460  0.1831
18897TIP3    H178106   3.540   3.422  15.170  0.5461  0.0510  0.7430
18897TIP3    H278107   3.672   3.431  15.244  1.7711 -1.0539 -1.2190
18898TIP3   OH278108   2.817   2.795  12.200  0.0769  0.3576 -0.3355
18898TIP3    H178109   2.882   2.739  12.159  0.9477  0.8834  0.2909
18898TIP3    H278110   2.784   2.850  12.128 -0.6856 -0.8185 -0.9236
18899TIP3   OH278111   6.502   5.269  15.603 -0.1126  0.5603 -0.2767
18899TIP3    H178112   6.487   5.232  15.690  0.2161 -0.8420 -0.7746
18899TIP3    H278113   6.538   5.196  15.552  2.5994  2.1148 -0.7985
18900TIP3   OH278114   1.883   5.500   4.419 -0.2581  0.2433 -0.0185
18900TIP3    H178115   1.881   5.441   4.494  0.7112 -0.0672 -0.2221
18900TIP3    H278116   1.966   5.546   4.426  0.8336 -1.2400 -1.9618
18901TIP3   OH278117   6.606   5.134   5.673  0.1334 -0.3094  0.0338
18901TIP3    H178118   6.662   5.087   5.735  0.6463  0.4215  0.1416
18901TIP3    H278119   6.610   5.225   5.702  2.9996  0.6909 -2.9223
18902TIP3   OH278120   3.465   0.886   2.924 -0.1753 -0.1156 -0.0239
18902TIP3    H178121   3.538   0.827   2.905 -0.3796 -1.0551  1.8358
18902TIP3    H278122   3.502   0.974   2.914  1.2543 -0.5674  0.8652
18903TIP3   OH278123   4.502   5.047   0.518  0.1512 -0.3340  0.0964
18903TIP3    H178124   4.524   5.031   0.426 -1.2476 -0.1396 -0.2931
18903TIP3    H278125   4.471   5.138   0.519  0.0458 -0.3773  0.7442
18904TIP3   OH278126   3.909   3.805  17.069 -0.2323 -0.2339 -0.2725
18904TIP3    H178127   3.863   3.888  17.078  1.1365  0.4505  0.7313
18904TIP3    H278128   3.909   3.788  16.975 -0.5676  0.8898 -0.4952
18905TIP3   OH278129   1.614   5.061   0.707 -0.3086 -0.3515 -0.0928
18905TIP3    H178130   1.547   4.999   0.679 -0.1468 -1.2247  1.3410
18905TIP3    H278131   1.577   5.147   0.685 -1.6002 -0.8471  0.0462
18906TIP3   OH278132   1.271   2.964  13.339  0.1858 -0.3448  0.2026
18906TIP3    H178133   1.329   3.039  13.353  0.1201 -0.5065  1.4594
18906TIP3    H278134   1.229   2.981  13.255 -2.1002  2.5856  1.7696
18907TIP3   OH278135   0.913   0.519  15.800 -0.6581  0.0814  0.1111
18907TIP3    H178136   0.961   0.504  15.719 -1.1820 -1.4501  0.0607
18907TIP3    H278137   0.936   0.609  15.825  0.1127  0.3075 -1.3108
18908TIP3   OH278138   0.539   1.083  14.532  0.0463  0.2959  0.4447
18908TIP3    H178139   0.600   1.156  14.521  0.2621 -0.0049 -0.4395
18908TIP3    H278140   0.459   1.111  14.488  0.0786  0.0606  0.2325
18909TIP3   OH278141   1.903   6.722  15.814 -0.0469 -0.2983  0.0264
18909TIP3    H178142   1.838   6.654  15.831 -2.1873  1.7500  0.6826
18909TIP3    H278143   1.864   6.774  15.744  0.5958  1.3027  0.8111
18910TIP3   OH278144   0.416   5.797   5.937  0.5667 -0.1401 -0.1233
18910TIP3    H178145   0.469   5.836   6.007  2.3171  1.5900 -2.2189
18910TIP3    H278146   0.326   5.803   5.968  1.0928  2.3780  1.2286
18911TIP3   OH278147   0.130   5.031  14.672 -0.4922  0.5050  0.4463
18911TIP3    H178148   0.183   5.091  14.619  1.8318 -0.4327  1.5671
18911TIP3    H278149   0.099   5.085  14.745 -1.0804  1.0660 -0.2075
18912TIP3   OH278150   5.266   2.225  12.940  0.9061 -0.3649 -0.1392
18912TIP3    H178151   5.198   2.180  12.990  0.0577  1.3385  0.3427
18912TIP3    H278152   5.342   2.225  12.998 -0.0355  1.4869  1.2360
18913TIP3   OH278153   4.855   1.313  12.188  0.5105  0.4928 -0.3255
18913TIP3    H178154   4.868   1.407  12.198  0.8352  0.5494 -1.2489
18913TIP3    H278155   4.901   1.290  12.108 -0.0553 -0.3507 -0.4249
18914TIP3   OH278156   6.349   4.953   4.764 -0.0112  0.2000  0.2953
18914TIP3    H178157   6.300   5.029   4.734  1.4487  1.2885  0.5695
18914TIP3    H278158   6.440   4.975   4.746  0.5427 -0.9277  1.5908
18915TIP3   OH278159   3.350   0.155  14.665 -0.5540 -0.6759  0.3329
18915TIP3    H178160   3.341   0.085  14.729 -0.3836 -0.7342  0.2942
18915TIP3    H278161   3.439   0.188  14.678 -1.3239  0.9894  1.8496
18916TIP3   OH278162   0.592   2.149  15.237 -0.0072  0.5114 -0.4336
18916TIP3    H178163   0.662   2.093  15.269 -0.7673  0.4495  1.2052
18916TIP3    H278164   0.637   2.217  15.187  1.0814 -0.3727 -0.6866
18917TIP3   OH278165   6.143   2.888   2.489 -0.1114 -0.2506  0.3003
18917TIP3    H178166   6.052   2.912   2.506 -0.1687 -0.5357  0.3999
18917TIP3    H278167   6.138   2.808   2.436  0.0718  0.1763 -0.3788
18918TIP3   OH278168   3.750   3.995  15.844 -0.1804 -0.3261 -0.5706
18918TIP3    H178169   3.841   4.008  15.817  1.0983 -1.2416  2.7438
18918TIP3    H278170   3.750   3.909  15.886 -1.8327  0.7891  2.0056
18919TIP3   OH278171   4.239   0.594  11.271 -0.1724  0.2990  0.0156
18919TIP3    H178172   4.318   0.547  11.296  0.4952  0.9252 -0.8617
18919TIP3    H278173   4.183   0.527  11.231  0.3020  0.0440 -0.2221
18920TIP3   OH278174   5.265   1.687  17.066 -0.1191  0.1393 -0.0218
18920TIP3    H178175   5.353   1.720  17.086 -0.0102 -0.2527  0.1416
18920TIP3    H278176   5.244   1.628  17.138 -1.1670  1.4355  0.7932
18921TIP3   OH278177   4.949   0.641   0.414  0.0466  0.0283 -0.4180
18921TIP3    H178178   4.945   0.718   0.357 -0.1339  1.1561  1.0434
18921TIP3    H278179   4.865   0.640   0.459  1.2522  1.1010  2.1357
18922TIP3   OH278180   0.735   2.987  12.983  0.2334 -0.0672 -0.0090
18922TIP3    H178181   0.714   3.073  12.948  1.9151  0.8946  1.2349
18922TIP3    H278182   0.687   2.983  13.066 -0.6005 -0.7475 -0.5035
18923TIP3   OH278183   3.275   4.313   2.104  0.3130  0.4652 -0.0393
18923TIP3    H178184   3.206   4.369   2.140  1.2931  1.3431  0.5137
18923TIP3    H278185   3.279   4.335   2.011 -0.7025 -0.1942 -0.2561
18924TIP3   OH278186   5.452   6.296  10.646 -0.1025  0.0421 -0.1284
18924TIP3    H178187   5.454   6.272  10.553 -3.2104 -1.9673  0.1541
18924TIP3    H278188   5.404   6.379  10.649  1.3986  0.9411 -0.3873
18925TIP3   OH278189   3.461   3.045  12.387 -0.3101 -0.2293  0.8110
18925TIP3    H178190   3.448   2.966  12.335  0.0051  0.5685 -0.5139
18925TIP3    H278191   3.510   3.015  12.464  0.0512 -1.2661  0.1958
18926TIP3   OH278192   3.232   2.585  14.433  0.5543  0.1222  0.3395
18926TIP3    H178193   3.211   2.668  14.390 -1.5576  0.1131  1.2162
18926TIP3    H278194   3.168   2.523  14.398  0.7543 -0.6208  1.2540
18927TIP3   OH278195   1.059   4.730  12.632 -0.6481 -0.3425  0.2312
18927TIP3    H178196   1.106   4.735  12.548 -0.1570  0.7392  0.5511
18927TIP3    H278197   1.109   4.787  12.690 -1.9144  0.1857  0.8208
18928TIP3   OH278198   0.642   2.054   5.544  0.4158  0.8181 -0.1595
18928TIP3    H178199   0.734   2.063   5.568  0.2743 -0.0478  0.7736
18928TIP3    H278200   0.634   1.964   5.512  0.0855  1.1991 -1.2035
18929TIP3   OH278201   5.999   5.344  12.954  0.4593  0.7068  0.0457
18929TIP3    H178202   5.927   5.406  12.939  0.3962  0.7435  0.4911
18929TIP3    H278203   6.051   5.384  13.024  0.5105  0.3354  0.2218
18930TIP3   OH278204   0.002   1.526   5.375  0.3674 -0.1293 -0.1835
18930TIP3    H178205  -0.052   1.519   5.296 -1.4412 -0.8006  1.0503
18930TIP3    H278206  -0.018   1.446   5.424  0.2987  0.9532  1.6417
18931TIP3   OH278207   0.748   4.090   2.107 -0.4806  0.2389  0.8537
18931TIP3    H178208   0.834   4.048   2.103 -0.1360  0.8967  1.1894
18931TIP3    H278209   0.687   4.017   2.120 -0.2894 -0.5476 -1.9814
18932TIP3   OH278210   1.524   0.351   0.042 -0.4889 -0.0585  0.2283
18932TIP3    H178211   1.434   0.381   0.057 -0.6178 -0.4209  0.1751
18932TIP3    H278212   1.578   0.427   0.065 -0.7277 -0.2635  1.5593
18933TIP3   OH278213   6.222   1.683   2.043 -0.5152 -0.8432  0.3384
18933TIP3    H178214   6.252   1.755   1.986 -0.6235 -1.9907 -1.2421
18933TIP3    H278215   6.186   1.618   1.982 -3.2324 -0.9542  1.9245
18934TIP3   OH278216   2.355   3.804   1.573  0.5833  0.2314  0.5503
18934TIP3    H178217   2.272   3.800   1.620 -0.1637 -0.6614 -0.8012
18934TIP3    H278218   2.369   3.715   1.540  1.1027  0.8044 -0.8609
18935TIP3   OH278219   4.190   0.509  14.342  0.4138 -0.1308  0.5696
18935TIP3    H178220   4.249   0.584  14.350  0.5168 -0.3072  1.6569
18935TIP3    H278221   4.141   0.508  14.424 -1.3663  0.2145 -0.4365
18936TIP3   OH278222   1.322   0.797  15.898  0.1874 -0.2107 -0.0019
18936TIP3    H178223   1.379   0.811  15.974 -0.4827  1.8849  0.1843
18936TIP3    H278224   1.265   0.725  15.923  1.2881 -0.8714  0.6812
18937TIP3   OH278225   4.753   3.823   5.536  0.2227 -0.3762  0.5697
18937TIP3    H178226   4.800   3.774   5.468  0.3984  1.1288 -0.4447
18937TIP3    H278227   4.733   3.758   5.603  1.9535 -1.4795  0.0800
18938TIP3   OH278228   3.725   0.149   3.763  0.0782  0.3269 -0.5036
18938TIP3    H178229   3.648   0.206   3.771  0.9277  1.6206 -1.2332
18938TIP3    H278230   3.690   0.064   3.739 -1.2600  0.4252  0.9325
18939TIP3   OH278231   4.639   6.113   2.510 -0.1652 -0.2361 -0.3110
18939TIP3    H178232   4.604   6.160   2.586  1.6673  0.5218  0.1118
18939TIP3    H278233   4.596   6.153   2.435  1.3358  2.2315  0.0303
18940TIP3   OH278234   2.225   4.660  16.298  0.3252  0.3368  0.3994
18940TIP3    H178235   2.150   4.670  16.239  0.9300  0.0374 -0.4403
18940TIP3    H278236   2.301   4.669  16.241  0.9233 -0.3805  1.0627
18941TIP3   OH278237   1.049   3.400   1.121 -0.4477  0.3670  0.7248
18941TIP3    H178238   1.141   3.399   1.149 -0.2309  0.3694  0.0247
18941TIP3    H278239   1.010   3.325   1.166 -0.3905  1.0404  1.9331
18942TIP3   OH278240   0.701   1.159  12.225  0.1258 -0.4727  0.2996
18942TIP3    H178241   0.776   1.133  12.171  2.2466  2.4529  1.5405
18942TIP3    H278242   0.740   1.191  12.306 -2.6800 -0.7378  1.8559
18943TIP3   OH278243   3.356   3.088   2.005 -0.6192  0.1502 -0.2827
18943TIP3    H178244   3.346   3.014   2.065 -1.4263 -0.8255 -1.5715
18943TIP3    H278245   3.451   3.105   2.004 -0.3118 -1.4636 -0.6425
18944TIP3   OH278246   2.662   6.191  12.857 -0.0987 -0.6904 -0.5272
18944TIP3    H178247   2.591   6.137  12.822 -0.4387 -1.8258  1.7359
18944TIP3    H278248   2.617   6.263  12.902  0.1475 -1.2568  0.6682
18945TIP3   OH278249   5.578   1.686   0.761  0.3699 -0.8083  0.6705
18945TIP3    H178250   5.645   1.709   0.696 -0.8116  0.2905 -0.2166
18945TIP3    H278251   5.628   1.669   0.841  1.6640  1.5275  0.4775
18946TIP3   OH278252   1.159   0.938  11.325 -0.0390 -0.2831  0.0141
18946TIP3    H178253   1.130   1.029  11.322 -1.1948 -0.6461 -0.3457
18946TIP3    H278254   1.213   0.927  11.247  0.3254  0.1520  0.1978
18947TIP3   OH278255   5.920   0.635   4.958 -0.4039  0.1627  0.1040
18947TIP3    H178256   5.880   0.655   5.042  1.1510 -2.6814  1.6689
18947TIP3    H278257   5.990   0.700   4.949 -0.0933  0.0356  1.4168
18948TIP3   OH278258   4.049   0.830  15.487 -0.6492 -0.6144  0.5940
18948TIP3    H178259   4.048   0.897  15.419 -1.0456 -0.1805  1.0267
18948TIP3    H278260   4.067   0.877  15.568  0.2714 -1.1865  0.7432
18949TIP3   OH278261   0.933   2.738   3.788  0.2245 -0.4518 -0.2525
18949TIP3    H178262   0.886   2.697   3.860 -0.1465  3.5948  2.1734
18949TIP3    H278263   0.865   2.773   3.731  0.4723 -0.8303 -0.7949
18950TIP3   OH278264   4.378   0.815  16.476 -0.0937 -0.2932 -0.1419
18950TIP3    H178265   4.368   0.806  16.570  0.4198 -1.9897 -0.2123
18950TIP3    H278266   4.387   0.909  16.461  0.7468 -0.0709  1.5965
18951TIP3   OH278267   1.406   6.109   1.149  0.5005 -0.0477 -0.2615
18951TIP3    H178268   1.430   6.060   1.227 -2.0050  0.7369  1.1156
18951TIP3    H278269   1.438   6.198   1.164 -0.4130  0.2272  0.1468
18952TIP3   OH278270   3.197   5.855   5.501  0.1865 -0.3797  0.0938
18952TIP3    H178271   3.242   5.917   5.443 -0.8912 -0.0446 -0.4000
18952TIP3    H278272   3.229   5.877   5.589  0.8892 -0.0706 -0.2313
18953TIP3   OH278273   1.208   3.683  14.389 -0.6036 -0.3835 -1.1300
18953TIP3    H178274   1.228   3.755  14.450  0.6945 -0.2891 -1.6336
18953TIP3    H278275   1.217   3.604  14.442  0.1778 -0.2844 -1.1054
18954TIP3   OH278276   3.706   6.287  14.143  0.8104 -0.4826 -0.7664
18954TIP3    H178277   3.791   6.283  14.099  1.5350  1.0286  0.3783
18954TIP3    H278278   3.677   6.378  14.130 -0.3543 -0.8291 -0.6579
18955TIP3   OH278279   4.728   6.197   1.171 -0.3709  0.0118  0.5017
18955TIP3    H178280   4.677   6.163   1.097 -0.8399  1.7686 -0.0220
18955TIP3    H278281   4.675   6.177   1.248 -1.8721  1.7284 -0.0266
18956TIP3   OH278282   0.022   5.923  11.699 -0.2127 -0.6023 -0.1646
18956TIP3    H178283   0.078   5.985  11.745  1.7660 -3.1304  1.0483
18956TIP3    H278284   0.029   5.948  11.607  3.6731 -1.2005 -0.1960
18957TIP3   OH278285   5.958   1.326  16.549 -0.8556  0.0211  0.0968
18957TIP3    H178286   5.989   1.250  16.500 -1.1033  0.2928 -0.4927
18957TIP3    H278287   5.945   1.293  16.638  1.4132 -0.0328  0.4702
18958TIP3   OH278288   3.257   2.571   3.318  0.3351 -0.4441 -0.2224
18958TIP3    H178289   3.256   2.661   3.350  1.2377 -0.1114 -1.0674
18958TIP3    H278290   3.165   2.546   3.315 -0.0619  1.0071 -1.4242
18959TIP3   OH278291   1.608   2.623   3.240 -0.1759  0.1449 -0.1103
18959TIP3    H178292   1.610   2.571   3.160 -1.2466 -0.7091  0.3802
18959TIP3    H278293   1.661   2.574   3.302 -2.6048 -1.3643  0.8844
18960TIP3   OH278294   5.762   4.629  17.325  0.1168 -0.5252 -0.4192
18960TIP3    H178295   5.836   4.608  17.382  0.8481  0.1007 -1.1117
18960TIP3    H278296   5.729   4.712  17.359  2.7764  1.7999 -2.8902
18961TIP3   OH278297   5.710   2.928   4.902  0.6958 -0.1856 -0.1741
18961TIP3    H178298   5.797   2.891   4.915  1.4393  1.5047 -0.0701
18961TIP3    H278299   5.722   3.023   4.913 -0.7324  0.3162 -2.2512
18962TIP3   OH278300   5.691   4.349  15.613 -0.5010  0.1766  0.6163
18962TIP3    H178301   5.618   4.331  15.672 -0.3132  1.5661  1.3171
18962TIP3    H278302   5.734   4.425  15.651  2.9602 -2.1053  1.7377
18963TIP3   OH278303   3.957   4.606   4.383  0.0517 -0.1746  0.1438
18963TIP3    H178304   4.028   4.633   4.325 -0.6373 -0.5840 -0.9042
18963TIP3    H278305   3.889   4.671   4.371  0.1718  0.1364  1.0445
18964TIP3   OH278306   4.808   1.661   4.742  0.4214 -0.8054 -0.0256
18964TIP3    H178307   4.833   1.725   4.808 -1.9923  0.0522  0.1711
18964TIP3    H278308   4.869   1.676   4.670  3.0220 -1.6636  1.8618
18965TIP3   OH278309   6.513   2.696   6.624  0.3587  0.8094 -0.1831
18965TIP3    H178310   6.607   2.681   6.635  0.5424  2.3772  0.6636
18965TIP3    H278311   6.491   2.760   6.691 -1.5574 -0.3379  0.3559
18966TIP3   OH278312   1.720   5.750  12.524  0.1012  0.4884 -0.2501
18966TIP3    H178313   1.809   5.781  12.510  0.1043  0.4567 -0.3018
18966TIP3    H278314   1.687   5.802  12.597  0.1432  0.5368 -0.2660
18967TIP3   OH278315   5.489   2.323   2.439 -0.1704 -0.4793  0.5881
18967TIP3    H178316   5.531   2.377   2.373 -1.7478 -1.0548 -0.9617
18967TIP3    H278317   5.502   2.370   2.521  0.5626  1.0016 -0.3472
18968TIP3   OH278318   3.937   1.676   6.236 -0.0713  0.1043 -0.1732
18968TIP3    H178319   4.007   1.733   6.203 -0.4909  1.1764  0.7528
18968TIP3    H278320   3.918   1.709   6.323 -0.8628 -0.9863  0.0862
18969TIP3   OH278321   0.295   5.694  17.340  0.3029 -0.3487  0.5855
18969TIP3    H178322   0.369   5.752  17.322  1.5990 -2.3712 -0.9846
18969TIP3    H278323   0.330   5.627  17.399 -0.9226 -0.1258  1.6334
18970TIP3   OH278324   0.230   0.405   3.624  0.8194 -0.6300 -0.3042
18970TIP3    H178325   0.197   0.355   3.550  0.7841 -0.3378 -0.4856
18970TIP3    H278326   0.221   0.345   3.699 -0.3090 -0.4914 -0.3117
18971TIP3   OH278327   1.499   6.003   1.371 -0.4454  0.5482  0.6867
18971TIP3    H178328   1.424   5.949   1.397 -0.3767 -0.6513 -1.3902
18971TIP3    H278329   1.573   5.967   1.420 -0.7518 -0.0677  0.7117
18972TIP3   OH278330   0.012   0.239  15.085 -0.4684  0.3438  0.6049
18972TIP3    H178331  -0.051   0.167  15.083 -1.6198  1.3098 -1.6865
18972TIP3    H278332   0.094   0.198  15.111 -1.0609 -1.8361 -0.7312
18973TIP3   OH278333   1.794   1.269  16.671 -0.2600  0.3474 -1.1795
18973TIP3    H178334   1.861   1.278  16.603  0.2288  1.9065 -0.5258
18973TIP3    H278335   1.716   1.239  16.623  0.2684  0.7346 -2.3196
18974TIP3   OH278336   6.285   1.926   1.923 -0.1298 -0.9467  0.2492
18974TIP3    H178337   6.257   2.012   1.892  1.2168 -0.5573  0.0691
18974TIP3    H278338   6.377   1.938   1.947  0.0343 -2.3063  0.3574
18975TIP3   OH278339   1.726   2.581  15.285 -0.0177 -0.2436  0.2358
18975TIP3    H178340   1.652   2.566  15.345  0.7281 -0.7861  1.0557
18975TIP3    H278341   1.722   2.507  15.224 -0.0526 -0.3718  0.3921
18976TIP3   OH278342   3.058   1.722   5.766  0.1567  0.4772 -0.0076
18976TIP3    H178343   3.115   1.798   5.781 -0.5839  0.6895  2.1267
18976TIP3    H278344   2.987   1.733   5.830 -0.5873 -1.4028 -0.4616
18977TIP3   OH278345   4.799   3.488   4.544 -0.3499  0.5915  0.3556
18977TIP3    H178346   4.856   3.554   4.504 -0.5628  1.1362  0.9383
18977TIP3    H278347   4.717   3.534   4.562 -1.6398 -0.6067 -2.0441
18978TIP3   OH278348   4.023   1.171   5.464  0.1818 -0.0271  0.2749
18978TIP3    H178349   4.013   1.174   5.559  1.6912 -0.8029  0.4968
18978TIP3    H278350   4.073   1.249   5.442  0.4193 -0.1926  0.2183
18979TIP3   OH278351   5.368   0.318  12.615  0.3635 -0.0673 -0.6085
18979TIP3    H178352   5.367   0.391  12.676 -1.0766 -0.8568  0.3814
18979TIP3    H278353   5.401   0.244  12.665 -0.2492 -0.5829 -0.9369
18980TIP3   OH278354   2.388   2.470  16.286  0.1625  0.1176  0.0531
18980TIP3    H178355   2.472   2.440  16.249  1.4969  2.0272  1.3625
18980TIP3    H278356   2.410   2.500  16.374 -1.5967  2.1500 -0.1181
18981TIP3   OH278357   3.786   3.920   5.028 -0.0683 -0.1195  0.2764
18981TIP3    H178358   3.816   3.851   4.969  0.5608  0.6002 -0.2725
18981TIP3    H278359   3.837   3.908   5.107 -0.8437 -1.0291  0.6577
18982TIP3   OH278360   2.155   4.800   1.684  0.6041  0.1186  0.1011
18982TIP3    H178361   2.215   4.874   1.688  1.3963 -0.3916 -1.5068
18982TIP3    H278362   2.106   4.804   1.766  3.0685  0.3266  1.6340
18983TIP3   OH278363   0.400   3.662   4.628  0.5194 -0.0835  0.0151
18983TIP3    H178364   0.406   3.757   4.639  1.3344 -0.0642 -0.5156
18983TIP3    H278365   0.378   3.629   4.715  1.9441  0.4550  0.5958
18984TIP3   OH278366   6.570   6.385   4.906  0.1643  0.5871  0.2734
18984TIP3    H178367   6.657   6.423   4.918  1.1274 -1.4315  0.0472
18984TIP3    H278368   6.568   6.359   4.814 -0.7351  0.6860  0.2541
18985TIP3   OH278369   4.681   0.112  12.359 -0.1282  0.4257  0.0851
18985TIP3    H178370   4.644   0.166  12.289  0.2818 -0.8808 -1.2072
18985TIP3    H278371   4.617   0.116  12.430 -1.2528  0.6624 -0.9147
18986TIP3   OH278372   3.471   0.742   2.142  0.3908  0.2859  0.3154
18986TIP3    H178373   3.505   0.661   2.104  0.5444  0.6089 -0.2508
18986TIP3    H278374   3.419   0.714   2.218  1.2152 -0.2753  0.6848
18987TIP3   OH278375   1.843   0.390   5.492 -0.1458 -0.5371  0.1673
18987TIP3    H178376   1.840   0.319   5.428 -0.5707 -0.1661 -0.2325
18987TIP3    H278377   1.766   0.377   5.547 -0.8207  0.2149 -0.5721
18988TIP3   OH278378   3.162   0.264  13.946  0.0093 -0.2274 -0.2500
18988TIP3    H178379   3.096   0.219  13.998  1.0825  0.3525  1.7317
18988TIP3    H278380   3.235   0.201  13.941  1.4401  1.0242  2.3725
18989TIP3   OH278381   3.316   5.153   4.858 -0.0897 -0.6680  0.0872
18989TIP3    H178382   3.340   5.207   4.783  0.5375 -1.1396 -0.0608
18989TIP3    H278383   3.222   5.140   4.848 -0.3080  0.6272  0.2904
18990TIP3   OH278384   6.626   2.859   2.834 -0.4175  0.1814 -0.0155
18990TIP3    H178385   6.648   2.871   2.741 -1.9661 -0.8779 -0.5665
18990TIP3    H278386   6.676   2.781   2.860  0.4788  0.8255  0.2238
18991TIP3   OH278387   3.424   5.877  14.161 -0.4529  0.0865  0.4258
18991TIP3    H178388   3.506   5.886  14.210 -0.2419 -1.9800  0.5656
18991TIP3    H278389   3.447   5.820  14.088 -1.4094  0.8414 -0.4793
18992TIP3   OH278390   4.647   3.012  14.682  0.1327 -0.1823  0.2414
18992TIP3    H178391   4.657   3.063  14.762  0.1045  0.2620 -0.0295
18992TIP3    H278392   4.583   3.061  14.630  0.3245 -0.3339 -0.1479
18993TIP3   OH278393   3.842   3.273  11.337 -0.4218 -0.1161 -0.4893
18993TIP3    H178394   3.750   3.300  11.346  0.1922  2.0177 -0.0849
18993TIP3    H278395   3.871   3.313  11.256 -0.1516 -1.8488 -1.2930
18994TIP3   OH278396   3.094   4.908  15.099  0.5487 -0.1171  0.1190
18994TIP3    H178397   3.046   4.943  15.025  1.2802 -0.5784 -0.5929
18994TIP3    H278398   3.029   4.898  15.168 -0.5204 -1.3917 -1.0318
18995TIP3   OH278399   3.393   2.090   4.807  0.3374  0.2362 -0.2164
18995TIP3    H178400   3.417   2.181   4.791 -0.3684  0.6989  1.2023
18995TIP3    H278401   3.374   2.087   4.901 -0.9954 -1.0560 -0.5059
18996TIP3   OH278402   3.747   1.932   4.590  0.4119  0.4034 -0.5780
18996TIP3    H178403   3.662   1.975   4.599  0.4224  0.2376  0.4157
18996TIP3    H278404   3.743   1.889   4.505 -1.2180 -1.1655  0.2335
18997TIP3   OH278405   4.963   2.131   3.068 -0.3426 -0.3757  0.1410
18997TIP3    H178406   5.055   2.123   3.093  0.6129 -1.0321 -3.0634
18997TIP3    H278407   4.937   2.218   3.098  1.8294  0.4418 -0.1685
18998TIP3   OH278408   4.017   0.928  13.996  0.5355 -0.1514 -0.3011
18998TIP3    H178409   4.030   0.905  13.904  2.3196  2.2505 -0.7462
18998TIP3    H278410   3.934   0.976  13.997 -0.0975 -1.2180 -0.4156
18999TIP3   OH278411   2.918   5.854  12.417  0.5206 -0.1106  0.7834
18999TIP3    H178412   2.887   5.932  12.463  1.2476  1.4920 -1.2553
18999TIP3    H278413   2.841   5.821  12.372  0.7864  1.4156 -0.9314
19000TIP3   OH278414   5.443   4.508  14.256  0.1214  0.0123 -0.1895
19000TIP3    H178415   5.372   4.505  14.319  1.3365 -0.2124  1.2185
19000TIP3    H278416   5.402   4.541  14.176 -1.5301 -0.0195  0.5949
19001TIP3   OH278417   2.315   5.204   2.776  0.2672  0.3983  0.5323
19001TIP3    H178418   2.333   5.293   2.748  0.6085 -0.4941 -2.4776
19001TIP3    H278419   2.222   5.191   2.758  0.1473  0.2376  1.2430
19002TIP3   OH278420   3.095   1.494  16.166  0.4217 -0.6873 -0.5373
19002TIP3    H178421   3.172   1.463  16.214 -0.0914 -1.2163 -0.0408
19002TIP3    H278422   3.032   1.518  16.234  1.4075  3.3230 -0.7919
19003TIP3   OH278423   1.565   5.337   0.204  0.1899 -0.6861 -0.6228
19003TIP3    H178424   1.621   5.275   0.251 -0.3813 -0.8144 -0.1016
19003TIP3    H278425   1.524   5.390   0.272 -0.2374 -0.5236 -0.9974
19004TIP3   OH278426   4.535   0.786  16.180 -0.0097 -0.1734  0.2438
19004TIP3    H178427   4.485   0.846  16.237  0.6341 -0.3170  0.9769
19004TIP3    H278428   4.584   0.731  16.241 -1.3055 -2.1264 -0.3542
19005TIP3   OH278429   4.283   3.284   1.026 -0.2953 -0.3528 -0.0597
19005TIP3    H178430   4.280   3.335   1.107  1.2189 -0.7704  0.2801
19005TIP3    H278431   4.351   3.219   1.041  2.3245  1.5092 -2.7670
19006TIP3   OH278432   0.607   0.072   3.947 -0.2201  0.2495 -0.5233
19006TIP3    H178433   0.624  -0.015   3.912  2.3125  0.6582 -0.5231
19006TIP3    H278434   0.598   0.059   4.041  0.4915 -0.0019 -0.4829
19007TIP3   OH278435   4.780   3.431   5.997 -0.5774  0.1317  0.5250
19007TIP3    H178436   4.856   3.450   6.051 -0.6590 -0.1031  0.7226
19007TIP3    H278437   4.709   3.481   6.038 -0.6757 -0.1780  0.7342
19008TIP3   OH278438   0.859   3.184  17.277  0.1582  0.2917  0.6045
19008TIP3    H178439   0.774   3.207  17.315  0.7329  1.1109  1.4290
19008TIP3    H278440   0.884   3.261  17.227 -0.5226 -0.7174 -1.4003
19009TIP3   OH278441   4.771   2.731  11.825  0.3795  0.2101  0.1968
19009TIP3    H178442   4.782   2.732  11.920  0.9793  0.7077  0.1281
19009TIP3    H278443   4.797   2.819  11.797 -1.5166  0.6665 -0.2463
19010TIP3   OH278444   5.441   4.470   3.026  0.0259  0.0090 -0.3176
19010TIP3    H178445   5.375   4.436   3.087  0.2910 -0.2657 -0.1802
19010TIP3    H278446   5.520   4.478   3.078  0.5173 -1.1734 -0.8460
19011TIP3   OH278447   0.636   6.626  11.446 -0.4887  0.0035 -0.7091
19011TIP3    H178448   0.583   6.546  11.440  0.2478 -0.4559 -1.2278
19011TIP3    H278449   0.717   6.605  11.400 -0.3349  1.0966 -0.9738
19012TIP3   OH278450   0.220   0.377  16.849 -0.1113  0.2928  0.4240
19012TIP3    H178451   0.166   0.397  16.773  0.8262  0.5731 -0.1956
19012TIP3    H278452   0.266   0.459  16.868 -0.9608  0.4881  1.8463
19013TIP3   OH278453   1.786   5.597   3.869  0.0789  0.3161 -0.3539
19013TIP3    H178454   1.758   5.607   3.778  2.0235  1.7018 -0.8778
19013TIP3    H278455   1.881   5.609   3.866  0.1589  0.7180  1.9130
19014TIP3   OH278456   1.608   4.916  12.298 -0.6838  0.0950 -0.1797
19014TIP3    H178457   1.601   4.983  12.366 -0.9694 -2.0396  2.0395
19014TIP3    H278458   1.546   4.848  12.325 -0.6188 -0.9731 -2.4792
19015TIP3   OH278459   0.489   5.828  13.538  0.4370  0.2630 -0.0750
19015TIP3    H178460   0.470   5.791  13.624  3.5265 -1.3809  0.0367
19015TIP3    H278461   0.485   5.923  13.551  1.2947  0.0530  2.0588
19016TIP3   OH278462   5.824   5.298   1.264  0.2519  0.3525 -0.1196
19016TIP3    H178463   5.752   5.240   1.238  0.1489  0.6585 -0.5226
19016TIP3    H278464   5.789   5.386   1.255 -0.0087  0.4802  1.6901
19017TIP3   OH278465   1.091   0.163   5.693  0.3676 -0.3214 -0.5049
19017TIP3    H178466   1.004   0.122   5.695  0.4551 -0.4984  0.7665
19017TIP3    H278467   1.111   0.180   5.785  1.6512 -0.2028 -0.7924
19018TIP3   OH278468   6.591   4.331  15.807  0.6342 -0.3557 -0.1070
19018TIP3    H178469   6.682   4.314  15.783  0.8639  0.6987 -0.0450
19018TIP3    H278470   6.547   4.352  15.725  0.3478 -1.2515 -0.1891
19019TIP3   OH278471   0.619   3.191  12.851 -0.0477 -0.0766  0.0014
19019TIP3    H178472   0.670   3.165  12.774  1.2712  0.1566  0.7684
19019TIP3    H278473   0.530   3.205  12.817  0.0375 -1.9217 -1.0974
19020TIP3   OH278474   6.677   0.593   4.243 -0.2366 -0.2918  0.4477
19020TIP3    H178475   6.722   0.674   4.218 -2.2098  0.1945 -1.9210
19020TIP3    H278476   6.603   0.623   4.297 -1.4357 -0.3562 -1.0911
19021TIP3   OH278477   0.439   6.459   1.088 -0.2395  0.1024  0.1737
19021TIP3    H178478   0.449   6.514   1.011  2.2496 -1.7499 -0.9701
19021TIP3    H278479   0.463   6.371   1.058  0.7614 -0.7149  3.0284
19022TIP3   OH278480   0.292   6.398   0.669 -0.4295  0.3859 -0.1298
19022TIP3    H178481   0.306   6.476   0.617  2.6201 -0.8372 -1.4247
19022TIP3    H278482   0.377   6.353   0.668 -1.4119 -1.8481  2.3890
19023TIP3   OH278483   6.716   2.031  13.629  0.3338 -0.0151  0.1033
19023TIP3    H178484   6.701   2.049  13.722 -1.5529  0.0515 -0.1669
19023TIP3    H278485   6.810   2.044  13.617  0.3535  1.8260  1.6109
19024TIP3   OH278486   0.364   5.778  12.229 -0.6745  0.1570 -1.0000
19024TIP3    H178487   0.365   5.717  12.303  1.3886 -1.2584 -2.1149
19024TIP3    H278488   0.316   5.854  12.262 -0.5720 -0.7756  1.5063
19025TIP3   OH278489   3.455   5.428  16.361 -0.5491  0.5480  0.6372
19025TIP3    H178490   3.455   5.517  16.326 -0.5866  1.5416  2.9833
19025TIP3    H278491   3.392   5.430  16.433 -0.6885 -1.4542  0.6468
19026TIP3   OH278492   4.970   2.644   1.356 -0.1736  0.6295  0.4234
19026TIP3    H178493   4.992   2.659   1.265 -2.1323 -1.5372 -0.5049
19026TIP3    H278494   4.922   2.723   1.382 -0.4755  0.8384 -0.7182
19027TIP3   OH278495   2.068   3.862  12.406  0.0742 -0.5718  0.5211
19027TIP3    H178496   2.139   3.802  12.382 -1.3974 -1.6552 -1.4402
19027TIP3    H278497   2.106   3.918  12.474  2.5707 -1.5186  0.0257
19028TIP3   OH278498   1.413   6.304   1.407  0.4568  0.1837 -0.1693
19028TIP3    H178499   1.420   6.210   1.424 -1.0449  0.0368 -0.2354
19028TIP3    H278500   1.427   6.312   1.312 -1.6588 -0.2666 -0.5541
19029TIP3   OH278501   4.271   3.113   4.397 -0.0046 -0.7383  0.1481
19029TIP3    H178502   4.353   3.086   4.357  0.5547 -0.0114  0.7684
19029TIP3    H278503   4.210   3.125   4.324  1.0090  0.6547 -0.5066
19030TIP3   OH278504   1.606   1.998  17.331  0.0664  0.0686  0.3578
19030TIP3    H178505   1.537   2.027  17.271  0.1863  0.4883  0.4218
19030TIP3    H278506   1.580   1.909  17.356 -0.0679 -0.0451 -0.1880
19031TIP3   OH278507   2.866   4.620   0.679 -0.4335  0.0560 -0.0652
19031TIP3    H178508   2.957   4.611   0.650 -0.0246 -1.4531  1.5540
19031TIP3    H278509   2.869   4.685   0.749 -0.4431 -0.6552  0.6037
19032TIP3   OH278510   6.366   3.151   0.284 -0.7317 -0.0765  0.1713
19032TIP3    H178511   6.345   3.241   0.257 -1.4085 -0.1371  0.4828
19032TIP3    H278512   6.458   3.156   0.311 -0.6723  0.4542 -0.0999
19033TIP3   OH278513   2.934   0.846   3.390 -0.0891 -0.5690  0.4307
19033TIP3    H178514   2.895   0.799   3.463  2.2411 -0.8316  1.6012
19033TIP3    H278515   3.022   0.868   3.419  0.4713  0.5279 -1.8076
19034TIP3   OH278516   4.136   0.531  15.972  0.4110  0.1021 -0.2031
19034TIP3    H178517   4.111   0.440  15.955  0.3330  0.3108 -1.2773
19034TIP3    H278518   4.101   0.549  16.059  1.0163 -1.0990  0.3152
19035TIP3   OH278519   6.570   4.278   4.226  0.0674 -0.5019  0.2274
19035TIP3    H178520   6.507   4.340   4.264  0.5967 -1.0568  2.1123
19035TIP3    H278521   6.561   4.290   4.132 -1.8373  0.4545  0.4724
19036TIP3   OH278522   5.504   5.375  15.209  0.0145  0.4199  0.5603
19036TIP3    H178523   5.578   5.366  15.150 -0.5130 -0.9557  0.0560
19036TIP3    H278524   5.537   5.348  15.294  0.4233  1.0787  0.6128
19037TIP3   OH278525   3.614   3.790   4.573  0.1772 -0.3138  0.3289
19037TIP3    H178526   3.540   3.744   4.613  0.6117 -0.2139  1.2720
19037TIP3    H278527   3.617   3.756   4.483 -2.6745  1.6186 -0.6656
19038TIP3   OH278528   4.555   3.098  15.615 -0.1387 -0.0486  0.2638
19038TIP3    H178529   4.530   3.021  15.666 -0.1662  1.2263  2.2744
19038TIP3    H278530   4.520   3.081  15.527 -0.6864 -2.0263  0.8170
19039TIP3   OH278531   0.138   2.214  11.936 -0.0613  0.0963 -0.0753
19039TIP3    H178532   0.139   2.307  11.911 -2.2139 -0.0866 -1.0732
19039TIP3    H278533   0.126   2.215  12.031  0.4586  0.8115 -0.0028
19040TIP3   OH278534   4.194   0.758  17.325  0.4974 -0.0839 -0.0121
19040TIP3    H178535   4.204   0.778  17.417 -2.3037  2.4742 -0.1029
19040TIP3    H278536   4.256   0.816  17.280  2.1520 -1.6177  0.1951
19041TIP3   OH278537   0.119   2.874  11.800 -0.5312  0.0420  0.2596
19041TIP3    H178538   0.170   2.803  11.837 -0.0168  0.3041  0.0685
19041TIP3    H278539   0.053   2.832  11.745  0.5616 -0.2619 -0.8660
19042TIP3   OH278540   5.891   1.641   3.666  0.2114 -0.1595 -0.2669
19042TIP3    H178541   5.912   1.649   3.759  1.9677 -1.9931 -0.4400
19042TIP3    H278542   5.893   1.731   3.633  0.3439  0.4401  1.2983
19043TIP3   OH278543   3.388   0.933  12.583  0.3808  0.0694  0.1721
19043TIP3    H178544   3.371   0.976  12.499  1.0729 -0.8433 -0.4552
19043TIP3    H278545   3.387   1.005  12.647 -1.4991  0.5956 -0.3963
19044TIP3   OH278546   4.675   3.571   2.009  0.7990 -0.3049 -0.2360
19044TIP3    H178547   4.600   3.512   2.002  0.6641 -0.3579  1.3340
19044TIP3    H278548   4.639   3.658   1.990  0.2494 -0.2883  0.8012
19045TIP3   OH278549   3.355   6.346  12.273 -0.0610 -0.5244  0.1082
19045TIP3    H178550   3.372   6.430  12.317  0.0337 -0.7593  0.5241
19045TIP3    H278551   3.441   6.304  12.269 -0.2273 -0.9045  0.5276
19046TIP3   OH278552   5.729   5.466   2.924  0.5722  0.4066  0.1192
19046TIP3    H178553   5.785   5.444   2.998  1.0668 -1.5907 -0.7659
19046TIP3    H278554   5.647   5.420   2.941  0.1032  1.2645  0.1970
19047TIP3   OH278555   5.378   6.254   5.061  0.0069 -0.3716  0.5329
19047TIP3    H178556   5.450   6.271   4.999  0.6949  0.5807  1.5640
19047TIP3    H278557   5.326   6.335   5.059 -0.5211 -0.7095  0.4891
19048TIP3   OH278558   4.256   3.637  13.429 -0.0870 -0.1617 -0.4941
19048TIP3    H178559   4.190   3.642  13.497 -0.8992  3.3372 -1.3531
19048TIP3    H278560   4.228   3.564  13.374 -1.7465 -0.4053  0.5949
19049TIP3   OH278561   5.777   2.744   0.899  0.4297 -0.1616 -0.0044
19049TIP3    H178562   5.798   2.836   0.917  0.7609 -0.1765 -0.3175
19049TIP3    H278563   5.859   2.697   0.913  0.2051 -0.4400  0.3689
19050TIP3   OH278564   3.246   1.360   3.312 -0.1825  0.2011  0.4772
19050TIP3    H178565   3.186   1.351   3.386 -0.6470 -0.3247  0.0384
19050TIP3    H278566   3.193   1.401   3.243  0.5065  1.6140  0.7380
19051TIP3   OH278567   4.189   4.194  12.166 -0.2965 -0.0869  0.8218
19051TIP3    H178568   4.248   4.222  12.097  0.3882 -0.9223  1.0512
19051TIP3    H278569   4.107   4.176  12.121 -0.1269  0.2437  0.3691
19052TIP3   OH278570   1.965   6.009   3.605  0.0329  0.3034  0.0716
19052TIP3    H178571   1.883   5.961   3.592  1.6469 -2.6695 -0.0068
19052TIP3    H278572   1.942   6.080   3.665 -2.3758 -1.1902  1.0602
19053TIP3   OH278573   0.130   4.653  13.532  0.4959  0.0990  0.1461
19053TIP3    H178574   0.086   4.685  13.610 -0.2372 -1.6569  0.4921
19053TIP3    H278575   0.096   4.564  13.519 -0.8454  0.9361 -3.2368
19054TIP3   OH278576   5.782   3.328   0.537  0.4986 -0.2318 -0.3453
19054TIP3    H178577   5.856   3.284   0.578  1.0953  1.5801  0.6211
19054TIP3    H278578   5.791   3.419   0.563 -2.3537 -0.0316  0.1779
19055TIP3   OH278579   0.390   2.405  12.261 -0.0733  0.0013  0.0660
19055TIP3    H178580   0.399   2.328  12.205  1.4471  0.7505 -0.7964
19055TIP3    H278581   0.338   2.466  12.208  0.1360  0.1801  0.0683
19056TIP3   OH278582   5.364   4.087  11.200 -0.0717  0.5081  0.0893
19056TIP3    H178583   5.300   4.078  11.270  0.4177 -1.5264  0.3340
19056TIP3    H278584   5.413   4.167  11.221  0.6996 -0.5547  2.6347
19057TIP3   OH278585   1.563   1.167  13.405 -0.4760 -0.0219 -0.4903
19057TIP3    H178586   1.622   1.243  13.413 -1.1902  0.4899 -0.0310
19057TIP3    H278587   1.484   1.202  13.363 -0.9801 -0.4231  0.1156
19058TIP3   OH278588   6.385   2.211  15.004 -0.5928 -0.8323 -0.0508
19058TIP3    H178589   6.304   2.240  15.046 -1.2006 -2.2698 -0.1795
19058TIP3    H278590   6.370   2.227  14.911 -0.0270  0.5019  0.0662
19059TIP3   OH278591   0.547   1.121   0.784 -0.1942 -0.1569 -0.0538
19059TIP3    H178592   0.575   1.030   0.768 -1.3861 -0.4857 -0.4157
19059TIP3    H278593   0.549   1.162   0.697 -0.8932 -0.2176 -0.1057
19060TIP3   OH278594   0.664   3.138  11.902  0.3249  0.1794 -0.1640
19060TIP3    H178595   0.573   3.132  11.930  0.3246  1.0347  0.0669
19060TIP3    H278596   0.665   3.212  11.841  0.7965 -0.0574 -0.4480
19061TIP3   OH278597   2.128   0.069  11.786  0.1752 -0.2091  0.3201
19061TIP3    H178598   2.097   0.025  11.707  0.9800  2.9371 -1.9565
19061TIP3    H278599   2.049   0.107  11.825  0.0100 -0.1018 -0.1137
19062TIP3   OH278600   0.708   6.038  17.062 -0.6373 -0.1934 -0.0620
19062TIP3    H178601   0.631   6.067  17.111 -1.0727 -2.1116  0.5098
19062TIP3    H278602   0.782   6.058  17.119 -0.9995 -0.9667  0.7004
19063TIP3   OH278603   0.234   5.514   4.764  0.0202 -0.1204 -0.1445
19063TIP3    H178604   0.173   5.462   4.816 -2.0935  0.1801 -2.1234
19063TIP3    H278605   0.228   5.476   4.676  0.8783  1.4398 -0.9132
19064TIP3   OH278606   2.684   2.958  16.904  0.5183  0.0009 -0.4857
19064TIP3    H178607   2.653   2.951  16.994  3.1423  0.0205  0.5248
19064TIP3    H278608   2.643   2.885  16.859  0.7135 -1.2553  1.2638
19065TIP3   OH278609   3.229   3.883   3.948  0.3799  0.4905  0.7533
19065TIP3    H178610   3.253   3.928   3.868  0.0913  0.1622  0.4765
19065TIP3    H278611   3.133   3.877   3.945  0.3667  0.4610  1.1139
19066TIP3   OH278612   1.753   0.943  15.559  0.7387  0.3707  0.0514
19066TIP3    H178613   1.768   1.005  15.631 -0.5680  0.6323  0.1198
19066TIP3    H278614   1.661   0.957  15.534  0.6783 -0.9313 -0.5172
19067TIP3   OH278615   5.184   5.532  13.575 -0.6315 -0.7463  0.6555
19067TIP3    H178616   5.187   5.535  13.671 -1.5785  1.9646  0.6939
19067TIP3    H278617   5.260   5.585  13.548 -1.4650  0.1566  0.0044
19068TIP3   OH278618   6.554   4.570   2.147 -0.2167  0.2130  0.0470
19068TIP3    H178619   6.509   4.544   2.227 -1.3913  0.5574 -0.4691
19068TIP3    H278620   6.493   4.547   2.077  0.6317  0.2558 -0.7293
19069TIP3   OH278621   4.413   4.795  12.251 -0.2861 -0.2567 -0.2440
19069TIP3    H178622   4.345   4.748  12.299 -1.5634 -0.6675 -2.3477
19069TIP3    H278623   4.493   4.743  12.265 -0.7870 -0.7778  0.7639
19070TIP3   OH278624   0.582   3.719   1.166 -0.4519  0.1236 -0.6073
19070TIP3    H178625   0.550   3.750   1.251 -1.8017  0.1895 -1.1200
19070TIP3    H278626   0.505   3.683   1.123  0.4094 -0.8286 -1.4223
19071TIP3   OH278627   4.399   2.397  13.714  0.4883  0.0288 -0.2963
19071TIP3    H178628   4.424   2.482  13.750  0.6849 -0.2888  0.3236
19071TIP3    H278629   4.332   2.418  13.648 -0.1767  0.5836  0.5271
19072TIP3   OH278630   6.038   5.660  10.846  0.2380  0.1813  0.2376
19072TIP3    H178631   6.020   5.661  10.752 -2.9955  0.6128  0.7301
19072TIP3    H278632   6.090   5.581  10.860 -0.2900 -0.5783 -1.7631
19073TIP3   OH278633   5.960   5.841   3.867 -0.0410  0.1634 -0.2069
19073TIP3    H178634   6.018   5.784   3.918 -1.4794 -1.7494 -0.6118
19073TIP3    H278635   5.970   5.927   3.907  0.7142 -0.7633  1.7120
19074TIP3   OH278636   2.253   4.888   1.060 -0.2503 -0.1110  0.4795
19074TIP3    H178637   2.177   4.938   1.090 -2.4724 -2.5284 -0.6569
19074TIP3    H278638   2.276   4.833   1.135 -0.5346 -0.3588  0.3873
19075TIP3   OH278639   2.879   5.212  15.364  0.2079 -0.0099  0.5478
19075TIP3    H178640   2.965   5.252  15.373 -0.6684  1.7962  1.5895
19075TIP3    H278641   2.834   5.233  15.446 -1.4359 -0.3601 -0.2149
19076TIP3   OH278642   4.257   3.637   4.031 -0.3281 -0.0434  0.1823
19076TIP3    H178643   4.233   3.727   4.011  2.0147  0.7771  0.7461
19076TIP3    H278644   4.183   3.585   3.999 -1.7477  2.0479 -0.1388
19077TIP3   OH278645   2.755   4.059   5.453  0.3920 -0.3287  0.2223
19077TIP3    H178646   2.818   4.099   5.394  0.5038 -0.5996  0.1587
19077TIP3    H278647   2.809   4.019   5.522  0.2541  0.2723  0.6920
19078TIP3   OH278648   2.549   2.135  15.879  0.0269  0.4534 -0.1623
19078TIP3    H178649   2.561   2.052  15.924  2.1710  0.0919 -1.2904
19078TIP3    H278650   2.531   2.110  15.788  0.7420  1.2124 -0.5196
19079TIP3   OH278651   0.104   6.233  15.835 -0.4499 -0.8860 -0.2704
19079TIP3    H178652   0.180   6.283  15.865 -1.4362  1.3052 -1.2278
19079TIP3    H278653   0.138   6.144  15.820  1.8200 -0.0665 -0.3718
19080TIP3   OH278654   3.664   2.587  15.435  0.0975  0.4263 -0.2280
19080TIP3    H178655   3.674   2.592  15.340  0.7570 -0.8233 -0.2455
19080TIP3    H278656   3.699   2.501  15.458 -0.7104  0.4210  1.0692
19081TIP3   OH278657   3.269   5.602   2.025 -0.2324 -0.1809 -0.2250
19081TIP3    H178658   3.255   5.681   1.973  0.9672  0.6622  0.6757
19081TIP3    H278659   3.189   5.592   2.076 -0.2584  0.6773 -0.0822
19082TIP3   OH278660   0.768   3.643   6.587 -0.2542 -0.0172 -0.2436
19082TIP3    H178661   0.829   3.590   6.638  0.5075  1.0601  0.0010
19082TIP3    H278662   0.816   3.724   6.569 -1.3917  0.6031 -0.5702
19083TIP3   OH278663   1.034   6.589   6.257  0.1610  0.2264 -0.6622
19083TIP3    H178664   0.967   6.606   6.191 -2.1952  1.7529  1.8546
19083TIP3    H278665   1.056   6.497   6.247  0.0582  0.4300 -3.5960
19084TIP3   OH278666   0.295   0.922   4.219 -0.1686  0.4482  0.5343
19084TIP3    H178667   0.326   0.995   4.274  0.1281  0.0256  0.9351
19084TIP3    H278668   0.245   0.867   4.279  0.2307 -0.0653  0.3977
19085TIP3   OH278669   6.308   3.056  12.091  0.3877 -0.5871 -0.1350
19085TIP3    H178670   6.289   2.984  12.151 -3.4363 -1.2121 -1.8411
19085TIP3    H278671   6.247   3.044  12.018  0.4569  3.6315 -1.1496
19086TIP3   OH278672   4.856   2.981   5.174 -0.5169 -0.3854 -0.0829
19086TIP3    H178673   4.875   2.888   5.180 -0.8515 -0.6972 -2.6374
19086TIP3    H278674   4.772   2.992   5.219 -0.6501 -1.3986 -0.0617
19087TIP3   OH278675   0.887   4.330  12.150 -0.5249 -0.6098  0.2636
19087TIP3    H178676   0.928   4.271  12.088  0.4978  0.4518 -0.1174
19087TIP3    H278677   0.818   4.374  12.100  0.6492  0.6410 -0.3412
19088TIP3   OH278678   1.022   2.980  14.588  0.6918  0.2333 -0.0604
19088TIP3    H178679   1.061   2.966  14.674 -2.1010  0.4820  1.3487
19088TIP3    H278680   0.929   2.990  14.605 -0.0790 -0.4402 -3.2104
19089TIP3   OH278681   4.569   1.977  16.741 -0.3191  0.3487  0.3089
19089TIP3    H178682   4.629   2.035  16.694 -0.1799 -0.2171 -0.2291
19089TIP3    H278683   4.495   2.033  16.764 -1.1201  0.3247 -1.9325
19090TIP3   OH278684   2.762   3.874  17.052 -0.0534 -0.0852  0.4079
19090TIP3    H178685   2.855   3.897  17.061 -0.5153  1.4600  1.6916
19090TIP3    H278686   2.735   3.916  16.971  0.6977 -1.8476 -0.8124
19091TIP3   OH278687   4.555   4.333   2.388 -0.2089  0.2696 -0.3088
19091TIP3    H178688   4.629   4.293   2.342  0.7929 -0.5100  1.8657
19091TIP3    H278689   4.508   4.380   2.319  1.6115 -0.1997 -1.9904
19092TIP3   OH278690   0.569   5.150   1.722  0.2989 -0.0532  0.0327
19092TIP3    H178691   0.603   5.176   1.808 -2.0641  0.4038  0.9001
19092TIP3    H278692   0.573   5.055   1.722  0.1778 -0.0629  0.7296
19093TIP3   OH278693   4.925   0.027   3.867 -0.5301  0.3440  0.2069
19093TIP3    H178694   4.951   0.007   3.958 -2.2734 -1.9517  0.3042
19093TIP3    H278695   4.995   0.082   3.834  0.8765  0.1066  2.5295
19094TIP3   OH278696   5.248   1.968   1.236 -0.2404 -0.3046 -0.3313
19094TIP3    H178697   5.193   2.037   1.272  2.6704  2.9181 -1.5396
19094TIP3    H278698   5.202   1.938   1.158 -0.9692  1.2542 -0.5218
19095TIP3   OH278699   2.499   1.088   2.782  0.3627  0.0829  0.1400
19095TIP3    H178700   2.478   1.110   2.873 -0.2477  1.2263 -0.2503
19095TIP3    H278701   2.433   1.024   2.756  0.3387 -0.0012  0.4089
19096TIP3   OH278702   2.019   5.535   2.550  0.1872  0.2726 -0.1946
19096TIP3    H178703   1.982   5.489   2.625  1.9089 -0.9174 -0.0371
19096TIP3    H278704   2.030   5.468   2.483  4.3158 -0.0892  0.6043
19097TIP3   OH278705   0.404   2.662  12.454  0.4280 -0.0574 -0.8428
19097TIP3    H178706   0.335   2.596  12.452  1.5897 -1.4359  1.0296
19097TIP3    H278707   0.466   2.634  12.386  1.0936 -1.1627  0.1830
19098TIP3   OH278708   1.870   1.740  11.672  0.6217 -0.1960  0.5669
19098TIP3    H178709   1.877   1.817  11.727  0.1285  0.7041 -0.5962
19098TIP3    H278710   1.906   1.767  11.588  0.1254 -1.1221  0.0402
19099TIP3   OH278711   4.732   5.216   1.493 -0.1027 -0.2136 -0.0595
19099TIP3    H178712   4.808   5.208   1.551  0.5087  1.6434 -0.5437
19099TIP3    H278713   4.690   5.130   1.497  0.7194 -0.5835  2.0229
19100TIP3   OH278714   6.283   0.528   2.313  0.0365 -0.2206 -0.0842
19100TIP3    H178715   6.362   0.505   2.361  0.6025 -1.8481 -1.7042
19100TIP3    H278716   6.220   0.461   2.337 -0.4206  0.2672  0.1099
19101TIP3   OH278717   6.734   1.868   5.066 -0.5920 -0.1826 -0.1864
19101TIP3    H178718   6.777   1.784   5.086 -0.2982 -0.1382 -0.6406
19101TIP3    H278719   6.753   1.884   4.974 -0.2684  0.6143  0.0166
19102TIP3   OH278720   1.014   2.033  15.047  0.4258 -0.2052 -0.6468
19102TIP3    H178721   1.100   1.993  15.035  0.1241 -1.1379  0.1573
19102TIP3    H278722   0.964   1.967  15.095 -0.0309  1.2125  0.9154
19103TIP3   OH278723   6.210   6.261   2.691 -0.1345  0.0979  0.1656
19103TIP3    H178724   6.127   6.222   2.719 -0.1971  0.6973  0.8559
19103TIP3    H278725   6.270   6.186   2.685 -0.1637 -0.1077  1.7989
19104TIP3   OH278726   5.180   5.435   1.929  0.9234  0.2318  0.0024
19104TIP3    H178727   5.091   5.457   1.959  0.8061  0.3865 -0.4587
19104TIP3    H278728   5.237   5.494   1.979  0.7414  0.3554  0.0669
19105TIP3   OH278729   1.185   6.402   1.520  0.2449 -0.0182  0.4580
19105TIP3    H178730   1.258   6.348   1.490  0.7730 -0.2546  2.0596
19105TIP3    H278731   1.106   6.357   1.489  0.6678 -1.8252  1.8649
19106TIP3   OH278732   4.189   1.026   0.576  0.5515  0.0505  0.1272
19106TIP3    H178733   4.114   1.015   0.634  0.3758 -0.4133 -0.1726
19106TIP3    H278734   4.241   1.095   0.616 -0.0796  0.4367  0.2953
19107TIP3   OH278735   6.414   6.509  16.116 -0.3115  0.1072 -0.0792
19107TIP3    H178736   6.363   6.547  16.187  0.6535 -0.4582  0.9472
19107TIP3    H278737   6.358   6.439  16.082 -0.6648  0.1856  0.3253
19108TIP3   OH278738   0.040   3.146  10.890 -0.3777  0.2039 -0.0382
19108TIP3    H178739   0.122   3.161  10.937 -0.1424 -1.7586  0.2543
19108TIP3    H278740   0.019   3.231  10.850  1.5139  0.8757  0.3108
19109TIP3   OH278741   4.431   5.344   2.861  0.4417  0.1755  0.2045
19109TIP3    H178742   4.346   5.338   2.904  0.9272  0.1502  1.2001
19109TIP3    H278743   4.477   5.264   2.885  1.1520  0.6873  0.6089
19110TIP3   OH278744   3.027   5.514  13.724 -0.6698  0.5064  0.0821
19110TIP3    H178745   3.006   5.450  13.656 -1.2652 -1.2499  1.8245
19110TIP3    H278746   2.995   5.597  13.689 -1.3818 -0.3982 -1.5608
19111TIP3   OH278747   1.000   0.248   2.920 -0.2647  0.4632  0.3806
19111TIP3    H178748   1.029   0.322   2.866  1.5487  0.3019  1.0484
19111TIP3    H278749   1.000   0.282   3.009  1.4254 -0.5000  0.8032
19112TIP3   OH278750   6.574   1.206   6.602  0.5709  0.0473 -0.3406
19112TIP3    H178751   6.484   1.199   6.573  0.6928 -0.5199 -0.5981
19112TIP3    H278752   6.569   1.251   6.687 -0.1431 -1.7442  0.6261
19113TIP3   OH278753   3.836   6.367   1.426 -0.2212 -0.4352  0.5357
19113TIP3    H178754   3.805   6.337   1.511  0.3986  1.1299  1.3580
19113TIP3    H278755   3.898   6.437   1.446 -1.0929  0.9242 -1.2094
19114TIP3   OH278756   1.931   1.782   2.892  0.0030  0.3199 -0.2597
19114TIP3    H178757   1.965   1.737   2.969 -0.1867 -1.3872 -1.1219
19114TIP3    H278758   1.856   1.832   2.925 -0.9783 -1.5155  0.4597
19115TIP3   OH278759   2.627   3.549  14.282 -0.5937 -0.1274 -0.1269
19115TIP3    H178760   2.586   3.577  14.200 -0.3109 -0.5169 -0.4109
19115TIP3    H278761   2.559   3.497  14.326 -0.6443 -0.1792 -0.2641
19116TIP3   OH278762   2.965   1.482   3.431  0.3577 -0.6950 -0.4750
19116TIP3    H178763   2.997   1.407   3.481 -0.3441 -1.0869 -0.5931
19116TIP3    H278764   2.913   1.532   3.494  1.2727 -0.0097 -0.2570
19117TIP3   OH278765   2.627   4.327  15.366  0.2972 -0.6261  0.1721
19117TIP3    H178766   2.638   4.236  15.395 -0.3213 -1.1621 -1.2109
19117TIP3    H278767   2.690   4.338  15.295 -0.5132 -0.3630 -0.5097
19118TIP3   OH278768   4.833   3.635  11.282 -0.0195  0.0997  0.3239
19118TIP3    H178769   4.859   3.644  11.190 -1.0339 -1.6174 -0.1709
19118TIP3    H278770   4.737   3.636  11.280 -0.0806  2.0397  1.6242
19119TIP3   OH278771   1.374   0.178  16.119  0.1468 -0.1985 -0.0131
19119TIP3    H178772   1.470   0.187  16.120  0.3895 -1.9212 -1.9235
19119TIP3    H278773   1.343   0.262  16.084  0.9097  0.4727  0.8676
19120TIP3   OH278774   4.404   4.142   2.493  0.8090  0.2639  0.0219
19120TIP3    H178775   4.467   4.200   2.451 -0.0277  3.2464  2.4911
19120TIP3    H278776   4.322   4.157   2.445  0.5148  1.4942  0.8595
19121TIP3   OH278777   3.922   1.428   1.314 -0.2906 -0.4081 -0.3218
19121TIP3    H178778   3.968   1.511   1.298 -1.1199  0.1412  0.0608
19121TIP3    H278779   3.902   1.429   1.407 -0.4584 -0.9700 -0.3478
19122TIP3   OH278780   1.384   3.561  15.931 -0.9564 -0.2195  0.3025
19122TIP3    H178781   1.392   3.552  16.026  0.4143  0.9839  0.3381
19122TIP3    H278782   1.430   3.643  15.911 -1.3706 -0.3660 -1.3836
19123TIP3   OH278783   5.960   3.438  15.755  0.3327  0.4364 -1.0783
19123TIP3    H178784   6.050   3.436  15.788  0.4027 -1.1966 -1.3046
19123TIP3    H278785   5.923   3.517  15.794  1.7746  1.0007 -0.7697
19124TIP3   OH278786   0.184   2.385   2.526 -0.3088  0.0231  0.4335
19124TIP3    H178787   0.173   2.384   2.621 -3.9006 -1.4787  0.1320
19124TIP3    H278788   0.148   2.469   2.498  0.6318  0.4095  0.3161
19125TIP3   OH278789   6.648   4.717  12.211  0.4198  0.4611 -0.6539
19125TIP3    H178790   6.577   4.662  12.246  0.1437 -0.1936 -2.1491
19125TIP3    H278791   6.651   4.792  12.270  1.7026 -1.7185  2.2852
19126TIP3   OH278792   4.517   5.403  11.691  0.1781  0.7250 -0.3780
19126TIP3    H178793   4.501   5.451  11.609  0.0003  1.8692  0.3096
19126TIP3    H278794   4.596   5.443  11.727  1.3015 -0.9771 -0.8451
19127TIP3   OH278795   6.745   5.255   2.019  0.0169  0.1919 -0.3146
19127TIP3    H178796   6.821   5.209   2.055  1.3110  1.6799 -1.0532
19127TIP3    H278797   6.728   5.212   1.935  0.4162  0.2329 -0.4171
19128TIP3   OH278798   1.363   3.107  15.800 -0.2584 -0.2865  0.7139
19128TIP3    H178799   1.334   3.066  15.718  0.9439  0.0589  0.0908
19128TIP3    H278800   1.457   3.088  15.804 -0.0466  0.8334  1.3476
19129TIP3   OH278801   0.082   1.660   2.199 -0.7428  0.3668 -0.6235
19129TIP3    H178802   0.006   1.624   2.153 -2.4476  1.4894  1.1539
19129TIP3    H278803   0.068   1.637   2.291  2.1220 -1.0706 -0.4210
19130TIP3   OH278804   2.239   3.614  12.327 -0.0718 -0.5796 -0.3419
19130TIP3    H178805   2.233   3.589  12.235  0.9304  0.1210 -0.6076
19130TIP3    H278806   2.234   3.531  12.375 -1.4030 -0.8847 -0.9713
19131TIP3   OH278807   4.974   6.750  12.628 -0.3035  0.3541 -0.5956
19131TIP3    H178808   4.927   6.785  12.703  1.2305  2.8903 -0.6986
19131TIP3    H278809   5.060   6.726  12.662 -0.1329  0.0175 -1.2402
19132TIP3   OH278810   3.676   0.845  14.924  0.2195  0.0612 -0.7146
19132TIP3    H178811   3.659   0.763  14.971  2.2290  0.2668  0.4887
19132TIP3    H278812   3.656   0.914  14.987  1.3353  0.3970 -0.7140
19133TIP3   OH278813   0.101   4.076   5.546  0.1701  0.0494  0.0076
19133TIP3    H178814   0.169   4.013   5.572 -0.1827 -0.2665  0.1742
19133TIP3    H278815   0.142   4.129   5.478 -0.3007 -1.9723 -2.0102
19134TIP3   OH278816   4.872   0.363  14.285 -0.4360 -0.3017  0.2777
19134TIP3    H178817   4.924   0.434  14.324 -1.6574  0.5954  0.3440
19134TIP3    H278818   4.899   0.361  14.194  1.8304 -1.8398  0.9124
19135TIP3   OH278819   2.576   0.347  14.404  0.1472  0.2882 -0.2278
19135TIP3    H178820   2.550   0.432  14.370 -0.6266 -0.5656 -1.9115
19135TIP3    H278821   2.652   0.322  14.351  0.0914 -0.2595 -0.0572
19136TIP3   OH278822   4.125   2.736   5.866  0.2813 -0.2439  0.4334
19136TIP3    H178823   4.167   2.675   5.926  0.3241  0.8276  1.5287
19136TIP3    H278824   4.194   2.796   5.840 -0.4031  1.2694  1.9125
19137TIP3   OH278825   6.342   3.035  12.646  0.7102  0.1647  0.4685
19137TIP3    H178826   6.251   3.006  12.661  1.3266 -2.1364  0.2241
19137TIP3    H278827   6.376   3.053  12.733  0.5931 -0.9673  0.7677
19138TIP3   OH278828   0.998   3.077  15.494 -0.3966  0.5777  0.1630
19138TIP3    H178829   1.072   3.125  15.457 -1.6595  1.7390 -0.9786
19138TIP3    H278830   1.038   3.014  15.553  1.6146  0.0419 -1.6339
19139TIP3   OH278831   0.265   0.596   1.919 -0.0271  0.1888  0.4320
19139TIP3    H178832   0.243   0.634   1.834  2.1661 -1.5175 -0.9805
19139TIP3    H278833   0.191   0.539   1.939 -1.1138  1.4944  0.2872
19140TIP3   OH278834   1.562   4.627   4.361  0.1609 -0.0895 -0.4114
19140TIP3    H178835   1.498   4.589   4.300 -1.5573 -1.4854  2.0753
19140TIP3    H278836   1.617   4.554   4.387 -1.0914 -0.2782  1.9499
19141TIP3   OH278837   5.146   5.672  16.834 -0.2774  0.2143  0.3460
19141TIP3    H178838   5.223   5.645  16.783 -0.1407  0.7724  0.2480
19141TIP3    H278839   5.181   5.692  16.921 -0.6999 -2.0073  1.0889
19142TIP3   OH278840   0.883   0.665  13.446 -0.3540  0.2002 -0.2718
19142TIP3    H178841   0.853   0.708  13.526  0.7580  0.8001 -0.1646
19142TIP3    H278842   0.979   0.667  13.451 -0.2328 -2.3691 -0.2300
19143TIP3   OH278843   4.845   2.431  10.981 -0.0005  0.5976  0.3188
19143TIP3    H178844   4.925   2.417  10.930  1.4786  4.5334  1.2337
19143TIP3    H278845   4.849   2.364  11.050  1.3503 -0.5957 -0.8497
19144TIP3   OH278846   0.254   3.660  11.956  0.3030 -0.0847 -0.1957
19144TIP3    H178847   0.339   3.645  11.997  0.0933 -1.7731 -0.3303
19144TIP3    H278848   0.206   3.713  12.019  0.2534 -2.0044  1.4788
19145TIP3   OH278849   1.299   5.741  11.132  0.0838  0.2155 -0.4145
19145TIP3    H178850   1.302   5.832  11.103 -0.5725  1.0132  1.8418
19145TIP3    H278851   1.207   5.715  11.119 -0.5843  1.0484  2.0396
19146TIP3   OH278852   4.410   3.859  15.838  0.1202 -0.0612  0.0800
19146TIP3    H178853   4.432   3.892  15.750  0.1976  1.0532  0.5062
19146TIP3    H278854   4.468   3.908  15.896  0.4734 -1.2091  0.7140
19147TIP3   OH278855   3.828   0.537   2.276 -0.2276  0.0605 -0.1560
19147TIP3    H178856   3.830   0.550   2.181 -2.7259  2.2984 -0.0309
19147TIP3    H278857   3.786   0.451   2.287  0.6925 -0.5275 -1.0279
19148TIP3   OH278858   1.598   1.398  12.167  0.0005 -0.0478  0.8249
19148TIP3    H178859   1.546   1.450  12.106 -1.3827 -1.4099  0.7927
19148TIP3    H278860   1.670   1.363  12.114 -1.3141 -1.4127 -0.1406
19149TIP3   OH278861   1.405   3.144   4.740 -0.8961 -0.4253 -0.2483
19149TIP3    H178862   1.359   3.209   4.792 -1.0891  1.3179 -2.4530
19149TIP3    H278863   1.339   3.110   4.680  0.0258  0.1991 -1.6895
19150TIP3   OH278864   2.309   4.102  11.485  0.3740  0.0887  0.1420
19150TIP3    H178865   2.230   4.147  11.457  0.1485 -0.8541 -0.7861
19150TIP3    H278866   2.362   4.095  11.406  1.4005  0.7132  0.7515
19151TIP3   OH278867   0.368   3.112  17.060 -0.1531  0.6358 -0.0486
19151TIP3    H178868   0.364   3.116  17.155 -1.3610  1.2536 -0.1042
19151TIP3    H278869   0.448   3.158  17.037 -0.0891  0.8749  0.6459
19152TIP3   OH278870   1.217   0.763   2.417  0.1785  0.3961  0.9356
19152TIP3    H178871   1.153   0.798   2.479 -1.1107 -0.6007  0.2035
19152TIP3    H278872   1.183   0.676   2.394  1.7062 -0.0836  0.3894
19153TIP3   OH278873   1.692   1.246   4.459  0.8570 -0.1942 -0.0542
19153TIP3    H178874   1.758   1.287   4.514  0.2701 -0.2048  0.6698
19153TIP3    H278875   1.608   1.266   4.502  0.3204  0.4097 -1.3222
19154TIP3   OH278876   2.277   0.323  16.893  0.0055 -0.0265  0.0822
19154TIP3    H178877   2.247   0.382  16.823 -0.6532 -0.1054  0.2913
19154TIP3    H278878   2.197   0.284  16.927  0.4177 -0.9476  0.0459
19155TIP3   OH278879   1.292   6.075   1.612  0.7652 -0.3129 -0.4996
19155TIP3    H178880   1.306   5.980   1.618 -0.6454 -0.5527 -0.4627
19155TIP3    H278881   1.337   6.112   1.687  0.5445 -1.0642  0.0093
19156TIP3   OH278882   3.151   3.819   0.311  0.2683  0.3982 -0.1645
19156TIP3    H178883   3.217   3.764   0.268  2.6727  1.5050  1.8590
19156TIP3    H278884   3.178   3.820   0.403 -1.2792  2.7347  0.3356
19157TIP3   OH278885   5.615   3.328   3.382 -0.5027  0.4356  0.3017
19157TIP3    H178886   5.669   3.316   3.460  0.5951 -0.6057 -0.5883
19157TIP3    H278887   5.527   3.304   3.410 -0.0152 -0.5185  1.0660
19158TIP3   OH278888   5.769   5.549  13.262  0.0976  0.4643  0.1359
19158TIP3    H178889   5.800   5.465  13.296 -0.1606  0.5708  0.6427
19158TIP3    H278890   5.766   5.607  13.338  0.0369  0.8633 -0.1656
19159TIP3   OH278891   4.761   1.742  11.318 -0.4249  0.3885  0.3862
19159TIP3    H178892   4.752   1.705  11.405 -0.8913 -0.9060 -0.1822
19159TIP3    H278893   4.841   1.703  11.283 -1.7342 -1.3866 -0.7922
19160TIP3   OH278894   5.682   5.332   5.030  0.2348  0.4058 -0.0277
19160TIP3    H178895   5.636   5.359   5.110 -0.0130 -0.3101  0.0822
19160TIP3    H278896   5.612   5.300   4.973  0.5427 -0.1954 -0.0691
19161TIP3   OH278897   2.637   2.042   0.689  0.0438 -0.1653  0.3064
19161TIP3    H178898   2.698   2.114   0.703  0.7610 -1.1614  3.0310
19161TIP3    H278899   2.552   2.084   0.676  0.7792  1.1853 -0.2932
19162TIP3   OH278900   0.401   1.569   4.886 -0.1600 -0.8342  0.1984
19162TIP3    H178901   0.443   1.523   4.813  1.7897 -1.9238  1.8783
19162TIP3    H278902   0.459   1.553   4.960 -1.9319  0.4136  1.9557
19163TIP3   OH278903   2.760   6.518   3.103  0.1022 -0.1120 -0.7003
19163TIP3    H178904   2.686   6.549   3.051  0.3853  0.5596 -0.7130
19163TIP3    H278905   2.828   6.585   3.092  0.0088  0.3011  0.9038
19164TIP3   OH278906   6.245   4.769  13.812  0.0959  0.5580  0.2269
19164TIP3    H178907   6.170   4.813  13.852 -0.7725  0.2427 -1.0081
19164TIP3    H278908   6.316   4.833  13.818 -0.5261  1.2314  0.5361
19165TIP3   OH278909   2.276   1.074  13.062  0.2790  0.3807  0.0203
19165TIP3    H178910   2.188   1.055  13.031 -0.1520 -2.0318  2.2951
19165TIP3    H278911   2.305   1.148  13.010 -2.4832  0.2701 -1.8755
19166TIP3   OH278912   4.571   2.678  14.939 -0.5926 -0.0594 -0.3784
19166TIP3    H178913   4.492   2.626  14.950 -0.2996 -0.4604 -0.1755
19166TIP3    H278914   4.565   2.711  14.849 -0.9276 -0.1889 -0.4059
19167TIP3   OH278915   3.298   0.482  11.886  0.1170  0.1128  0.8015
19167TIP3    H178916   3.335   0.450  11.968 -0.3824  0.2351  1.0737
19167TIP3    H278917   3.315   0.412  11.823  0.7369  0.1307  0.9423
19168TIP3   OH278918   3.396   1.512   1.681  0.5554 -1.0040 -0.3531
19168TIP3    H178919   3.471   1.460   1.709  0.2794 -0.7887  0.8152
19168TIP3    H278920   3.408   1.597   1.725 -1.1666 -1.4683  1.1175
19169TIP3   OH278921   0.948   0.495   0.629 -0.3604  0.3798 -0.2542
19169TIP3    H178922   0.877   0.431   0.624 -0.4930  0.5460 -0.5098
19169TIP3    H278923   0.978   0.505   0.539  0.7902 -0.5818 -0.0165
19170TIP3   OH278924   4.568   3.438  16.350  0.3602 -0.3782 -0.5546
19170TIP3    H178925   4.596   3.502  16.416 -0.1125 -0.7644  0.0349
19170TIP3    H278926   4.603   3.354  16.381 -1.5584 -0.9101  0.3236
19171TIP3   OH278927   2.081   2.872   2.075  0.2147  0.2471  0.4994
19171TIP3    H178928   1.993   2.865   2.039 -0.8015  0.2012  2.8058
19171TIP3    H278929   2.088   2.962   2.105  0.9828  0.2568  0.3235
19172TIP3   OH278930   3.561   3.936   3.930 -0.2961 -0.2179 -0.3849
19172TIP3    H178931   3.563   3.848   3.893  0.4885 -0.0167 -0.8459
19172TIP3    H278932   3.623   3.986   3.877 -0.7098  0.6081 -0.1090
19173TIP3   OH278933   2.288   4.686  11.243 -0.1911 -0.6904  0.3177
19173TIP3    H178934   2.218   4.689  11.178  0.2145 -0.0661 -0.1141
19173TIP3    H278935   2.319   4.596  11.242 -2.6073 -1.6487  2.3185
19174TIP3   OH278936   5.286   2.695   2.429 -0.4161  0.1776  0.0283
19174TIP3    H178937   5.256   2.621   2.377  0.2707  0.3396 -0.6184
19174TIP3    H278938   5.260   2.772   2.378 -0.6443  0.3707  0.4300
19175TIP3   OH278939   6.008   2.680   3.365 -0.3908 -0.2441 -0.1334
19175TIP3    H178940   5.992   2.616   3.295  1.4228 -1.1081  0.1891
19175TIP3    H278941   6.037   2.758   3.319 -0.2149 -0.4678 -0.4057
19176TIP3   OH278942   5.830   0.272  17.344  0.3014  0.1277 -0.2469
19176TIP3    H178943   5.763   0.336  17.369 -0.3721 -0.4082 -0.6332
19176TIP3    H278944   5.780   0.195  17.317  1.1017 -0.5914  0.2709
19177TIP3   OH278945   2.143   0.289   4.065  0.2492 -0.5376  0.1746
19177TIP3    H178946   2.167   0.197   4.047 -1.8932 -1.0598 -0.2535
19177TIP3    H278947   2.048   0.290   4.062  0.2083  1.6209  0.7665
19178TIP3   OH278948   5.371   4.358   3.678  0.2045 -0.1615 -0.4889
19178TIP3    H178949   5.382   4.452   3.688 -0.2584 -0.2465  1.2179
19178TIP3    H278950   5.283   4.340   3.712  0.6907 -1.3216  0.2108
19179TIP3   OH278951   2.833   1.533   4.002  0.2028  0.2599 -0.3549
19179TIP3    H178952   2.744   1.502   3.983  0.9680 -1.7714 -0.9804
19179TIP3    H278953   2.831   1.556   4.095 -0.6841 -0.9337 -0.0502
19180TIP3   OH278954   5.769   0.834  13.418  0.0606  0.3913 -0.7192
19180TIP3    H178955   5.718   0.912  13.397 -1.6555 -0.9614 -1.7526
19180TIP3    H278956   5.716   0.787  13.483  1.4208  0.3918  0.4487
19181TIP3   OH278957   0.835   3.920  11.650 -0.0805 -0.0641  0.5567
19181TIP3    H178958   0.930   3.914  11.639 -0.0863 -1.4991  1.0448
19181TIP3    H278959   0.822   3.999  11.702  0.9068 -0.2210  1.0746
19182TIP3   OH278960   1.016   4.991   5.438 -0.1808  0.4390 -0.1416
19182TIP3    H178961   1.029   4.927   5.368  0.0709 -0.7560  0.9722
19182TIP3    H278962   0.956   4.950   5.499 -0.4791  1.5029  0.3139
19183TIP3   OH278963   0.803   2.002  13.612 -0.1443  0.5182 -0.0066
19183TIP3    H178964   0.870   2.041  13.556 -0.7594  1.3439 -0.1880
19183TIP3    H278965   0.797   2.060  13.688 -0.6642  0.4744 -0.0056
19184TIP3   OH278966   1.394   3.390   3.586  0.1148  0.4815  0.3977
19184TIP3    H178967   1.323   3.352   3.534  0.1834 -0.5209  1.0154
19184TIP3    H278968   1.471   3.385   3.529  0.1342 -0.3760  0.4883
19185TIP3   OH278969   3.041   2.531   3.809 -0.3434 -0.2388 -0.2910
19185TIP3    H178970   3.034   2.445   3.768 -0.5273 -0.2776 -0.1851
19185TIP3    H278971   3.107   2.577   3.759  1.3942 -1.2185  1.0039
19186TIP3   OH278972   3.195   5.956   5.776  0.5244 -0.0137  0.1551
19186TIP3    H178973   3.201   5.880   5.833  0.8215  0.5204  0.8540
19186TIP3    H278974   3.102   5.963   5.754  0.4826 -0.5170  0.1542
19187TIP3   OH278975   3.416   6.446  13.752 -0.3767 -0.0770  0.3106
19187TIP3    H178976   3.332   6.404  13.732  1.1571 -3.3580  0.0141
19187TIP3    H278977   3.476   6.373  13.764  3.0266  2.1149 -1.8453
19188TIP3   OH278978   5.473   2.789  12.262 -0.1201 -0.1542 -0.4020
19188TIP3    H178979   5.477   2.828  12.175  0.2027 -1.0241 -0.7795
19188TIP3    H278980   5.427   2.706  12.250 -0.8827  0.1328  0.4126
19189TIP3   OH278981   1.977   3.215   0.718  0.2017 -0.2825 -0.3104
19189TIP3    H178982   2.041   3.174   0.778  0.5870 -1.3815 -1.4187
19189TIP3    H278983   1.928   3.276   0.773  1.1498 -0.5857  0.9227
19190TIP3   OH278984   5.460   6.623   2.331 -0.5041  0.3435 -0.1895
19190TIP3    H178985   5.405   6.576   2.269 -0.8068 -0.0377  0.3612
19190TIP3    H278986   5.538   6.648   2.281 -2.1685  3.0000 -1.6747
19191TIP3   OH278987   6.128   2.438  11.155 -0.0368 -0.7373 -0.2459
19191TIP3    H178988   6.129   2.508  11.220  1.1567 -2.0405  1.1992
19191TIP3    H278989   6.065   2.468  11.089  0.2059  1.5302  0.4697
19192TIP3   OH278990   1.331   5.699  15.536 -0.0505 -0.2581 -0.8702
19192TIP3    H178991   1.419   5.709  15.573  1.7015 -1.5283 -4.2787
19192TIP3    H278992   1.313   5.606  15.541 -1.6043  0.0673  0.4206
19193TIP3   OH278993   0.575   5.608   6.144 -0.0952  0.0404 -0.4859
19193TIP3    H178994   0.489   5.577   6.172  0.0734 -0.5600 -0.6217
19193TIP3    H278995   0.574   5.601   6.049 -0.6790  2.1203 -0.6723
19194TIP3   OH278996   2.621   3.301   3.881 -0.2575 -0.1128  0.1434
19194TIP3    H178997   2.647   3.220   3.925  1.6048  0.5635  0.4103
19194TIP3    H278998   2.691   3.316   3.817 -1.0949  0.7705 -0.5891
19195TIP3   OH278999   2.292   0.837  14.016  0.3448  0.3854 -0.1245
19195TIP3    H179000   2.359   0.894  14.054  1.2200 -0.4629 -0.3643
19195TIP3    H279001   2.263   0.885  13.938 -0.2653  1.3483  0.6655
19196TIP3   OH279002   1.272   6.076  15.869 -0.2685  0.0626 -0.2419
19196TIP3    H179003   1.213   6.150  15.853 -1.5294 -1.2475 -2.1959
19196TIP3    H279004   1.217   6.011  15.912  0.1386 -0.6033 -0.7051
19197TIP3   OH279005   0.723   0.212   2.946  0.1143 -0.2856  0.3953
19197TIP3    H179006   0.680   0.296   2.960 -2.1918 -0.4205 -3.9727
19197TIP3    H279007   0.812   0.234   2.918 -0.4537  0.7943 -0.6728
19198TIP3   OH279008   4.150   0.247   6.218  1.0389  0.5429 -0.2838
19198TIP3    H179009   4.168   0.317   6.156 -0.1387  0.2679 -0.9731
19198TIP3    H279010   4.055   0.253   6.235  0.6926 -1.4722 -1.1404
19199TIP3   OH279011   0.109   3.810   2.323 -0.1262 -0.6672  0.1905
19199TIP3    H179012   0.075   3.813   2.412  2.4178  1.1668  1.2074
19199TIP3    H279013   0.204   3.805   2.333  0.3653  1.3101 -2.3224
19200TIP3   OH279014   4.608   0.022  11.382  0.1682 -0.7423 -0.1452
19200TIP3    H179015   4.703   0.027  11.385  0.2584 -0.8520 -1.9144
19200TIP3    H279016   4.589  -0.072  11.387  0.2938 -0.8952 -2.0379
19201TIP3   OH279017   5.433   6.664   4.229 -0.5983 -0.0245 -0.0966
19201TIP3    H179018   5.479   6.746   4.246 -1.0589  0.0037  1.1559
19201TIP3    H279019   5.498   6.596   4.246 -0.9483  0.0169  1.5796
19202TIP3   OH279020   4.036   2.673  14.411  0.4333 -0.0445 -0.2335
19202TIP3    H179021   4.068   2.657  14.500 -0.6731 -1.4084 -0.0361
19202TIP3    H279022   4.107   2.647  14.354 -0.1687 -2.8777  0.1872
19203TIP3   OH279023   3.003   5.626  15.699 -0.5133  0.0676 -0.1855
19203TIP3    H179024   3.055   5.697  15.662 -2.5847  1.9926  0.3630
19203TIP3    H279025   3.063   5.552  15.703  1.3320  1.3324 -2.1788
19204TIP3   OH279026   0.479   0.249  16.640 -0.5552 -0.0202 -0.4643
19204TIP3    H179027   0.562   0.251  16.592  0.4443 -2.1761  0.9945
19204TIP3    H279028   0.412   0.240  16.572  0.6054 -0.7177 -1.5627
19205TIP3   OH279029   4.030   0.565  14.567  0.0767 -0.2066  0.2991
19205TIP3    H179030   4.003   0.496  14.628 -0.1586 -0.8186 -0.4780
19205TIP3    H279031   3.965   0.635  14.580 -0.0191 -0.3643  0.6902
19206TIP3   OH279032   3.281   3.924  16.116  0.5334 -0.0569  0.1394
19206TIP3    H179033   3.299   3.848  16.171 -0.2803  0.2123  0.7967
19206TIP3    H279034   3.210   3.897  16.058 -0.3192  0.4192  0.9149
19207TIP3   OH279035   1.397   1.321  15.506  0.0800  0.0023  0.0539
19207TIP3    H179036   1.431   1.242  15.463 -0.1771 -0.6599  1.0343
19207TIP3    H279037   1.474   1.377  15.517  0.2414 -0.0399 -0.7705
19208TIP3   OH279038   3.935   3.136  13.478  0.7192  0.2960 -0.1280
19208TIP3    H179039   3.874   3.077  13.435 -1.0583  3.0995 -1.7260
19208TIP3    H279040   4.021   3.116  13.440  0.3141 -1.6557 -0.0778
19209TIP3   OH279041   6.275   6.671  15.676  0.2014 -0.0248  0.1671
19209TIP3    H179042   6.294   6.754  15.631 -1.9421 -0.1103 -1.0254
19209TIP3    H279043   6.310   6.683  15.764  0.2182  2.0625 -0.0727
19210TIP3   OH279044   2.513   4.557   4.771 -0.7642 -0.5902  0.2953
19210TIP3    H179045   2.595   4.518   4.801 -0.5808  0.0022  0.5798
19210TIP3    H279046   2.540   4.620   4.704 -0.9330 -0.0100  0.7629
19211TIP3   OH279047   4.783   3.977  17.077  0.0568  0.2671  0.0203
19211TIP3    H179048   4.867   4.023  17.070  0.9540 -1.4172 -0.8184
19211TIP3    H279049   4.748   3.978  16.988 -0.8370  0.9269  0.3572
19212TIP3   OH279050   1.967   5.623   0.157 -0.1005  0.2469  0.1975
19212TIP3    H179051   1.976   5.694   0.221  0.4696 -0.5420  1.0105
19212TIP3    H279052   1.953   5.668   0.074 -0.6641  1.2963  0.8384
19213TIP3   OH279053   6.348   4.168   5.792  0.2797  0.8080  0.1164
19213TIP3    H179054   6.275   4.120   5.831  0.5069 -1.1401 -1.6632
19213TIP3    H279055   6.426   4.134   5.837  0.5142 -1.2208 -1.6450
19214TIP3   OH279056   0.771   6.275  11.500 -0.3718  0.4732  0.2160
19214TIP3    H179057   0.866   6.276  11.493 -0.2648 -1.6803  0.7928
19214TIP3    H279058   0.750   6.191  11.540 -2.4942  1.1788  0.7561
19215TIP3   OH279059   3.353   5.072   2.966 -0.3623  0.1576 -0.2422
19215TIP3    H179060   3.428   5.021   2.936  1.9972  3.2531 -0.0713
19215TIP3    H279061   3.306   5.096   2.886 -2.3339 -3.1740 -0.2569
19216TIP3   OH279062   0.031   1.094  14.990  0.8294 -0.0653  0.3498
19216TIP3    H179063  -0.008   1.105  14.903 -0.4967 -0.5247  0.8571
19216TIP3    H279064  -0.004   1.168  15.041  2.0710  0.5443  0.3583
19217TIP3   OH279065   1.246   3.767  15.166 -0.0328  0.4837 -0.3439
19217TIP3    H179066   1.240   3.853  15.206 -1.2684  0.3693 -0.2299
19217TIP3    H279067   1.215   3.706  15.234  0.8556 -0.0549 -0.4083
19218TIP3   OH279068   0.091   2.895  13.806 -0.4902  0.7703  0.0897
19218TIP3    H179069   0.176   2.857  13.783 -0.5878  0.5532  0.0834
19218TIP3    H279070   0.097   2.986  13.776 -0.6553  0.4706 -0.9032
19219TIP3   OH279071   1.236   4.359   0.147  0.4411  0.2648 -0.0400
19219TIP3    H179072   1.322   4.395   0.125  0.5810  0.0874  0.2136
19219TIP3    H279073   1.244   4.265   0.132 -0.2538  0.4531 -1.7573
19220TIP3   OH279074   3.770   1.727   3.650 -0.4144 -0.3368  0.1111
19220TIP3    H179075   3.681   1.745   3.618  0.8951  0.4130 -3.5786
19220TIP3    H279076   3.792   1.804   3.702 -1.0972  0.6461 -0.9877
19221TIP3   OH279077   2.142   4.908  14.099 -0.1844  0.7736  0.3146
19221TIP3    H179078   2.164   4.844  14.031 -0.4979 -0.8306  1.6499
19221TIP3    H279079   2.227   4.931  14.138  0.1455  2.6073 -1.2928
19222TIP3   OH279080   0.815   5.837  14.712  0.2694 -0.0703  0.5551
19222TIP3    H179081   0.876   5.765  14.730  0.2705  0.4439  2.9203
19222TIP3    H279082   0.740   5.820  14.769 -0.1057  1.3717  0.5389
19223TIP3   OH279083   3.317   3.458  13.149 -0.3029 -0.2070  0.2834
19223TIP3    H179084   3.329   3.524  13.217 -0.0855 -1.4696  1.5329
19223TIP3    H279085   3.263   3.390  13.190  1.2507 -1.8147 -0.1993
19224TIP3   OH279086   6.736   2.531   1.552  0.5024 -0.0479 -0.0105
19224TIP3    H179087   6.740   2.572   1.638  1.4468  1.1996 -0.6053
19224TIP3    H279088   6.712   2.603   1.493  1.3759 -0.5317 -0.9847
19225TIP3   OH279089   4.407   6.434   1.483  0.1297 -0.1201  1.0320
19225TIP3    H179090   4.354   6.486   1.543 -2.3102 -2.3547  0.9969
19225TIP3    H279091   4.413   6.348   1.525  1.3195 -0.7465 -0.3463
19226TIP3   OH279092   5.610   6.205  14.120  0.6997 -0.3041 -0.1211
19226TIP3    H179093   5.681   6.257  14.158  2.2035 -2.6805  0.5659
19226TIP3    H279094   5.640   6.114  14.127 -2.4788 -1.4635  0.3222
19227TIP3   OH279095   1.960   1.788   4.587 -0.4655 -0.2741 -0.0848
19227TIP3    H179096   1.892   1.852   4.607  0.1900  0.5285 -0.3834
19227TIP3    H279097   2.042   1.837   4.593  0.0033 -0.9100 -1.0077
19228TIP3   OH279098   0.992   6.574   2.141  0.2601 -0.2335  0.1175
19228TIP3    H179099   1.032   6.497   2.101 -0.5590 -1.8990  2.2896
19228TIP3    H279100   1.039   6.584   2.224 -0.4633  0.8931  0.4035
19229TIP3   OH279101   5.495   2.640   1.693  0.1084 -0.9270 -0.0235
19229TIP3    H179102   5.503   2.549   1.667  0.9986 -1.5239  2.1464
19229TIP3    H279103   5.456   2.637   1.780 -2.7819  0.9588 -1.1226
19230TIP3   OH279104   2.660   6.323  14.630  0.0743  0.1879 -0.2910
19230TIP3    H179105   2.667   6.417  14.642 -1.2537  0.0493  2.1493
19230TIP3    H279106   2.570   6.308  14.601  0.8080 -0.2486 -2.5693
19231TIP3   OH279107   0.686   4.009   4.777 -0.2206 -0.9111  0.1687
19231TIP3    H179108   0.715   3.973   4.861 -1.7472 -2.0008  0.2843
19231TIP3    H279109   0.728   3.955   4.711  3.0614  1.5256  0.0318
19232TIP3   OH279110   0.984   4.427   5.173 -0.5112 -0.0231 -0.9036
19232TIP3    H179111   1.063   4.391   5.214 -1.2358 -0.7269 -0.0901
19232TIP3    H279112   0.995   4.409   5.080 -0.2685 -1.2115 -0.6549
19233TIP3   OH279113   0.798   2.236  16.452 -0.4085 -0.6024 -0.0878
19233TIP3    H179114   0.717   2.272  16.418 -0.8906 -1.5113  0.0575
19233TIP3    H279115   0.866   2.294  16.419 -1.0042 -0.5279 -1.2419
19234TIP3   OH279116   5.974   5.629  15.569 -0.5906  0.2960 -0.3056
19234TIP3    H179117   6.065   5.620  15.543 -1.4240 -2.2084 -2.9797
19234TIP3    H279118   5.937   5.692  15.507 -0.9651  0.1615 -0.2258
19235TIP3   OH279119   2.981   0.498  16.807 -0.3092 -0.0254  0.4566
19235TIP3    H179120   2.940   0.513  16.722  2.1835 -0.3639 -0.8998
19235TIP3    H279121   2.977   0.403  16.819 -1.9986  0.1317  1.5077
19236TIP3   OH279122   1.826   0.254  12.945 -0.0510 -0.1116  0.4021
19236TIP3    H179123   1.832   0.165  12.912 -0.1162 -0.1333  0.4489
19236TIP3    H279124   1.758   0.295  12.890  0.6997  0.2102 -0.3076
19237TIP3   OH279125   3.448   0.944   6.535 -0.3470  0.6684 -0.1690
19237TIP3    H179126   3.384   0.884   6.496 -0.5577  0.2758  0.7548
19237TIP3    H279127   3.528   0.930   6.484 -0.7367  0.5025 -0.7484
19238TIP3   OH279128   3.989   4.075   6.663  0.2059 -0.3510  0.3880
19238TIP3    H179129   3.908   4.054   6.708  0.4966  1.0453  1.6730
19238TIP3    H279130   3.964   4.139   6.596  0.2367  0.1986  0.8870
19239TIP3   OH279131   2.292   0.697   6.132  0.3630  0.1713  0.2468
19239TIP3    H179132   2.381   0.694   6.168  0.4345  1.4063  0.2094
19239TIP3    H279133   2.235   0.706   6.208  0.0626 -2.7286  0.4584
19240TIP3   OH279134   1.083   3.935  12.953  0.5560  0.0235  0.0680
19240TIP3    H179135   1.042   3.852  12.931 -0.4227  0.1364  1.3556
19240TIP3    H279136   1.011   3.990  12.984  1.4774  0.6407  1.1969
19241TIP3   OH279137   5.677   3.379  14.087  0.6589  0.2609  0.3922
19241TIP3    H179138   5.730   3.449  14.050 -0.4641 -0.3623 -2.7000
19241TIP3    H279139   5.683   3.307  14.023 -1.0031 -1.1498  1.7070
19242TIP3   OH279140   0.586   0.021   5.490 -0.5356  0.1700  0.6510
19242TIP3    H179141   0.527   0.049   5.559  0.1100  1.7491  0.6076
19242TIP3    H279142   0.601  -0.072   5.507  0.3317  0.6968  3.1935
19243TIP3   OH279143   2.701   0.079  14.859 -0.3819 -0.3246  0.2606
19243TIP3    H179144   2.687   0.132  14.781  1.6389  1.3524  0.9272
19243TIP3    H279145   2.697   0.142  14.932  1.9297 -1.0329  1.0933
19244TIP3   OH279146   2.671   0.035   0.179 -0.3495 -0.1334  0.1347
19244TIP3    H179147   2.675  -0.042   0.124  3.0369 -0.9280  1.2557
19244TIP3    H279148   2.690   0.108   0.120 -0.5270 -0.5237 -0.4101
19245TIP3   OH279149   1.312   4.538  14.638 -0.2112  0.1360  0.0415
19245TIP3    H179150   1.399   4.504  14.657  0.0275  0.6033 -0.2117
19245TIP3    H279151   1.300   4.609  14.701  0.4374  1.4532 -1.2662
19246TIP3   OH279152   4.433   1.811   5.917  0.5074  0.5017 -0.5275
19246TIP3    H179153   4.424   1.817   6.012 -3.2759  0.9892 -0.7458
19246TIP3    H279154   4.514   1.857   5.897  1.2649  0.6475  2.4026
19247TIP3   OH279155   5.915   1.393  11.844  0.0904 -0.3125 -0.0944
19247TIP3    H179156   5.936   1.467  11.786  1.3951 -0.4924  0.1068
19247TIP3    H279157   5.959   1.415  11.926 -0.2084 -0.9237  0.2337
19248TIP3   OH279158   3.550   2.757  16.743 -0.5309 -0.7622 -0.7442
19248TIP3    H179159   3.621   2.744  16.680 -1.4159 -1.4866 -1.6263
19248TIP3    H279160   3.472   2.723  16.699 -1.5339  0.4928 -0.0079
19249TIP3   OH279161   1.238   0.242  15.662  0.2680 -0.3350  0.0306
19249TIP3    H179162   1.172   0.234  15.731 -0.1820 -2.2907 -0.5613
19249TIP3    H279163   1.227   0.162  15.609  1.7387  0.2906 -1.2908
19250TIP3   OH279164   1.581   0.394   2.401 -0.3639  0.4609 -0.5523
19250TIP3    H179165   1.610   0.401   2.492 -2.3342 -1.8839  0.3725
19250TIP3    H279166   1.630   0.320   2.366 -1.7557 -0.5910 -0.3817
19251TIP3   OH279167   1.158   0.154  16.299  0.2364 -0.5901 -0.0748
19251TIP3    H179168   1.114   0.227  16.341  0.6769 -0.7842  0.7369
19251TIP3    H279169   1.229   0.194  16.248 -1.1124 -0.2269 -1.7868
19252TIP3   OH279170   1.985   0.447   0.145  0.9524  0.5472  0.0276
19252TIP3    H179171   1.995   0.538   0.116  1.2363  1.1328  1.8721
19252TIP3    H279172   2.060   0.432   0.202  0.0597 -0.3295  1.0028
19253TIP3   OH279173   2.099   0.097  15.572  0.5916 -0.2668  0.2980
19253TIP3    H179174   2.068   0.049  15.495 -0.4064 -1.1077  1.1887
19253TIP3    H279175   2.041   0.174  15.576  1.7295  0.6926 -0.7172
19254TIP3   OH279176   2.870   0.512   3.729  0.1510  0.4737 -0.2334
19254TIP3    H179177   2.809   0.498   3.802 -2.0519 -1.6064 -2.2899
19254TIP3    H279178   2.936   0.443   3.740 -0.2235  0.1091 -0.2523
19255TIP3   OH279179   3.533   0.002   6.742  0.7907 -0.6828 -0.2273
19255TIP3    H179180   3.542  -0.083   6.784  0.8178 -1.4851 -1.7810
19255TIP3    H279181   3.621   0.039   6.744  0.4765  0.1078  1.9575
19256TIP3   OH279182   1.807   5.293   4.573  0.2300 -1.0212  0.0991
19256TIP3    H179183   1.842   5.209   4.545  0.0765 -0.8403 -0.6744
19256TIP3    H279184   1.726   5.271   4.619  0.1348 -1.2935 -0.1923
19257TIP3   OH279185   1.444   1.477  15.855 -0.0042 -0.2657  0.3259
19257TIP3    H179186   1.465   1.419  15.928  0.1900 -0.4707  0.1090
19257TIP3    H279187   1.522   1.475  15.800 -0.7859 -1.5154 -0.8061
19258TIP3   OH279188   2.917   3.107  11.706  0.3746 -0.4370  0.5055
19258TIP3    H179189   2.922   3.021  11.747 -0.9841 -0.3660  0.8670
19258TIP3    H279190   2.894   3.090  11.615  0.0275 -0.4557  0.5960
19259TIP3   OH279191   4.205   3.023   4.666  0.8664  0.0524 -0.2190
19259TIP3    H179192   4.215   3.080   4.589  0.4477 -1.6752 -1.6122
19259TIP3    H279193   4.281   3.044   4.721  0.3170  2.4813 -0.2769
19260TIP3   OH279194   0.558   3.005  13.567 -0.1208 -0.1699 -0.0974
19260TIP3    H179195   0.646   3.011  13.530 -0.3406  2.3563 -0.3835
19260TIP3    H279196   0.573   2.992  13.661  0.5761  0.6306 -0.0887
19261TIP3   OH279197   3.324   1.070  14.477 -0.8849  0.1262 -0.2990
19261TIP3    H179198   3.308   1.030  14.563  2.8859 -1.4414 -0.1137
19261TIP3    H279199   3.389   1.139  14.495 -1.3652  0.9847 -1.6982
19262TIP3   OH279200   6.428   4.272  15.125 -0.1436  0.6034  0.5728
19262TIP3    H179201   6.446   4.302  15.036  0.1945  0.5385  0.6201
19262TIP3    H279202   6.437   4.177  15.121 -0.6728  0.5538  0.5508
19263TIP3   OH279203   6.445   3.951  12.721 -0.3308 -0.0394 -0.2338
19263TIP3    H179204   6.536   3.920  12.729 -0.3514 -0.1527 -0.4352
19263TIP3    H279205   6.406   3.930  12.806 -0.3239 -0.5071 -0.3424
19264TIP3   OH279206   2.412   3.517  14.470 -0.3511 -0.2856 -0.2939
19264TIP3    H179207   2.328   3.562  14.458 -0.1180 -0.2417 -1.9785
19264TIP3    H279208   2.459   3.570  14.534 -1.6238 -0.3593  0.7459
19265TIP3   OH279209   5.827   1.723  11.490  0.3707 -0.5957 -0.2860
19265TIP3    H179210   5.881   1.651  11.459  0.4783  0.1440 -1.9220
19265TIP3    H279211   5.789   1.761  11.411 -0.1524  0.7736  0.5726
19266TIP3   OH279212   6.018   0.715  16.366  0.1141 -0.0074  0.5963
19266TIP3    H179213   5.966   0.734  16.288 -0.7470 -0.6532  1.0038
19266TIP3    H279214   6.109   0.722  16.336 -0.1752  1.6977  0.0026
19267TIP3   OH279215   2.231   5.926  11.678 -0.5942 -0.1649 -0.2695
19267TIP3    H179216   2.210   5.916  11.771  1.1919 -0.3649  0.1580
19267TIP3    H279217   2.245   6.020  11.666 -3.1008  0.1825 -0.9149
19268TIP3   OH279218   4.404   4.259  11.912  0.0353 -0.3561  0.4781
19268TIP3    H179219   4.494   4.271  11.941 -0.1480 -1.0094  1.3658
19268TIP3    H279220   4.404   4.287  11.821  1.1034 -0.2259  0.5070
19269TIP3   OH279221   0.572   2.184   1.018  0.0268  0.1249  0.0135
19269TIP3    H179222   0.619   2.254   1.064 -0.0932  0.1969  0.0248
19269TIP3    H279223   0.633   2.111   1.019  0.1484  0.2254  0.0121
19270TIP3   OH279224   3.902   4.477  16.759 -0.0311 -0.1524  0.3272
19270TIP3    H179225   3.978   4.534  16.772 -0.5564  0.4612  0.8295
19270TIP3    H279226   3.932   4.408  16.701  0.5739  0.7702 -0.4819
19271TIP3   OH279227   0.674   0.787  11.540 -0.4454  0.2762 -0.1648
19271TIP3    H179228   0.699   0.791  11.632  1.3741 -1.6713 -0.4678
19271TIP3    H279229   0.708   0.868  11.502  3.8379 -1.2202 -0.0664
19272TIP3   OH279230   5.353   1.115  13.830  0.4484  0.8108  0.2988
19272TIP3    H179231   5.397   1.182  13.882 -0.7140  2.1486 -0.3902
19272TIP3    H279232   5.301   1.163  13.766 -1.0104 -0.7187  0.2492
19273TIP3   OH279233   4.800   0.602   3.424  0.2319  0.0864  0.1892
19273TIP3    H179234   4.808   0.550   3.344  0.6788 -0.6717  0.7199
19273TIP3    H279235   4.706   0.611   3.437 -0.2008  4.7418 -3.3015
19274TIP3   OH279236   4.140   0.710   6.672  0.2085 -0.2501 -0.2135
19274TIP3    H179237   4.059   0.755   6.695  0.1211 -0.4111 -0.2051
19274TIP3    H279238   4.112   0.622   6.647  0.1581  0.2722 -2.1190
19275TIP3   OH279239   3.688   6.193  15.021  0.0012  0.5695 -0.3928
19275TIP3    H179240   3.689   6.224  14.930 -0.4665  0.2719 -0.4995
19275TIP3    H279241   3.695   6.098  15.014  0.3735  0.5736 -0.0998
19276TIP3   OH279242   0.377   4.007  14.900  0.0641  0.1210  0.0776
19276TIP3    H179243   0.363   3.953  14.822  1.2165  0.2590 -0.2486
19276TIP3    H279244   0.460   4.051  14.883  0.1651  0.4053  1.2540
19277TIP3   OH279245   3.006   3.178   3.521 -0.4599  0.1894 -0.1340
19277TIP3    H179246   3.025   3.223   3.439  1.2833  0.8573  0.5960
19277TIP3    H279247   3.021   3.085   3.501 -1.8776  0.1264 -1.0371
19278TIP3   OH279248   1.612   1.110  16.549  0.7714 -0.1704 -0.5444
19278TIP3    H179249   1.525   1.144  16.572  1.3809  2.2374 -1.5999
19278TIP3    H279250   1.593   1.027  16.504 -1.0943  0.9829 -2.0375
19279TIP3   OH279251   1.184   0.564   4.097  0.2995 -0.4672 -0.4610
19279TIP3    H179252   1.143   0.649   4.080 -0.1197 -0.5796 -0.0422
19279TIP3    H279253   1.194   0.524   4.011 -1.3235 -0.8254 -0.5266
19280TIP3   OH279254   5.410   4.468  15.125  0.2777  0.3083  0.6382
19280TIP3    H179255   5.467   4.428  15.190  0.1067 -0.6435  0.2102
19280TIP3    H279256   5.322   4.456  15.160 -0.1782 -3.4830 -1.3856
19281TIP3   OH279257   4.775   2.149   4.606 -0.1714 -0.0105  0.5920
19281TIP3    H179258   4.736   2.072   4.563 -0.5042  0.4415  0.0771
19281TIP3    H279259   4.854   2.115   4.647 -0.5347 -0.7191  0.7241
19282TIP3   OH279260   3.475   6.453  14.867 -0.0300  0.1739  0.4515
19282TIP3    H179261   3.394   6.503  14.857  0.7095  1.1903 -0.6834
19282TIP3    H279262   3.530   6.508  14.923  0.0858 -0.2708  0.7801
19283TIP3   OH279263   0.432   5.375  11.203 -0.4150  0.0675  0.0083
19283TIP3    H179264   0.375   5.449  11.225  1.6686  2.0274 -0.6867
19283TIP3    H279265   0.485   5.408  11.130  1.8010 -1.4609  0.8208
19284TIP3   OH279266   0.055   6.022   5.598 -0.5697 -0.1824 -0.3022
19284TIP3    H179267  -0.009   6.094   5.592 -1.2819 -0.8264 -0.6705
19284TIP3    H279268   0.001   5.944   5.608  0.2522 -0.4637  2.6415
19285TIP3   OH279269   3.892   0.985  17.132  0.0838  0.3952 -0.0460
19285TIP3    H179270   3.933   0.914  17.182 -0.1788 -0.5268 -1.1027
19285TIP3    H279271   3.952   1.059  17.143 -0.2506  0.4293  2.0824
19286TIP3   OH279272   4.073   6.093  16.249 -0.7280  0.2662 -0.4164
19286TIP3    H179273   4.037   6.180  16.266  0.4524  1.1090 -1.8968
19286TIP3    H279274   4.113   6.067  16.332  1.7877  2.6474 -0.7037
19287TIP3   OH279275   2.104   6.737  14.861  0.0735  0.0323  0.1912
19287TIP3    H179276   2.077   6.827  14.874 -1.1577 -0.5963  2.6324
19287TIP3    H279277   2.190   6.743  14.819  0.3581  2.3282  0.9846
19288TIP3   OH279278   0.857   3.509  11.531 -0.5927 -0.3115 -0.2994
19288TIP3    H179279   0.766   3.538  11.537 -0.5585 -0.4703  1.1866
19288TIP3    H279280   0.893   3.561  11.459 -1.9334 -0.4923 -1.1427
19289TIP3   OH279281   1.512   4.450   5.826 -0.6202 -0.2914  0.0781
19289TIP3    H179282   1.601   4.465   5.860  0.0957 -0.9468 -1.3946
19289TIP3    H279283   1.502   4.354   5.828 -2.1659 -0.1455  2.2407
19290TIP3   OH279284   0.624   4.759  13.483  0.3686 -0.0994 -0.1995
19290TIP3    H179285   0.591   4.833  13.534  2.6607 -0.4869  2.0281
19290TIP3    H279286   0.548   4.702  13.472 -1.7958  2.9137 -2.9770
19291TIP3   OH279287   5.983   2.940   3.230  0.3545  0.0485 -0.8137
19291TIP3    H179288   6.037   3.018   3.238 -0.0137  0.1904  0.4221
19291TIP3    H279289   5.925   2.958   3.156 -0.7849  1.6206  0.3874
19292TIP3   OH279290   0.915   1.572  11.959 -0.2309  1.0181  0.2330
19292TIP3    H179291   0.894   1.547  11.869  0.1156 -0.8205  0.6204
19292TIP3    H279292   0.831   1.570  12.005 -0.0617 -0.7327  0.5242
19293TIP3   OH279293   5.157   3.163   1.219  0.6541 -0.2149 -0.5218
19293TIP3    H179294   5.199   3.080   1.243 -0.3905 -1.0491 -1.5007
19293TIP3    H279295   5.214   3.199   1.150  1.4328  0.1934  0.3166
19294TIP3   OH279296   0.095   2.861  13.084  0.0973 -0.1266  0.0791
19294TIP3    H179297   0.150   2.789  13.116  0.1825  0.2797  0.8772
19294TIP3    H279298   0.154   2.912  13.028  0.2426 -0.2669  0.1014
19295TIP3   OH279299   4.856   2.297   3.620  0.4028  0.3022  0.0580
19295TIP3    H179300   4.898   2.291   3.534 -1.2361 -0.7001 -0.7183
19295TIP3    H279301   4.881   2.383   3.653  1.1166  0.6743 -1.3906
19296TIP3   OH279302   2.673   1.661  11.775  0.0432  0.0535  1.0562
19296TIP3    H179303   2.748   1.618  11.814 -0.3844 -1.1705  0.5537
19296TIP3    H279304   2.608   1.592  11.764 -0.3753  0.6626 -0.4795
19297TIP3   OH279305   5.616   3.804  11.994  0.1723 -1.0966 -0.3068
19297TIP3    H179306   5.662   3.770  11.917 -0.2838  0.8073 -1.5186
19297TIP3    H279307   5.603   3.897  11.974 -0.9520 -0.7856  1.6125
19298TIP3   OH279308   2.974   4.785  15.960  0.4702 -0.3937 -0.1867
19298TIP3    H179309   3.056   4.783  15.911  0.6655  0.3149  0.0900
19298TIP3    H279310   2.954   4.694  15.979  1.0780 -0.5856 -0.4571
19299TIP3   OH279311   5.105   3.523   0.094 -0.4199 -0.1920 -0.1000
19299TIP3    H179312   5.182   3.466   0.097 -0.6301 -0.5677 -1.2874
19299TIP3    H279313   5.030   3.464   0.102 -0.6109  0.0670  0.0577
19300TIP3   OH279314   5.296   2.273  14.971 -0.0392  0.1498  0.0965
19300TIP3    H179315   5.358   2.228  15.029  0.6159 -0.0646 -0.7493
19300TIP3    H279316   5.265   2.347  15.023 -1.4964 -1.4791  1.6983
19301TIP3   OH279317   5.478   3.995  15.947  0.2672  0.6569  0.1486
19301TIP3    H179318   5.514   3.927  15.890  0.8503  0.8167  0.3199
19301TIP3    H279319   5.388   4.007  15.916 -0.0981 -0.7271  0.5891
19302TIP3   OH279320   0.904   1.384   2.654 -0.0595 -0.6984 -0.1919
19302TIP3    H179321   0.922   1.340   2.736 -2.9106 -1.5935  0.0738
19302TIP3    H279322   0.852   1.461   2.679 -0.6726 -0.7990 -1.1169
19303TIP3   OH279323   0.773   5.011  14.150  0.4335  0.2018  0.0044
19303TIP3    H179324   0.826   5.025  14.071  0.3882 -0.4001 -0.1329
19303TIP3    H279325   0.807   5.075  14.213 -0.6546  1.8936 -1.0388
19304TIP3   OH279326   5.466   5.995  12.843 -0.1182 -0.2693 -0.3596
19304TIP3    H179327   5.447   6.024  12.754  0.7538  1.7811  0.0719
19304TIP3    H279328   5.380   5.972  12.879 -0.4370 -1.5801 -1.8276
19305TIP3   OH279329   3.424   6.221  11.493  0.5759 -0.2536 -0.1977
19305TIP3    H179330   3.506   6.268  11.478  0.6409 -0.4589 -0.4942
19305TIP3    H279331   3.368   6.284  11.539  1.1300 -0.3275  0.6115
19306TIP3   OH279332   6.472   0.412  13.895 -0.3365  0.0225  0.2193
19306TIP3    H179333   6.480   0.331  13.844 -1.3390 -0.8159  1.3295
19306TIP3    H279334   6.450   0.479  13.830 -3.3032 -1.3301 -0.3226
19307TIP3   OH279335   6.385   6.220  13.543  0.1249  0.2666 -0.0492
19307TIP3    H179336   6.349   6.303  13.513 -1.0381 -0.9601 -2.3377
19307TIP3    H279337   6.319   6.155  13.520  1.9722 -1.5882 -0.5198
19308TIP3   OH279338   1.480   4.766  12.814 -0.0327  0.2432 -0.1251
19308TIP3    H179339   1.490   4.753  12.719 -0.2560  0.1801 -0.1422
19308TIP3    H279340   1.538   4.838  12.835  0.1306  0.1599 -0.2864
19309TIP3   OH279341   4.647   1.420  12.726  0.1364  0.4383 -0.6183
19309TIP3    H179342   4.634   1.499  12.778  0.7040  1.5458 -2.0995
19309TIP3    H279343   4.576   1.421  12.662  0.5817  0.1367 -1.1244
19310TIP3   OH279344   2.794   6.037  12.591 -0.1485  0.3690 -0.0768
19310TIP3    H179345   2.774   6.006  12.679  0.7766  0.4164  0.1594
19310TIP3    H279346   2.887   6.061  12.594 -0.2206  0.8067 -0.9379
19311TIP3   OH279347   2.273   0.236   2.698  0.3421 -0.2017 -0.0158
19311TIP3    H179348   2.198   0.284   2.731 -1.8168 -3.2590 -0.0332
19311TIP3    H279349   2.344   0.256   2.759 -0.3864  2.8304 -0.0322
19312TIP3   OH279350   0.080   0.881   2.069  0.3724  0.0200  0.0007
19312TIP3    H179351   0.101   0.814   2.134 -0.3027  0.2938  0.5124
19312TIP3    H279352   0.165   0.920   2.047  0.5550  0.3833  1.2316
19313TIP3   OH279353   3.607   3.758   4.298 -0.0768  0.3664  0.0726
19313TIP3    H179354   3.629   3.851   4.303  0.3099  0.3103 -0.4696
19313TIP3    H279355   3.524   3.755   4.250  0.4267  0.3783 -0.8282
19314TIP3   OH279356   4.433   4.066   3.253 -0.2448 -0.5456 -0.3066
19314TIP3    H179357   4.465   4.154   3.273  0.8730 -1.5794  3.2555
19314TIP3    H279358   4.338   4.071   3.267 -0.5878  0.5777 -2.6059
19315TIP3   OH279359   0.371   5.483   5.315  0.1065 -0.7010 -0.8800
19315TIP3    H179360   0.312   5.410   5.295  0.3951 -2.1181  2.5668
19315TIP3    H279361   0.451   5.463   5.267 -0.4546 -1.6555 -1.4599
19316TIP3   OH279362   2.882   5.830   4.864 -0.0292 -0.1786  0.6623
19316TIP3    H179363   2.926   5.912   4.888 -0.6159  0.0179  1.0944
19316TIP3    H279364   2.867   5.839   4.770 -1.6077  0.9765  0.9837
19317TIP3   OH279365   3.481   2.344  16.024  0.2850  0.0207  0.0585
19317TIP3    H179366   3.427   2.265  16.024  0.1607  0.0893 -0.9888
19317TIP3    H279367   3.540   2.333  16.098 -0.7450 -0.3507  0.8483
19318TIP3   OH279368   5.710   0.964  12.991  0.1323 -0.8336  0.5066
19318TIP3    H179369   5.685   1.030  13.057  0.6593 -1.5691  1.4635
19318TIP3    H279370   5.789   0.999  12.951 -0.3117 -0.2780  0.1068
19319TIP3   OH279371   3.696   2.406  14.952  0.6906 -0.3644  0.8485
19319TIP3    H179372   3.606   2.414  14.921  0.0451 -2.3786  2.0169
19319TIP3    H279373   3.749   2.401  14.872  0.1458  3.3277  0.0843
19320TIP3   OH279374   2.546   6.468  12.204  0.2182 -0.3064 -0.1635
19320TIP3    H179375   2.459   6.475  12.165  1.0250  0.6777 -1.8702
19320TIP3    H279376   2.549   6.538  12.269 -0.9437 -1.6154  1.3718
19321TIP3   OH279377   0.596   5.972   4.116  0.7479  0.4337 -0.3760
19321TIP3    H179378   0.529   6.035   4.090 -0.8682 -0.8578  0.5487
19321TIP3    H279379   0.632   5.940   4.033 -2.3410 -1.5233 -1.0940
19322TIP3   OH279380   1.082   6.033   3.958  0.3337 -0.6066 -0.8018
19322TIP3    H179381   1.024   5.959   3.977 -0.9019  0.2825 -0.9938
19322TIP3    H279382   1.035   6.110   3.991  1.2707  0.1805 -1.2360
19323TIP3   OH279383   0.528   5.094  11.383  0.1392  0.2615  0.4161
19323TIP3    H179384   0.456   5.113  11.443  0.4013 -0.8716  1.1159
19323TIP3    H279385   0.596   5.055  11.438  0.7770  0.1012 -0.4562
19324TIP3   OH279386   6.000   0.306  11.257  0.6369  0.4364 -0.4548
19324TIP3    H179387   6.056   0.383  11.257  0.1009  0.8923 -2.5572
19324TIP3    H279388   5.921   0.333  11.210 -0.1845 -0.9773  0.0392
19325TIP3   OH279389   3.374   3.076   1.026  0.1141 -0.3581  0.3946
19325TIP3    H179390   3.466   3.071   0.997  0.3218 -1.1435  1.1387
19325TIP3    H279391   3.341   3.157   0.986  1.1861  0.0455  0.2754
19326TIP3   OH279392   3.165   0.336  15.656  0.6535  0.0009  0.2543
19326TIP3    H179393   3.100   0.267  15.663  0.3008  0.3822  0.8443
19326TIP3    H279394   3.116   0.417  15.673  1.1218  0.3656 -0.0966
19327TIP3   OH279395   3.511   5.008   1.743 -0.4269  0.1742  0.3855
19327TIP3    H179396   3.587   4.954   1.764 -0.9086 -0.3317  0.8504
19327TIP3    H279397   3.480   4.974   1.659  0.7889  1.4208 -0.6238
19328TIP3   OH279398   0.616   5.510   5.138 -0.0052  0.2029  0.1579
19328TIP3    H179399   0.581   5.428   5.103  0.9449 -0.4639  0.7289
19328TIP3    H279400   0.610   5.572   5.065  0.3472 -0.6906 -0.6435
19329TIP3   OH279401   6.469   5.020  14.590  0.1535 -0.1029 -0.2576
19329TIP3    H179402   6.440   4.946  14.644 -0.4103  0.5240  0.3229
19329TIP3    H279403   6.531   4.982  14.528  0.5694 -0.9133  0.6234
19330TIP3   OH279404   1.597   3.356  12.331  0.0223 -0.1137 -0.5822
19330TIP3    H179405   1.681   3.322  12.361 -0.9408 -1.2622  0.9642
19330TIP3    H279406   1.594   3.446  12.365 -0.0259 -0.5911  0.6905
19331TIP3   OH279407   6.482   1.560  11.373  0.1685 -0.2109  0.1828
19331TIP3    H179408   6.480   1.506  11.452 -0.1244  1.7508  1.6032
19331TIP3    H279409   6.574   1.582  11.360  0.1297  0.1513  0.4962
19332TIP3   OH279410   0.651   6.213  14.276 -0.2336 -0.0425  0.1965
19332TIP3    H179411   0.747   6.221  14.275 -0.2617  0.3424 -0.9639
19332TIP3    H279412   0.633   6.143  14.214 -0.7242  0.0272  0.2624
19333TIP3   OH279413   5.631   2.174  15.855 -0.1178 -0.0722  0.4151
19333TIP3    H179414   5.563   2.163  15.789  0.3146 -0.5902  0.0380
19333TIP3    H279415   5.713   2.177  15.804  0.1623  0.2118  0.8805
19334TIP3   OH279416   1.462   0.898  15.535  0.1423 -0.0248 -0.9740
19334TIP3    H179417   1.476   0.809  15.565 -0.4234 -0.4217 -1.8349
19334TIP3    H279418   1.428   0.944  15.612 -1.5828 -1.0962 -1.0274
19335TIP3   OH279419   2.098   3.164   2.124  0.0284  0.6004  0.3903
19335TIP3    H179420   2.040   3.142   2.197  0.1327 -0.0370  0.2878
19335TIP3    H279421   2.100   3.259   2.123 -0.2490  0.6189  1.0054
19336TIP3   OH279422   1.757   5.650   2.252  0.0379 -0.2295 -0.0400
19336TIP3    H179423   1.803   5.567   2.240  0.4045 -0.2147  1.1060
19336TIP3    H279424   1.747   5.659   2.347 -0.4730  0.7807 -0.1687
19337TIP3   OH279425   1.122   0.294  14.596  0.1344  0.0603 -0.2847
19337TIP3    H179426   1.194   0.304  14.533  1.0752 -1.7487  0.4334
19337TIP3    H279427   1.139   0.211  14.640 -1.3923  0.4790  1.2405
19338TIP3   OH279428   2.205   0.927   6.793  0.0386 -0.1736  0.7749
19338TIP3    H179429   2.178   0.872   6.720 -0.1788 -3.1404  2.9128
19338TIP3    H279430   2.139   0.996   6.796 -1.8931 -1.8685  0.1440
19339TIP3   OH279431   0.120   4.268  15.890  0.9260 -0.5040 -0.1849
19339TIP3    H179432   0.195   4.266  15.950 -0.2641 -0.1512  1.3770
19339TIP3    H279433   0.055   4.323  15.934  0.4364  0.7828 -2.3735
19340TIP3   OH279434   6.332   3.739  12.958 -0.6158  0.1742  0.6101
19340TIP3    H179435   6.397   3.691  12.908 -1.6737 -0.0631 -0.5863
19340TIP3    H279436   6.308   3.681  13.030 -1.4417 -0.8972 -0.4790
19341TIP3   OH279437   2.776   1.067   0.064  0.3232 -0.1444  0.4524
19341TIP3    H179438   2.766   1.020  -0.019 -0.8410  1.0571 -0.1374
19341TIP3    H279439   2.836   1.013   0.115  1.1639 -0.8747 -1.2094
19342TIP3   OH279440   6.667   5.490   2.716  0.3511 -0.3044 -0.0934
19342TIP3    H179441   6.659   5.432   2.640  1.2186  0.2623 -0.6401
19342TIP3    H279442   6.614   5.449   2.784 -1.3471 -0.2821 -1.3353
19343TIP3   OH279443   3.048   5.733  14.621 -0.4436 -0.2694  0.3078
19343TIP3    H179444   3.129   5.770  14.656 -0.1271  0.0303 -0.6921
19343TIP3    H279445   3.076   5.658  14.569 -0.8536 -0.4455  0.3378
19344TIP3   OH279446   0.694   4.629  14.648 -0.0202  0.0801  0.2621
19344TIP3    H179447   0.777   4.673  14.665 -0.3033  0.9133 -0.4375
19344TIP3    H279448   0.677   4.578  14.727  2.1770 -1.7778 -0.3547
19345TIP3   OH279449   0.340   2.058   2.531 -0.0895 -0.3932 -0.5723
19345TIP3    H179450   0.355   2.136   2.478 -2.1688 -0.0259 -0.7427
19345TIP3    H279451   0.294   1.998   2.473 -1.2077 -0.5180  0.3959
19346TIP3   OH279452   3.455   0.503   0.647  0.3584 -0.6365  0.5231
19346TIP3    H179453   3.524   0.437   0.650  0.0383 -0.9256  1.9207
19346TIP3    H279454   3.500   0.583   0.619  1.8287 -0.2103  3.6960
19347TIP3   OH279455   0.221   1.484   2.746 -0.2418 -0.4081 -0.0798
19347TIP3    H179456   0.316   1.487   2.733 -0.3706 -1.0052 -1.2743
19347TIP3    H279457   0.208   1.515   2.835  1.0303  0.2749 -0.1159
19348TIP3   OH279458   3.915   4.598  11.318 -0.8455  0.7679 -0.4897
19348TIP3    H179459   3.938   4.620  11.228  0.1017 -3.0236 -1.3444
19348TIP3    H279460   3.963   4.661  11.372  1.2278  1.0914 -2.5765
19349TIP3   OH279461   6.023   5.014   1.608 -0.3652  0.3486 -0.1521
19349TIP3    H179462   6.017   5.006   1.513 -0.7299 -0.8758 -0.0373
19349TIP3    H279463   5.976   5.095   1.628  0.1530  0.8885 -1.0490
19350TIP3   OH279464   3.900   1.110  13.339  0.0842  0.3521  0.4579
19350TIP3    H179465   3.933   1.032  13.384 -0.7769 -0.4814 -0.2876
19350TIP3    H279466   3.965   1.178  13.356  0.9757 -0.5951  0.9303
19351TIP3   OH279467   5.657   2.353  16.066 -0.3880  0.4301 -0.3068
19351TIP3    H179468   5.638   2.282  16.128 -1.5142  1.7205  0.8882
19351TIP3    H279469   5.666   2.309  15.981 -1.9944 -1.0611  0.2461
19352TIP3   OH279470   6.023   6.237   3.032  0.1159  0.4073 -0.3553
19352TIP3    H179471   5.981   6.294   2.967 -1.9899 -0.8590 -0.1822
19352TIP3    H279472   5.953   6.213   3.092  0.7212 -2.9150 -0.8213
19353TIP3   OH279473   4.330   3.183   5.619  0.4404  0.0962  0.1925
19353TIP3    H179474   4.266   3.215   5.683  0.2471  0.7617 -0.3275
19353TIP3    H279475   4.353   3.095   5.650 -0.6927 -0.1350  0.4077
19354TIP3   OH279476   5.533   3.030  13.141  0.2125  0.6669  0.3559
19354TIP3    H179477   5.460   3.045  13.201 -1.7792  0.5640 -1.8422
19354TIP3    H279478   5.581   2.957  13.179  0.3779  1.9805  2.8795
19355TIP3   OH279479   1.663   3.074   6.283  0.9263 -0.2088 -0.4683
19355TIP3    H179480   1.574   3.056   6.311  0.4114 -0.6800 -2.2810
19355TIP3    H279481   1.701   3.124   6.355 -0.6925 -0.2491  0.4637
19356TIP3   OH279482   4.806   2.281  16.867  0.3399  0.0504  0.0694
19356TIP3    H179483   4.743   2.230  16.918 -0.9988 -1.7294 -3.0408
19356TIP3    H279484   4.772   2.370  16.871 -0.8835 -0.4061  0.6251
19357TIP3   OH279485   1.460   1.064  11.842 -0.0749  0.7683 -0.3743
19357TIP3    H179486   1.406   1.038  11.767  0.1635  0.6554 -0.5082
19357TIP3    H279487   1.403   1.120  11.894  0.0464  1.6190 -1.1234
19358TIP3   OH279488   6.404   6.079   2.652  0.8986 -0.0019 -0.1236
19358TIP3    H179489   6.436   6.017   2.718  2.9676  0.9374 -0.1748
19358TIP3    H279490   6.482   6.104   2.603 -0.1292  1.5586 -1.0398
19359TIP3   OH279491   1.397   2.774   2.244  0.1195 -1.0485  0.1022
19359TIP3    H179492   1.303   2.773   2.225 -0.0130  3.0906 -0.4045
19359TIP3    H279493   1.438   2.801   2.162  1.5169 -0.8595  0.8224
19360TIP3   OH279494   6.084   3.615   3.281  0.5735 -0.0604  0.2607
19360TIP3    H179495   6.139   3.682   3.321  0.3876 -0.0516  0.5033
19360TIP3    H279496   6.063   3.650   3.194  0.1730  0.3679  0.5245
19361TIP3   OH279497   5.217   2.262  14.554 -0.1328 -0.3506 -0.8632
19361TIP3    H179498   5.292   2.307  14.593 -1.1837  1.8242 -1.2090
19361TIP3    H279499   5.216   2.291  14.463  0.5984 -3.1132 -1.8613
19362TIP3   OH279500   5.679   2.512  16.625 -0.2891 -0.3128  0.5052
19362TIP3    H179501   5.717   2.512  16.713  0.6061  0.1285  0.1300
19362TIP3    H279502   5.722   2.440  16.580  0.8227  0.7561 -0.2082
19363TIP3   OH279503   0.716   3.302  14.771  0.1701  0.7699 -0.3342
19363TIP3    H179504   0.723   3.331  14.861 -0.6896 -0.0068  0.0013
19363TIP3    H279505   0.622   3.306  14.752 -0.3031 -3.1950  0.2695
19364TIP3   OH279506   2.712   1.967   1.204  0.6108 -0.0405  0.5881
19364TIP3    H179507   2.652   1.893   1.212  1.3764 -1.0856 -2.2954
19364TIP3    H279508   2.715   2.005   1.293 -4.0055 -0.0650  1.0041
19365TIP3   OH279509   5.597   2.657  14.314  0.4433 -0.2904  0.3321
19365TIP3    H179510   5.552   2.573  14.316  2.4347 -1.3828  1.6931
19365TIP3    H279511   5.687   2.637  14.337  1.5566  1.8977 -1.7091
19366TIP3   OH279512   0.393   5.226   1.519 -0.3373  0.3310  0.8974
19366TIP3    H179513   0.427   5.232   1.430  0.2594 -1.1125  0.9978
19366TIP3    H279514   0.466   5.193   1.570 -1.8051 -2.8750  1.1386
19367TIP3   OH279515   6.146   5.321   3.633 -0.0310 -0.1210  0.1273
19367TIP3    H179516   6.158   5.299   3.726 -2.0719 -0.3161  0.3983
19367TIP3    H279517   6.193   5.403   3.621  1.6675 -0.9309  0.9023
19368TIP3   OH279518   3.921   4.445  14.563  0.1372 -0.4815 -0.0946
19368TIP3    H179519   3.889   4.355  14.565 -0.1478 -0.3705  1.0701
19368TIP3    H279520   3.852   4.495  14.521 -1.7181 -0.1134  3.0519
19369TIP3   OH279521   1.547   6.566  16.369  0.5072 -0.4605  0.0260
19369TIP3    H179522   1.462   6.597  16.338 -0.0058 -0.3318  1.4719
19369TIP3    H279523   1.574   6.502  16.304 -0.2228  0.2177 -0.9894
19370TIP3   OH279524   5.233   6.172   3.403 -0.9139 -0.1569  0.1221
19370TIP3    H179525   5.143   6.199   3.416 -1.4060 -1.6378 -0.0039
19370TIP3    H279526   5.227   6.097   3.343  0.7148  2.2067 -3.2987
19371TIP3   OH279527   4.185   4.726   0.549 -0.2183  0.4567  0.3758
19371TIP3    H179528   4.145   4.715   0.463  0.1789 -2.1467  0.4491
19371TIP3    H279529   4.249   4.655   0.556  0.6898  1.3673  2.3282
19372TIP3   OH279530   3.705   5.986   3.058 -0.8355 -0.4104  0.0603
19372TIP3    H179531   3.776   5.970   3.119 -0.0280 -0.5251 -0.8765
19372TIP3    H279532   3.737   5.952   2.974 -1.0975  1.5057 -0.8806
19373TIP3   OH279533   6.746   2.356  13.058 -0.0088 -0.0370  0.2613
19373TIP3    H179534   6.777   2.309  13.135 -3.2134 -2.3702  0.3741
19373TIP3    H279535   6.743   2.290  12.989 -0.8825  1.0129 -0.7606
19374TIP3   OH279536   4.191   3.704  15.878  0.6242  0.5554 -0.2481
19374TIP3    H179537   4.255   3.766  15.915  1.2705 -0.3512  0.1859
19374TIP3    H279538   4.217   3.619  15.913 -1.7135  0.3298  1.1791
19375TIP3   OH279539   1.165   2.370  12.368  0.2891 -0.4129  0.5236
19375TIP3    H179540   1.149   2.404  12.280 -0.4191 -0.9123  0.4461
19375TIP3    H279541   1.148   2.276  12.361  0.7187 -0.5407  1.0811
19376TIP3   OH279542   0.132   2.485  15.979  0.0606 -0.2242 -0.0108
19376TIP3    H179543   0.212   2.433  15.984  3.1626  4.0911  1.0718
19376TIP3    H279544   0.123   2.523  16.066 -2.6823  0.1946 -0.3982
19377TIP3   OH279545   4.166   5.533  15.315  0.2836  0.4626  0.0663
19377TIP3    H179546   4.244   5.556  15.365 -0.9331  1.2007  1.7439
19377TIP3    H279547   4.170   5.588  15.236  1.6769  0.1204 -0.1177
19378TIP3   OH279548   4.693   2.330   0.283 -0.0157  0.0711 -0.3834
19378TIP3    H179549   4.666   2.254   0.335 -0.1948  1.4401  1.6134
19378TIP3    H279550   4.621   2.344   0.222 -0.4402 -0.7439 -0.0819
19379TIP3   OH279551   1.570   1.504   3.910 -0.0379 -0.5640  0.1986
19379TIP3    H179552   1.577   1.549   3.825  0.7198 -0.2230  0.4312
19379TIP3    H279553   1.631   1.431   3.904 -0.8683 -1.2590  0.0234
19380TIP3   OH279554   5.789   4.755  15.127 -0.1606 -0.1654  0.4311
19380TIP3    H179555   5.859   4.742  15.192 -0.7367 -1.2401  0.8552
19380TIP3    H279556   5.829   4.812  15.061  0.4188  1.0538  1.7594
19381TIP3   OH279557   2.512   4.712   1.206  0.0246  0.1726  0.8483
19381TIP3    H179558   2.566   4.756   1.271  1.1235  1.2209 -0.7052
19381TIP3    H279559   2.559   4.631   1.187 -0.4611 -0.2889  1.5455
19382TIP3   OH279560   1.356   3.633  12.359  0.0889  0.1342 -0.0283
19382TIP3    H179561   1.441   3.625  12.403  0.8658 -1.4813 -1.6926
19382TIP3    H279562   1.346   3.727  12.344  1.8242  0.3344 -0.1926
19383TIP3   OH279563   5.730   2.115  12.900  0.5043 -0.1588  0.6348
19383TIP3    H179564   5.794   2.119  12.970 -2.0102  2.3156  3.0566
19383TIP3    H279565   5.663   2.055  12.932 -0.5032  0.7214  0.2491
19384TIP3   OH279566   2.900   6.497  13.005 -0.6410 -0.3576  0.7105
19384TIP3    H179567   2.984   6.542  12.992 -0.4074 -1.1940 -0.9697
19384TIP3    H279568   2.914   6.409  12.969 -2.6641 -0.0284 -1.0489
19385TIP3   OH279569   4.956   6.226   3.560  0.2206  0.0336 -0.3454
19385TIP3    H179570   4.906   6.217   3.641 -2.3153 -0.3092 -1.8520
19385TIP3    H279571   4.950   6.320   3.539  1.6107  0.2810  0.2627
19386TIP3   OH279572   6.020   2.514   5.397  0.9778 -0.1242 -0.5394
19386TIP3    H179573   6.084   2.543   5.462 -0.1190  0.3941  0.3523
19386TIP3    H279574   6.071   2.465   5.333  1.9547 -1.5857  1.2578
19387TIP3   OH279575   5.659   6.705  12.171  0.0301  0.2296 -0.5826
19387TIP3    H179576   5.690   6.787  12.211  0.7742 -0.1648 -0.3315
19387TIP3    H279577   5.700   6.636  12.223 -1.9148 -0.3461  0.2524
19388TIP3   OH279578   4.405   1.312   5.585 -0.1474 -0.0099  0.4164
19388TIP3    H179579   4.407   1.362   5.666  0.9603 -0.6201  0.7979
19388TIP3    H279580   4.465   1.239   5.602 -2.5225 -2.1017  0.2954
19389TIP3   OH279581   5.227   4.407  14.378 -0.3396  0.3602  0.5516
19389TIP3    H179582   5.260   4.355  14.451  0.5893 -0.1411 -0.1848
19389TIP3    H279583   5.153   4.356  14.344  0.0155 -0.0571  0.3814
19390TIP3   OH279584   1.628   1.361  13.048  0.5039  0.9988 -0.2181
19390TIP3    H179585   1.606   1.347  13.140  0.9789  2.2727  0.1055
19390TIP3    H279586   1.555   1.323  13.000  0.0054  0.7726  0.7003
19391TIP3   OH279587   2.845   4.791   2.224  0.1291  0.0537  0.5487
19391TIP3    H179588   2.804   4.872   2.253 -0.3858 -0.1500  0.3969
19391TIP3    H279589   2.772   4.736   2.195  0.3410 -0.8928  1.7027
19392TIP3   OH279590   0.583   6.128   2.375  0.2075 -0.3015 -0.0929
19392TIP3    H179591   0.547   6.080   2.300 -0.1845 -0.7549  0.3773
19392TIP3    H279592   0.577   6.066   2.448  0.7990  0.0533  0.2664
19393TIP3   OH279593   4.302   2.580  11.448 -0.1464  0.4986 -0.2210
19393TIP3    H179594   4.290   2.601  11.355 -1.5383  0.3185 -0.1023
19393TIP3    H279595   4.218   2.543  11.475  1.2786 -2.7973  0.2392
19394TIP3   OH279596   0.047   3.505  13.826 -0.3248  0.0091 -0.1691
19394TIP3    H179597   0.077   3.591  13.856  1.3165 -0.9426  1.1022
19394TIP3    H279598   0.080   3.444  13.892 -1.1587 -1.6437 -1.2188
19395TIP3   OH279599   4.125   5.308   3.605  0.1145  0.4053  0.3031
19395TIP3    H179600   4.183   5.262   3.666 -0.3980 -0.4434  0.1652
19395TIP3    H279601   4.178   5.318   3.525  0.3537  0.3981  0.4580
19396TIP3   OH279602   1.762   3.236  13.309 -0.2714 -0.0858 -0.0554
19396TIP3    H179603   1.765   3.331  13.322 -1.3293  0.0310 -0.5423
19396TIP3    H279604   1.755   3.225  13.214  0.4779 -0.6803 -0.0526
19397TIP3   OH279605   2.477   0.243  12.707 -0.6357 -0.1517  0.7125
19397TIP3    H179606   2.482   0.278  12.618 -0.4111 -1.5192  0.1639
19397TIP3    H279607   2.568   0.243  12.738 -0.2515 -2.5704 -0.2533
19398TIP3   OH279608   4.611   0.003   1.202 -0.2943  0.5316 -0.9140
19398TIP3    H179609   4.630  -0.085   1.171  0.0843  0.1220  0.3996
19398TIP3    H279610   4.586  -0.009   1.294 -0.6870  1.7446 -0.8402
19399TIP3   OH279611   6.684   6.266  11.829  0.7452 -0.3669 -0.1399
19399TIP3    H179612   6.598   6.271  11.788  0.1349  1.0335  1.1997
19399TIP3    H279613   6.730   6.343  11.797  0.6627  0.1281  0.9163
19400TIP3   OH279614   4.035   0.774  12.562  0.1705  0.1341  0.6739
19400TIP3    H179615   4.037   0.681  12.581  1.6086  0.2177  1.0126
19400TIP3    H279616   4.126   0.797  12.544 -0.0476  1.6171  1.3138
19401TIP3   OH279617   6.557   5.885  14.520 -0.2871 -0.1572 -0.0720
19401TIP3    H179618   6.600   5.895  14.435  1.2549 -2.6010  0.3135
19401TIP3    H279619   6.625   5.908  14.584 -0.5831 -0.9034  0.5246
19402TIP3   OH279620   4.762   4.071   4.198  0.0750 -0.3171  0.0350
19402TIP3    H179621   4.694   4.135   4.219  0.9548  0.4685  0.5586
19402TIP3    H279622   4.827   4.081   4.267  1.9450  0.7114 -1.7743
19403TIP3   OH279623   3.500   2.394  12.188  0.2326 -0.1649  0.1753
19403TIP3    H179624   3.524   2.388  12.095  1.8302 -0.0399  0.5551
19403TIP3    H279625   3.569   2.448  12.227  0.3673 -1.4054  1.7108
19404TIP3   OH279626   5.529   3.606  15.592 -0.1903 -0.7950 -0.0267
19404TIP3    H179627   5.474   3.541  15.550 -2.3015  0.0439  1.2466
19404TIP3    H279628   5.499   3.690  15.557 -1.0160 -0.1870  1.9695
19405TIP3   OH279629   1.597   1.919  16.492  0.6382  0.3308  0.6743
19405TIP3    H179630   1.644   1.979  16.550 -1.2388  1.3007  1.2959
19405TIP3    H279631   1.507   1.950  16.494  0.1344 -0.8331 -1.2363
19406TIP3   OH279632   4.334   6.389  11.395 -0.6900 -0.0887 -0.5012
19406TIP3    H179633   4.336   6.391  11.300  0.5265  1.6969 -0.4720
19406TIP3    H279634   4.268   6.322  11.416 -0.4734 -1.0089 -2.5616
19407TIP3   OH279635   0.840   6.355  16.001 -0.4004  0.0915  0.1839
19407TIP3    H179636   0.756   6.321  15.971 -0.7855  0.9388  0.2936
19407TIP3    H279637   0.819   6.406  16.079 -0.1105  2.1695 -1.0273
19408TIP3   OH279638   6.130   0.250   0.397 -0.4406  0.1262 -0.2529
19408TIP3    H179639   6.132   0.345   0.406  1.4604 -0.0394  2.0871
19408TIP3    H279640   6.126   0.218   0.487 -2.5976 -2.0597 -1.0201
19409TIP3   OH279641   3.637   5.887  17.307  0.0292  0.3831  0.6780
19409TIP3    H179642   3.714   5.854  17.354  0.3069  1.1275  0.7726
19409TIP3    H279643   3.641   5.845  17.221  0.9200  0.8993  0.4489
19410TIP3   OH279644   0.715   1.065   4.481 -0.0971 -0.5353 -0.4719
19410TIP3    H179645   0.723   1.093   4.572 -2.7346  0.2030 -0.3852
19410TIP3    H279646   0.707   0.970   4.486  0.7981 -0.6016 -0.0543
19411TIP3   OH279647   5.375   1.414  14.256  0.3423 -0.0826  0.0788
19411TIP3    H179648   5.358   1.324  14.284 -1.4669  0.2911  0.2993
19411TIP3    H279649   5.335   1.420  14.169 -1.5084  1.0781  0.9585
19412TIP3   OH279650   6.315   4.711   0.297 -0.2927  0.1664 -0.2204
19412TIP3    H179651   6.366   4.660   0.233 -1.0106 -2.1830  0.9502
19412TIP3    H279652   6.247   4.754   0.245  1.6692  1.8930 -1.5641
19413TIP3   OH279653   2.816   2.018  13.818 -0.0799  0.0371 -0.5720
19413TIP3    H179654   2.837   2.053  13.731  1.6337 -0.3204 -0.3487
19413TIP3    H279655   2.892   2.041  13.871 -0.5938 -0.7540  0.5338
19414TIP3   OH279656   0.623   1.974  16.303  0.4796  0.3138 -0.0800
19414TIP3    H179657   0.634   2.054  16.252 -0.9644  1.1014  0.7763
19414TIP3    H279658   0.648   1.999  16.392 -0.4757 -0.0329  0.2973
19415TIP3   OH279659   4.324   1.720  12.065 -0.5231  0.3959 -0.6576
19415TIP3    H179660   4.296   1.645  12.118  0.4405 -0.3988 -1.2330
19415TIP3    H279661   4.243   1.757  12.031 -1.0530  0.0057  0.1586
19416TIP3   OH279662   0.027   2.095  17.162 -0.2379  0.1132 -0.0974
19416TIP3    H179663  -0.034   2.072  17.232 -1.1357  0.8552 -0.6181
19416TIP3    H279664   0.104   2.127  17.207  0.1194 -1.5836  0.6012
19417TIP3   OH279665   2.793   6.197   2.286 -0.5832 -0.0757  0.6898
19417TIP3    H179666   2.861   6.264   2.278 -2.4048  1.6330 -2.7393
19417TIP3    H279667   2.744   6.222   2.364  0.0193  1.3492  0.6508
19418TIP3   OH279668   1.927   0.401  14.042  0.4797  0.2199 -0.1967
19418TIP3    H179669   1.942   0.306  14.035 -2.5728 -0.5845  2.0371
19418TIP3    H279670   1.964   0.424  14.128  0.1552  0.8154 -0.2132
19419TIP3   OH279671   1.452   5.131   2.773  0.9626 -0.7221  0.5799
19419TIP3    H179672   1.371   5.110   2.726  0.5604 -0.5515  1.1926
19419TIP3    H279673   1.521   5.094   2.718  0.6820  1.3647 -1.2769
19420TIP3   OH279674   3.811   1.458  12.865  0.5914 -0.1534 -0.0139
19420TIP3    H179675   3.897   1.438  12.900  0.6107 -0.5435 -0.2676
19420TIP3    H279676   3.823   1.458  12.770  0.7352  1.7852 -0.0308
19421TIP3   OH279677   6.187   1.224  12.135  0.0493  0.9350  0.2931
19421TIP3    H179678   6.214   1.239  12.044 -0.0243  1.2656  0.3230
19421TIP3    H279679   6.105   1.175  12.128 -0.9596  2.5628  0.1266
19422TIP3   OH279680   6.278   0.989   4.643 -0.0912 -0.4083 -0.3759
19422TIP3    H179681   6.340   1.024   4.579 -0.1429  0.7783  0.1909
19422TIP3    H279682   6.270   1.058   4.709 -3.5039  0.4000 -1.3916
19423TIP3   OH279683   3.510   4.297   2.213  0.6144 -0.0355 -0.3679
19423TIP3    H179684   3.425   4.302   2.170  0.5697 -2.4570 -0.6825
19423TIP3    H279685   3.571   4.336   2.150 -0.1278  0.9810 -0.4801
19424TIP3   OH279686   1.776   1.147   2.309 -0.0829 -0.0559 -0.3023
19424TIP3    H179687   1.787   1.140   2.403  0.4457  0.2517 -0.3377
19424TIP3    H279688   1.818   1.230   2.286 -0.1854 -0.1410 -0.8091
19425TIP3   OH279689   0.885   6.243  16.925 -0.4210 -0.3653 -0.6059
19425TIP3    H179690   0.840   6.176  16.873  0.0634 -2.4052  1.4648
19425TIP3    H279691   0.905   6.201  17.008  2.3643  1.4963 -0.1712
19426TIP3   OH279692   5.013   6.064  17.026 -0.2391 -0.0274  0.2443
19426TIP3    H179693   4.964   6.129  16.974  0.9564  0.6827 -0.0388
19426TIP3    H279694   4.946   6.004  17.058 -1.5714  1.9991  1.4881
19427TIP3   OH279695   1.417   1.441   5.983  0.4150  0.4305  0.2450
19427TIP3    H179696   1.403   1.507   5.915  0.6887  0.0701 -0.1661
19427TIP3    H279697   1.359   1.369   5.959 -0.8679  1.0259  1.4105
19428TIP3   OH279698   6.393   0.083   6.234 -0.4465 -0.6687 -0.4856
19428TIP3    H179699   6.348   0.151   6.284  0.2522  0.1296 -0.9265
19428TIP3    H279700   6.475   0.069   6.281  0.4888  0.5079 -1.6854
19429TIP3   OH279701   3.578   2.048  11.291  0.2154 -0.7105 -0.2796
19429TIP3    H179702   3.507   2.061  11.228 -0.1234 -1.5813 -0.0823
19429TIP3    H279703   3.640   2.119  11.271 -1.2830  0.8794  0.3998
19430TIP3   OH279704   5.218   1.905  11.037  0.0210 -0.2241 -0.6321
19430TIP3    H179705   5.242   1.815  11.060 -1.0781 -0.5601 -0.7170
19430TIP3    H279706   5.252   1.917  10.949 -1.1491 -1.1219 -1.2475
19431TIP3   OH279707   4.006   3.087   0.466  0.3343  0.0081 -0.2035
19431TIP3    H179708   4.077   3.068   0.527 -2.0141 -0.4395  2.6250
19431TIP3    H279709   4.009   3.182   0.455  1.3239 -0.0023 -0.1138
19432TIP3   OH279710   2.805   4.497   3.269  0.3807  0.5128  0.2023
19432TIP3    H179711   2.801   4.452   3.184  0.4255 -0.1731  0.5573
19432TIP3    H279712   2.778   4.586   3.249  0.1226  0.2929 -0.4938
19433TIP3   OH279713   0.820   5.150  11.826  0.1577 -0.0984 -0.3611
19433TIP3    H179714   0.780   5.098  11.896  0.5545 -2.2337 -1.6349
19433TIP3    H279715   0.870   5.086  11.775 -0.0767  1.3925 -2.5654
19434TIP3   OH279716   5.679   5.704   0.625 -0.3467 -0.4579  0.9163
19434TIP3    H179717   5.643   5.632   0.572 -0.5180  1.3135 -1.5759
19434TIP3    H279718   5.632   5.699   0.708 -2.3009 -1.6395 -0.1862
19435TIP3   OH279719   4.945   4.488   2.322  0.3920  0.3717 -0.4677
19435TIP3    H179720   4.955   4.554   2.253 -0.0523  1.2316  0.2636
19435TIP3    H279721   5.035   4.471   2.352  0.4409  1.4937  0.0888
19436TIP3   OH279722   6.742   5.660  14.623 -0.0832 -0.0320  0.2976
19436TIP3    H179723   6.651   5.639  14.602 -0.2890  2.9356 -2.5825
19436TIP3    H279724   6.790   5.646  14.542  1.4356  1.1590  0.9342
19437TIP3   OH279725   4.905   5.892   3.213 -0.1323 -0.1831 -0.0154
19437TIP3    H179726   4.835   5.855   3.266 -1.0634  1.0523 -0.3542
19437TIP3    H279727   4.913   5.983   3.242 -0.9282  0.6438 -2.1984
19438TIP3   OH279728   3.444   3.048  11.831 -0.0277 -0.2008 -0.4795
19438TIP3    H179729   3.441   3.142  11.849 -0.5209 -0.4838  1.1012
19438TIP3    H279730   3.496   3.011  11.903  0.5155 -1.0939 -1.3064
19439TIP3   OH279731   5.898   5.125  11.627  0.2326 -0.4946  0.2306
19439TIP3    H179732   5.817   5.148  11.581  0.5861  0.2178 -0.0539
19439TIP3    H279733   5.931   5.048  11.579  0.0829 -0.3683 -0.0808
19440TIP3   OH279734   5.529   2.639  12.502 -0.2451  0.4524  0.0250
19440TIP3    H179735   5.521   2.706  12.435 -1.5505 -0.7167 -1.0616
19440TIP3    H279736   5.440   2.629  12.536 -0.7284 -2.4886 -1.7066
19441TIP3   OH279737   2.853   1.406  15.974  0.1073 -0.0433  0.3650
19441TIP3    H179738   2.884   1.444  15.892 -1.3686  0.6453  0.0964
19441TIP3    H279739   2.922   1.424  16.037 -0.4520  3.0678  0.2407
19442TIP3   OH279740   5.767   3.940  15.474 -0.1153  0.0385 -0.5316
19442TIP3    H179741   5.786   3.958  15.382  1.6978 -0.6212 -0.3337
19442TIP3    H279742   5.837   3.985  15.521 -0.8135  0.0549  0.5083
19443TIP3   OH279743   0.059   0.648   0.943  0.0153 -0.4479 -0.1069
19443TIP3    H179744   0.053   0.571   1.000 -1.5005 -0.8204 -0.7140
19443TIP3    H279745  -0.020   0.644   0.890 -0.3426  1.7987  0.1666
19444TIP3   OH279746   1.786   2.217   0.889 -0.4224 -0.1100  0.1537
19444TIP3    H179747   1.853   2.269   0.932  1.0856 -0.3914 -1.7338
19444TIP3    H279748   1.710   2.275   0.883  1.2571  2.0619 -2.0946
19445TIP3   OH279749   1.469   1.841   0.655 -0.1376  0.0597 -0.2205
19445TIP3    H179750   1.558   1.845   0.691 -0.2226  0.1339 -0.0145
19445TIP3    H279751   1.473   1.775   0.586 -0.2589 -0.9640  0.7322
19446TIP3   OH279752   3.748   6.295   1.696  0.9849 -0.2228 -0.0671
19446TIP3    H179753   3.706   6.222   1.651  1.8360 -1.4825  1.1020
19446TIP3    H279754   3.716   6.291   1.786  0.0163  1.6920 -0.2769
19447TIP3   OH279755   4.920   6.208   1.722 -0.0770  0.1936 -0.1876
19447TIP3    H179756   5.007   6.186   1.754  0.5220  2.0721 -0.3652
19447TIP3    H279757   4.921   6.186   1.629  0.4064  0.6807 -0.3049
19448TIP3   OH279758   4.737   0.927   4.435 -0.4118  0.2596  0.1183
19448TIP3    H179759   4.757   1.007   4.385  0.4982  0.3807  0.6441
19448TIP3    H279760   4.668   0.954   4.496 -0.6309  0.4489 -0.2106
19449TIP3   OH279761   1.396   1.364  13.537 -0.5690 -0.6070  0.4032
19449TIP3    H179762   1.302   1.346  13.541 -0.5184 -1.1840 -0.6516
19449TIP3    H279763   1.433   1.314  13.611 -0.9665 -1.2665  0.1625
19450TIP3   OH279764   4.801   2.066  15.545  0.1607 -0.1274 -0.9664
19450TIP3    H179765   4.870   2.074  15.479  1.7817 -0.4333  0.6265
19450TIP3    H279766   4.741   2.138  15.526  1.4650  0.7809 -1.7629
19451TIP3   OH279767   4.864   6.645  12.366 -0.4243 -0.5245 -0.2282
19451TIP3    H179768   4.780   6.684  12.342 -0.9384 -0.7995  1.0516
19451TIP3    H279769   4.878   6.673  12.456 -0.6365 -2.9790  0.6324
19452TIP3   OH279770   0.028   0.959  14.621  0.0875 -0.0670 -0.2084
19452TIP3    H179771   0.043   1.048  14.654  0.9227 -0.5429  0.7361
19452TIP3    H279772   0.111   0.934  14.580 -0.0978 -0.4663 -0.3461
19453TIP3   OH279773   5.997   6.299  15.624  0.4712 -0.4256 -0.5375
19453TIP3    H179774   5.926   6.333  15.678 -1.2088 -0.7038 -2.4552
19453TIP3    H279775   6.063   6.368  15.624 -0.9851  1.0192 -0.8668
19454TIP3   OH279776   1.369   3.885  13.182 -0.5008  0.0796 -0.8763
19454TIP3    H179777   1.363   3.915  13.091 -2.7760 -1.5736 -1.3546
19454TIP3    H279778   1.316   3.948  13.231 -0.0915  0.3966 -0.8310
19455TIP3   OH279779   6.414   5.285   4.303  0.0773  0.2789 -0.4076
19455TIP3    H179780   6.412   5.308   4.396  0.5343 -0.5888 -0.1662
19455TIP3    H279781   6.340   5.226   4.291 -0.1190  0.5723 -0.6473
19456TIP3   OH279782   5.471   0.945   2.673 -0.1340  0.0120 -0.2197
19456TIP3    H179783   5.498   0.991   2.594  0.2844 -0.8945 -0.6177
19456TIP3    H279784   5.522   0.864   2.672 -1.9951 -1.2238 -0.3876
19457TIP3   OH279785   0.650   6.255  13.823 -0.0915 -0.3759 -0.3153
19457TIP3    H179786   0.627   6.283  13.911 -2.1503 -0.1362 -0.8912
19457TIP3    H279787   0.743   6.277  13.815 -0.2848  1.2077  1.1877
19458TIP3   OH279788   5.448   5.864   4.354 -0.2405  0.0972  0.7786
19458TIP3    H179789   5.535   5.827   4.342 -0.2891 -0.1258  1.1092
19458TIP3    H279790   5.395   5.793   4.391 -0.0608  0.7679  2.4382
19459TIP3   OH279791   0.159   0.675  12.312 -0.5700  0.1951 -0.5093
19459TIP3    H179792   0.193   0.703  12.397  0.3158 -0.3779 -0.6669
19459TIP3    H279793   0.139   0.757  12.267 -2.4641  0.5004  0.7818
19460TIP3   OH279794   4.550   3.546   6.216 -0.0745  0.2805 -0.3099
19460TIP3    H179795   4.505   3.618   6.260  0.5505  0.3472  0.2435
19460TIP3    H279796   4.573   3.580   6.130 -0.3651  0.5175 -0.2930
19461TIP3   OH279797   3.655   5.443  15.779 -0.1313  0.4779 -0.6436
19461TIP3    H179798   3.577   5.498  15.776 -0.2334  0.4802  0.9964
19461TIP3    H279799   3.649   5.399  15.864  2.3013  1.4585  0.1016
19462TIP3   OH279800   5.872   1.865   4.392  0.1086  0.0997  0.0116
19462TIP3    H179801   5.796   1.883   4.336  0.6225 -0.7038 -0.9722
19462TIP3    H279802   5.881   1.770   4.391  0.7219  0.1411  0.6765
19463TIP3   OH279803   1.743   3.672  14.910  0.1774 -0.0675 -0.0108
19463TIP3    H179804   1.659   3.628  14.901 -0.2608  0.8898 -0.8134
19463TIP3    H279805   1.807   3.601  14.917 -0.5981 -0.8135 -0.3222
19464TIP3   OH279806   6.737   5.794  11.940 -0.0217  0.5186  0.1413
19464TIP3    H179807   6.759   5.831  11.854  1.6227 -0.8471 -0.0858
19464TIP3    H279808   6.713   5.703  11.922  1.2568 -0.0627  1.1774
19465TIP3   OH279809   4.314   0.924  13.492 -0.5082  0.2009 -0.1050
19465TIP3    H179810   4.307   0.869  13.571  0.2480  1.2597  0.7407
19465TIP3    H279811   4.407   0.919  13.469 -1.0427 -1.5939 -2.0771
19466TIP3   OH279812   5.728   0.176   1.239  0.1385 -0.1769 -0.3329
19466TIP3    H179813   5.645   0.212   1.208  0.5243  0.2128 -0.9207
19466TIP3    H279814   5.717   0.169   1.334 -0.5816 -0.1772 -0.4106
19467TIP3   OH279815   3.924   3.356  13.716  0.7031  0.9580  0.5221
19467TIP3    H179816   3.966   3.340  13.801 -0.3575 -1.1781  0.7092
19467TIP3    H279817   3.911   3.269  13.679 -2.2407  1.5570 -0.1168
19468TIP3   OH279818   3.418   0.356   6.415  0.0128 -0.0906 -0.2329
19468TIP3    H179819   3.402   0.324   6.504 -0.5977  1.7134  0.3636
19468TIP3    H279820   3.511   0.341   6.400  0.1657 -0.2443  0.7861
19469TIP3   OH279821   3.969   4.513  12.666  0.4246  0.2744 -0.3488
19469TIP3    H179822   3.888   4.477  12.631  0.6763 -1.4933  0.7904
19469TIP3    H279823   4.038   4.456  12.632  0.9018  0.0160  1.0022
19470TIP3   OH279824   3.599   2.821   2.134  0.3130  0.0514  0.5877
19470TIP3    H179825   3.637   2.741   2.170  0.2853 -0.1762  0.1061
19470TIP3    H279826   3.508   2.798   2.115 -0.9346  1.2876  4.1593
19471TIP3   OH279827   5.438   0.172   0.532  0.3242 -0.1061  0.0894
19471TIP3    H179828   5.415   0.258   0.568 -1.2947 -0.2706 -0.4492
19471TIP3    H279829   5.393   0.169   0.448  0.6739 -1.3420 -0.0709
19472TIP3   OH279830   2.161   1.259   3.503 -0.2365 -0.3125  0.7437
19472TIP3    H179831   2.180   1.310   3.424 -0.7074 -1.2699 -0.0130
19472TIP3    H279832   2.082   1.299   3.540 -0.3092 -0.1713  0.4363
19473TIP3   OH279833   0.168   3.524   6.607  0.2529 -0.0095 -0.1304
19473TIP3    H179834   0.262   3.519   6.625  0.2873 -1.5806 -0.6328
19473TIP3    H279835   0.131   3.448   6.651 -0.7318  0.3475 -0.3258
19474TIP3   OH279836   6.374   5.720  16.839  0.2912  0.2424  0.2516
19474TIP3    H179837   6.303   5.761  16.791  0.6222  0.1641 -0.3184
19474TIP3    H279838   6.422   5.793  16.878  0.3153  0.3446  0.0351
19475TIP3   OH279839   6.195   2.872  10.486 -0.8841 -0.2620  0.0592
19475TIP3    H179840   6.157   2.790  10.516 -0.2766 -1.1320 -1.4736
19475TIP3    H279841   6.288   2.853  10.474  0.0624  1.6116  3.0008
19476TIP3   OH279842   6.588   1.164  15.496 -0.4576 -1.0960  0.4044
19476TIP3    H179843   6.555   1.078  15.521 -0.3799 -1.0900  0.5274
19476TIP3    H279844   6.548   1.181  15.410 -0.1153 -1.4538  0.1685
19477TIP3   OH279845   5.622   3.245  16.256  0.3196  0.1033 -0.3741
19477TIP3    H179846   5.709   3.214  16.282 -0.3747 -0.4287  1.5155
19477TIP3    H279847   5.574   3.252  16.339 -1.5996 -0.1483 -1.4114
19478TIP3   OH279848   2.119   6.478   2.144 -0.4297  0.2173  0.2485
19478TIP3    H179849   2.128   6.445   2.054 -0.9333  0.8385 -0.0446
19478TIP3    H279850   2.025   6.488   2.156 -0.2842  2.7116 -0.1496
19479TIP3   OH279851   2.096   5.382  12.611 -0.1888  0.0317 -0.5693
19479TIP3    H179852   2.059   5.470  12.618  0.0650  0.0908  0.1930
19479TIP3    H279853   2.188   5.396  12.590 -0.4558 -0.1014 -1.9032
19480TIP3   OH279854   1.606   5.992   5.239 -0.0004  0.5259 -0.3897
19480TIP3    H179855   1.698   5.987   5.213 -0.4180  0.5426 -1.9695
19480TIP3    H279856   1.570   5.907   5.217 -0.4658  0.6589 -0.1491
19481TIP3   OH279857   1.731   5.522   6.255 -0.4740 -0.1155  0.2524
19481TIP3    H179858   1.652   5.540   6.306  0.9309  0.4732  2.3350
19481TIP3    H279859   1.736   5.427   6.252  0.1012 -0.1978  2.4250
19482TIP3   OH279860   3.915   4.011   5.506 -0.5577  0.7038  0.0275
19482TIP3    H179861   3.934   3.932   5.556  0.7237  0.4326 -0.8407
19482TIP3    H279862   3.973   4.077   5.544  1.1481  0.2614 -1.6412
19483TIP3   OH279863   4.900   3.939  16.335  0.3338  0.2071  0.0333
19483TIP3    H179864   4.982   3.983  16.357  2.1647 -0.9111 -3.7984
19483TIP3    H279865   4.897   3.864  16.393  2.9363 -0.6046 -0.7467
19484TIP3   OH279866   2.341   5.186   1.976 -0.3913  0.1249  0.2002
19484TIP3    H179867   2.369   5.264   2.024  0.5426  0.0718 -0.2341
19484TIP3    H279868   2.256   5.163   2.014 -0.2894  0.8661  0.8919
19485TIP3   OH279869   3.864   0.497   2.911 -0.0984  0.3435  0.2861
19485TIP3    H179870   3.913   0.568   2.870  0.5680 -0.3296 -0.0955
19485TIP3    H279871   3.776   0.534   2.925  0.7294  1.9185  1.8820
19486TIP3   OH279872   2.455   0.467   1.256  0.6968  0.0732 -0.1279
19486TIP3    H179873   2.390   0.520   1.210  1.2279  1.2747  0.4598
19486TIP3    H279874   2.467   0.512   1.340  1.8362 -0.4804  0.0257
19487TIP3   OH279875   5.936   5.393   3.079  0.1479 -0.2888 -0.4747
19487TIP3    H179876   5.968   5.473   3.037  1.7145  0.6114  2.1816
19487TIP3    H279877   6.009   5.332   3.075 -0.6060 -1.1715 -1.3515
19488TIP3   OH279878   5.757   6.675  16.274 -0.1350 -0.1113  0.1324
19488TIP3    H179879   5.839   6.708  16.237 -0.9950 -0.4064 -2.1883
19488TIP3    H279880   5.774   6.582  16.291  0.6134  0.2622  1.6685
19489TIP3   OH279881   1.658   2.061  11.705 -0.1947  0.2779 -0.4776
19489TIP3    H179882   1.691   2.073  11.617 -1.3305 -0.4616 -1.0357
19489TIP3    H279883   1.733   2.029  11.755  0.2076 -0.3524 -1.4462
19490TIP3   OH279884   2.026   5.797   1.281  0.2267 -0.1155  0.3258
19490TIP3    H179885   2.003   5.709   1.251 -0.9027  0.3446 -0.2197
19490TIP3    H279886   2.058   5.784   1.370  0.0921 -1.0860  0.2483
19491TIP3   OH279887   3.600   3.961   0.133 -0.3724 -0.1693 -0.3514
19491TIP3    H179888   3.665   4.010   0.082  0.3586 -2.3953 -1.6828
19491TIP3    H279889   3.554   3.907   0.068 -2.7188  0.3842  0.7429
19492TIP3   OH279890   1.400   0.577  14.370 -0.0407  0.2529 -0.0689
19492TIP3    H179891   1.367   0.493  14.339 -1.1270  0.3139  0.8838
19492TIP3    H279892   1.414   0.628  14.290 -1.6897  0.0086 -0.5373
19493TIP3   OH279893   3.777   4.825   3.973 -0.2293 -0.1796 -0.6483
19493TIP3    H179894   3.785   4.796   3.882 -0.1375  1.7310 -1.3093
19493TIP3    H279895   3.799   4.748   4.025  2.5151 -0.6372 -2.2558
19494TIP3   OH279896   4.707   0.605  16.747  0.0608 -0.3463 -0.4031
19494TIP3    H179897   4.739   0.693  16.765 -0.6921 -0.2856  0.7112
19494TIP3    H279898   4.617   0.605  16.779 -0.1597 -1.3287 -0.9846
19495TIP3   OH279899   5.665   4.171   2.698  0.4235 -0.1067  0.4518
19495TIP3    H179900   5.685   4.248   2.644 -1.1205  1.2494  1.7063
19495TIP3    H279901   5.589   4.198   2.750  1.6604 -1.4095  3.1111
19496TIP3   OH279902   3.117   3.005  16.844 -0.2691  0.0969 -0.0667
19496TIP3    H179903   3.158   3.016  16.758  1.1206  0.9331  0.6583
19496TIP3    H279904   3.055   3.077  16.851  0.3389  0.6158  0.0200
19497TIP3   OH279905   0.253   4.062   6.160 -0.1923 -0.3106 -0.0949
19497TIP3    H179906   0.273   3.971   6.137  0.8227 -0.0305 -0.4057
19497TIP3    H279907   0.158   4.069   6.153 -0.0902 -0.3406 -3.9738
19498TIP3   OH279908   2.005   4.770  14.848 -0.1910  0.3720  0.2553
19498TIP3    H179909   2.029   4.765  14.940 -0.3930  1.5253  0.3811
19498TIP3    H279910   1.936   4.704  14.838  1.0808 -1.0626  0.4854
19499TIP3   OH279911   3.992   2.735  11.704  0.3464  0.1212 -0.1955
19499TIP3    H179912   4.017   2.824  11.680  1.7340 -0.3913 -0.7618
19499TIP3    H279913   4.069   2.700  11.750  0.3573 -1.2076 -1.1562
19500TIP3   OH279914   5.231   5.739  11.691 -0.2592 -0.6740 -0.2253
19500TIP3    H179915   5.267   5.679  11.625 -3.0710 -0.9574 -1.6572
19500TIP3    H279916   5.194   5.681  11.758  0.0980 -0.4326  0.1878
19501TIP3   OH279917   6.421   3.153  14.871  0.4126 -0.1114  0.0345
19501TIP3    H179918   6.422   3.133  14.964  1.0008  1.7819  0.4848
19501TIP3    H279919   6.449   3.245  14.866  0.5602 -0.2212 -2.0173
19502TIP3   OH279920   4.924   6.663   0.936 -0.1624 -0.1670  0.0458
19502TIP3    H179921   4.886   6.621   1.013 -0.8688  0.1535 -0.1156
19502TIP3    H279922   5.018   6.670   0.956 -0.0359 -1.7059  0.1065
19503TIP3   OH279923   2.680   4.434   2.274 -0.4205  0.2858  0.3375
19503TIP3    H179924   2.627   4.510   2.297 -0.1196  0.0507  1.9431
19503TIP3    H279925   2.652   4.411   2.185 -1.7129  1.2423  0.4692
19504TIP3   OH279926   3.381   1.234  15.383  0.3257  0.3637 -0.1464
19504TIP3    H179927   3.471   1.203  15.371 -0.6570 -2.0278 -2.5386
19504TIP3    H279928   3.378   1.316  15.333  0.8635 -0.2786 -1.2885
19505TIP3   OH279929   2.549   5.044  14.453  0.2583 -0.5967 -0.4671
19505TIP3    H179930   2.482   5.005  14.396 -0.1574  1.3190 -1.3847
19505TIP3    H279931   2.597   5.104  14.395  0.9661  0.1190  0.8194
19506TIP3   OH279932   5.488   6.041  15.428  0.3235  0.0365 -0.3827
19506TIP3    H179933   5.472   6.134  15.443 -0.3795 -0.3820  1.7158
19506TIP3    H279934   5.470   6.029  15.334 -2.3572  1.4688 -0.1459
19507TIP3   OH279935   5.159   4.367   4.433  0.0063 -0.0303 -0.1219
19507TIP3    H179936   5.106   4.404   4.362 -1.5162 -1.5169  0.1739
19507TIP3    H279937   5.186   4.281   4.400  2.3693  0.6964 -0.2771
19508TIP3   OH279938   4.908   0.903   4.670  0.9679 -0.2914  0.2587
19508TIP3    H179939   4.929   0.845   4.598 -0.6479  0.1544 -0.6111
19508TIP3    H279940   4.835   0.862   4.715  1.4584 -0.1805  1.1929
19509TIP3   OH279941   3.171   2.450  16.119 -0.1998  0.1899  0.0238
19509TIP3    H179942   3.252   2.411  16.085 -0.4499 -1.9377  1.7370
19509TIP3    H279943   3.125   2.479  16.040  2.1088  1.3518 -1.0175
19510TIP3   OH279944   2.618   2.163   5.522 -0.3758  0.3614  0.0429
19510TIP3    H179945   2.560   2.211   5.581 -1.1653 -1.2989  0.6858
19510TIP3    H279946   2.652   2.091   5.576  0.5154  0.0107 -0.9585
19511TIP3   OH279947   4.262   5.235  17.085  0.2926  0.2592 -0.6705
19511TIP3    H179948   4.179   5.277  17.104  0.8648  1.3326 -0.4660
19511TIP3    H279949   4.285   5.265  16.997 -1.0460 -2.5666 -2.1235
19512TIP3   OH279950   1.795   0.224  17.067 -0.5094 -0.5625 -0.2055
19512TIP3    H179951   1.700   0.220  17.075 -0.7313 -1.2327 -2.4985
19512TIP3    H279952   1.824   0.265  17.148 -2.6806 -1.0048  0.8701
19513TIP3   OH279953   4.977   0.903   4.114 -0.1118  0.0493  0.2494
19513TIP3    H179954   4.998   0.993   4.092  1.6925  0.0259  1.5766
19513TIP3    H279955   4.996   0.854   4.034 -0.2691  0.7327 -0.2158
19514TIP3   OH279956   1.314   2.034   5.909 -0.2803 -0.3565 -0.4058
19514TIP3    H179957   1.267   2.059   5.829 -1.1067 -0.6294 -0.0155
19514TIP3    H279958   1.301   2.107   5.968  3.4220  1.6119 -1.6881
19515TIP3   OH279959   0.246   3.847  15.287  0.4012  0.1781 -0.2796
19515TIP3    H179960   0.192   3.859  15.209 -0.4731 -1.4043  0.0436
19515TIP3    H279961   0.335   3.837  15.254  0.0871 -0.1197 -1.0533
19516TIP3   OH279962   4.414   0.419  15.892 -0.0131  0.1627  0.5279
19516TIP3    H179963   4.446   0.496  15.845 -1.7093  2.1775  2.4872
19516TIP3    H279964   4.364   0.454  15.965 -0.0640 -2.8299  2.0833
19517TIP3   OH279965   2.335   5.101  14.799  0.2823 -0.1787 -0.5920
19517TIP3    H179966   2.343   5.014  14.839 -1.8242 -0.8554 -1.4515
19517TIP3    H279967   2.357   5.162  14.868 -0.8268 -1.3647  0.8832
19518TIP3   OH279968   0.330   3.099  14.949 -0.0278  0.4308 -0.1146
19518TIP3    H179969   0.357   3.189  14.968  1.8838  0.0555 -0.8550
19518TIP3    H279970   0.404   3.061  14.902 -1.1396 -1.2847 -0.5723
19519TIP3   OH279971   3.755   3.234   6.471 -0.4876  0.1626  0.3065
19519TIP3    H179972   3.822   3.299   6.452 -0.3066 -0.4172 -1.1766
19519TIP3    H279973   3.676   3.285   6.486 -0.2551  0.7428 -0.4001
19520TIP3   OH279974   0.536   1.823   3.876 -0.7206  0.2833 -0.9098
19520TIP3    H179975   0.630   1.840   3.885 -0.6796 -0.3858  0.1154
19520TIP3    H279976   0.530   1.739   3.832 -0.8393  0.3263 -0.9775
19521TIP3   OH279977   5.632   4.261   5.212 -0.1188  0.1065  0.1871
19521TIP3    H179978   5.581   4.292   5.137  0.8976 -0.1823 -0.6473
19521TIP3    H279979   5.609   4.169   5.221  3.2486 -1.2972 -2.9146
19522TIP3   OH279980   3.465   4.085   0.581 -0.1101 -0.2013  0.4894
19522TIP3    H179981   3.558   4.103   0.564  0.2629 -1.0973  1.4395
19522TIP3    H279982   3.419   4.163   0.549  1.1471  1.0848  1.6413
19523TIP3   OH279983   2.564   2.632  11.268 -0.5685  0.2931  0.0619
19523TIP3    H179984   2.563   2.640  11.173 -0.3056  0.8971  0.1060
19523TIP3    H279985   2.614   2.707  11.298 -0.8997  0.2670  0.6976
19524TIP3   OH279986   6.719   6.371   2.440  0.1444 -0.6601  0.7058
19524TIP3    H179987   6.695   6.431   2.511  1.1573 -1.2313  1.5521
19524TIP3    H279988   6.658   6.393   2.369 -0.1367  0.7117  1.3323
19525TIP3   OH279989   0.184   5.842   2.789 -0.0344  0.3726 -0.1111
19525TIP3    H179990   0.177   5.879   2.877 -2.1368 -0.8028  0.2781
19525TIP3    H279991   0.146   5.909   2.732 -2.0944 -0.2845  0.3749
19526TIP3   OH279992   5.396   0.694   3.219 -0.2571  0.0260  0.5030
19526TIP3    H179993   5.353   0.645   3.150  0.4231 -3.1653  2.1389
19526TIP3    H279994   5.490   0.682   3.202  0.0143  2.3437 -0.0070
19527TIP3   OH279995   2.969   1.428   5.677  0.2878  0.3197  0.4046
19527TIP3    H179996   2.891   1.458   5.723  0.1845 -0.8607  1.0623
19527TIP3    H279997   2.939   1.353   5.624  1.0148 -0.3643  0.9249
19528TIP3   OH279998   3.447   5.043   0.597 -0.1839  0.7476  0.0476
19528TIP3    H179999   3.535   5.075   0.577 -0.2343  1.7668  1.3049
19528TIP3    H280000   3.403   5.039   0.512  1.5874 -1.5349 -0.8529
19529TIP3   OH280001   2.516   2.512  16.532  0.1224 -0.0460 -0.6762
19529TIP3    H180002   2.541   2.604  16.520 -0.7515  0.1648 -0.9431
19529TIP3    H280003   2.465   2.511  16.613  0.9915 -0.4783 -0.1181
19530TIP3   OH280004   2.017   0.697  15.293 -0.3290 -0.5956  0.0936
19530TIP3    H180005   2.036   0.791  15.289  0.4905 -0.7121  0.8012
19530TIP3    H280006   2.037   0.665  15.205  0.7348 -0.3320  0.2218
19531TIP3   OH280007   2.430   3.526  11.154  0.0586 -0.3811 -0.2735
19531TIP3    H180008   2.338   3.521  11.182  0.2776  0.7221  0.6993
19531TIP3    H280009   2.427   3.581  11.075 -0.2021 -0.9705 -0.6770
19532TIP3   OH280010   1.553   0.291   6.801 -0.1374  0.4666 -0.9996
19532TIP3    H180011   1.598   0.291   6.885  0.4814  0.5254 -1.3287
19532TIP3    H280012   1.462   0.268   6.822  0.1492 -0.1303 -0.3892
19533TIP3   OH280013   3.955   5.763  14.753  0.3477 -0.0699 -0.3572
19533TIP3    H180014   4.010   5.814  14.695  0.6384 -0.9590 -0.8736
19533TIP3    H280015   3.868   5.766  14.713  0.4529 -0.3170 -0.6042
19534TIP3   OH280016   5.678   0.154   1.502 -0.2725  0.3856  0.0787
19534TIP3    H180017   5.585   0.131   1.498 -0.0327 -0.4989 -1.5744
19534TIP3    H280018   5.714   0.099   1.572 -0.6069 -0.9449 -0.7533
19535TIP3   OH280019   0.908   6.122   4.320  0.3397 -0.2780 -0.1031
19535TIP3    H180020   0.913   6.116   4.225  1.0775  1.1017 -0.1762
19535TIP3    H280021   0.986   6.075   4.351  0.6767  0.1822 -0.2376
19536TIP3   OH280022   4.377   5.403   2.199 -0.7912  0.2457 -0.0647
19536TIP3    H180023   4.309   5.428   2.137 -0.6917  0.9584  0.1111
19536TIP3    H280024   4.450   5.462   2.179 -1.4899  1.9454  2.1138
19537TIP3   OH280025   4.214   3.879   5.350 -0.2187 -0.2925 -0.8300
19537TIP3    H180026   4.214   3.963   5.395  0.6075 -0.1774 -1.0123
19537TIP3    H280027   4.124   3.867   5.320 -0.4394  0.3211 -0.4319
19538TIP3   OH280028   4.421   2.310  13.245 -0.2299  0.0382 -0.0829
19538TIP3    H180029   4.515   2.316  13.263 -0.6232  0.7305  2.0662
19538TIP3    H280030   4.405   2.217  13.231  0.8807  0.0029 -1.2679
19539TIP3   OH280031   3.770   1.666   6.024  1.0495 -0.4780  0.3787
19539TIP3    H180032   3.854   1.690   6.065 -0.0196  1.0076  1.8093
19539TIP3    H280033   3.709   1.661   6.097 -0.6389  0.8160 -0.8766
19540TIP3   OH280034   6.262   6.039  16.007  0.1067 -0.3333  0.0127
19540TIP3    H180035   6.354   6.015  16.018  0.0974  0.0219  0.9983
19540TIP3    H280036   6.215   5.984  16.070 -0.5162 -1.3939 -1.3318
19541TIP3   OH280037   0.240   0.487  14.341 -0.0974 -0.1031  0.0228
19541TIP3    H180038   0.145   0.496  14.344 -0.0151  0.6957  1.6243
19541TIP3    H280039   0.259   0.459  14.252 -1.8675 -0.8339 -0.1607
19542TIP3   OH280040   2.756   5.842  12.796  0.3352  0.2222 -0.0515
19542TIP3    H180041   2.743   5.748  12.802  1.1038  0.0956 -0.3124
19542TIP3    H280042   2.698   5.878  12.864  0.2221 -0.4463  0.2160
19543TIP3   OH280043   2.440   3.431   4.526 -0.0714 -0.1422 -0.1517
19543TIP3    H180044   2.440   3.463   4.617 -1.1681 -2.0220  0.5685
19543TIP3    H280045   2.400   3.502   4.476  0.2251  0.7851  0.8906
19544TIP3   OH280046   4.142   4.195   2.406 -0.1089  0.2660  0.4018
19544TIP3    H180047   4.074   4.261   2.416  0.0259  0.2493  1.6206
19544TIP3    H280048   4.101   4.125   2.355 -0.2189  1.3127 -0.9922
19545TIP3   OH280049   4.667   5.646   4.089 -0.1338  1.2288 -0.0320
19545TIP3    H180050   4.580   5.657   4.050 -0.1486 -0.7678 -0.6870
19545TIP3    H280051   4.654   5.583   4.160  0.9406 -0.2097 -1.0263
19546TIP3   OH280052   0.566   3.185   3.602  0.2319 -0.1122 -0.7053
19546TIP3    H180053   0.588   3.141   3.520 -0.2692  0.3992 -1.1156
19546TIP3    H280054   0.471   3.185   3.604  0.2342 -0.6518  0.1695
19547TIP3   OH280055   6.696   4.553  15.296 -0.1454  0.3647  0.0797
19547TIP3    H180056   6.705   4.566  15.202 -0.2112  1.4811  0.2205
19547TIP3    H280057   6.651   4.469  15.304  1.1525 -0.4469 -0.8357
19548TIP3   OH280058   0.615   2.597   4.563  0.2002  0.7913  0.3086
19548TIP3    H180059   0.527   2.607   4.526  0.9457 -0.0261 -1.8223
19548TIP3    H280060   0.606   2.527   4.627 -0.6135  0.3474 -0.2637
19549TIP3   OH280061   3.404   6.611  12.317 -0.0614 -0.1361  0.7357
19549TIP3    H180062   3.373   6.628  12.406  0.8769  1.6609  0.7611
19549TIP3    H280063   3.499   6.625  12.321  0.2013 -1.4687 -0.2329
19550TIP3   OH280064   5.438   2.195   2.768  0.3828  0.3415  0.0983
19550TIP3    H180065   5.398   2.109   2.785  1.5731 -0.1366  0.5872
19550TIP3    H280066   5.376   2.239   2.709  0.0397 -1.0844 -0.6605
19551TIP3   OH280067   5.584   5.604   4.727  0.1752  0.3302 -0.4507
19551TIP3    H180068   5.516   5.546   4.692 -1.6607  1.5578  0.8803
19551TIP3    H280069   5.652   5.545   4.760 -1.9480 -1.2049  1.5185
19552TIP3   OH280070   2.824   2.978  15.059  0.1018 -0.3445  0.3336
19552TIP3    H180071   2.826   3.044  14.990 -0.0624  0.2367  0.8795
19552TIP3    H280072   2.916   2.953  15.070 -0.0909 -2.3871 -1.9086
19553TIP3   OH280073   6.114   2.385  17.194  0.4821 -0.1626  0.1049
19553TIP3    H180074   6.040   2.439  17.165  0.8133  0.3126  0.1511
19553TIP3    H280075   6.177   2.447  17.230  0.3148 -0.6895  1.3617
19554TIP3   OH280076   0.881   5.578   0.661  0.2447  0.0282  0.1006
19554TIP3    H180077   0.946   5.520   0.699  1.3544 -0.0690 -1.8023
19554TIP3    H280078   0.856   5.536   0.578 -1.0937  0.8376  0.0469
19555TIP3   OH280079   4.506   4.903  11.728 -0.5927 -0.0063 -0.2893
19555TIP3    H180080   4.473   4.934  11.812 -2.1049 -1.8537 -0.1127
19555TIP3    H280081   4.577   4.842  11.751 -0.0692  0.5344 -0.4448
19556TIP3   OH280082   0.986   0.336  17.393 -0.2317  0.1799  0.0535
19556TIP3    H180083   1.007   0.430  17.392  0.0080  0.1314  0.4522
19556TIP3    H280084   0.916   0.328  17.457  0.3857 -0.0437  0.7096
19557TIP3   OH280085   5.018   2.876   5.546 -0.4845  0.0226 -0.6235
19557TIP3    H180086   5.082   2.919   5.602  0.4184 -0.7751 -1.0161
19557TIP3    H280087   5.069   2.843   5.472 -1.2938 -0.9226 -0.7776
19558TIP3   OH280088   0.440   6.332  15.618 -0.2259  0.0558 -0.0683
19558TIP3    H180089   0.442   6.398  15.550 -4.0253  2.2089  1.5537
19558TIP3    H280090   0.376   6.267  15.587  0.9800 -1.1262 -0.1832
19559TIP3   OH280091   1.650   4.499   2.655 -0.4369 -0.5661  0.6920
19559TIP3    H180092   1.701   4.543   2.587  0.1777 -1.7847  0.3226
19559TIP3    H280093   1.578   4.457   2.608 -1.1789  0.2343  1.0745
19560TIP3   OH280094   2.771   1.346  12.219 -0.2503  0.2883 -0.5049
19560TIP3    H180095   2.829   1.409  12.262  2.1555 -1.3900 -1.0867
19560TIP3    H280096   2.791   1.355  12.126 -0.6901 -0.5608 -0.6891
19561TIP3   OH280097   5.379   0.141   1.624 -1.0621  0.2548 -0.3817
19561TIP3    H180098   5.325   0.164   1.699 -1.1907 -2.0779  0.3172
19561TIP3    H280099   5.358   0.207   1.558 -1.2236  2.1362  1.4570
19562TIP3   OH280100   5.420   5.590  14.470  0.2063 -0.3480 -0.3317
19562TIP3    H180101   5.382   5.595  14.382 -1.9765 -1.0956  0.4883
19562TIP3    H280102   5.464   5.673  14.482  1.0702 -0.4552 -2.3292
19563TIP3   OH280103   6.435   0.574  17.259  0.3994 -0.1828 -0.0669
19563TIP3    H180104   6.510   0.618  17.299 -0.4234 -0.8221  2.3097
19563TIP3    H280105   6.365   0.579  17.324 -1.4569 -0.1925 -1.9482
19564TIP3   OH280106   4.295   4.069   5.543  0.2607 -0.1846  0.1094
19564TIP3    H180107   4.222   4.114   5.499 -0.3553  0.2505  1.5282
19564TIP3    H280108   4.351   4.139   5.575 -0.0987 -0.4261  1.3221
19565TIP3   OH280109   4.847   3.318  11.111  0.1960  0.2360 -0.0027
19565TIP3    H180110   4.898   3.383  11.160 -0.3793  1.8451 -1.4250
19565TIP3    H280111   4.769   3.366  11.082  0.1328 -0.8626 -1.7624
19566TIP3   OH280112   0.597   3.528  11.551  0.2496  0.4180  0.3984
19566TIP3    H180113   0.543   3.607  11.543 -1.5485 -0.6424  1.4297
19566TIP3    H280114   0.563   3.468  11.485  0.5225 -0.0870  0.7126
19567TIP3   OH280115   3.131   6.414  16.998  0.6808  0.1121  0.0362
19567TIP3    H180116   3.137   6.404  17.093  0.3321 -0.6121 -0.0110
19567TIP3    H280117   3.038   6.402  16.978  0.9715 -1.4711 -0.5675
19568TIP3   OH280118   2.162   3.858   4.947  0.1347 -0.1699  0.1570
19568TIP3    H180119   2.207   3.808   5.016 -0.1300 -0.0099  0.4493
19568TIP3    H280120   2.076   3.817   4.941  0.2279 -0.3128 -0.2242
19569TIP3   OH280121   1.874   3.205   5.987 -0.4569 -0.0825  0.3653
19569TIP3    H180122   1.919   3.206   5.903 -0.6907 -1.7215  0.1945
19569TIP3    H280123   1.887   3.294   6.022  0.8502  0.1993 -0.7391
19570TIP3   OH280124   3.930   4.131  16.722  0.1733 -0.2100  0.7286
19570TIP3    H180125   3.988   4.058  16.745  0.7581  0.0972  0.2606
19570TIP3    H280126   3.844   4.104  16.754  0.3083 -1.2601  0.2595
19571TIP3   OH280127   6.688   6.433  16.638  0.7736 -0.1150 -0.2236
19571TIP3    H180128   6.723   6.366  16.580  1.2941 -0.4365  0.4413
19571TIP3    H280129   6.737   6.512  16.616 -0.0006  0.1194 -1.1692
19572TIP3   OH280130   5.576   0.016  11.608  0.0736 -0.6825  1.4033
19572TIP3    H180131   5.570  -0.076  11.580 -0.3117 -0.1475 -0.3875
19572TIP3    H280132   5.547   0.066  11.532  1.8420  1.0079  1.7666
19573TIP3   OH280133   5.497   1.950   2.520  0.2920 -0.6812 -0.3836
19573TIP3    H180134   5.540   1.979   2.600  0.3333  1.7416 -1.2128
19573TIP3    H280135   5.473   1.859   2.538 -0.1932 -0.0759  2.5851
19574TIP3   OH280136   0.336   5.060  14.109  0.2191  0.3556 -0.4062
19574TIP3    H180137   0.386   5.135  14.140 -3.1143  3.3921 -1.7234
19574TIP3    H280138   0.266   5.049  14.174 -1.7706  1.2348 -2.2683
19575TIP3   OH280139   3.658   0.943  11.488 -0.4822  0.2410  0.4361
19575TIP3    H180140   3.586   1.005  11.480 -0.4135  0.1512 -1.2282
19575TIP3    H280141   3.631   0.867  11.436 -0.8056 -1.4209  2.8738
19576TIP3   OH280142   5.615   2.361   3.121 -0.5706  0.6528  0.2398
19576TIP3    H180143   5.520   2.367   3.108 -0.3778  0.0317 -1.7041
19576TIP3    H280144   5.651   2.350   3.033  1.2080 -0.5642  1.0692
19577TIP3   OH280145   1.149   0.786  17.172  0.0638 -0.3760  0.2885
19577TIP3    H180146   1.137   0.878  17.146 -3.0191 -0.7168  0.0550
19577TIP3    H280147   1.198   0.747  17.100 -1.0332  0.5211 -1.0016
19578TIP3   OH280148   3.000   4.659   3.716  0.3292 -0.1732  0.3508
19578TIP3    H180149   3.078   4.683   3.667  0.8546 -1.9111  0.2878
19578TIP3    H280150   2.966   4.581   3.672 -1.3468  0.4138  0.4952
19579TIP3   OH280151   3.601   5.254  12.290 -0.1406 -0.0194  0.1581
19579TIP3    H180152   3.664   5.200  12.243  1.0181 -0.9719  2.6291
19579TIP3    H280153   3.631   5.344  12.274 -1.7675  0.0382 -3.5357
19580TIP3   OH280154   0.243   0.901  16.529 -0.7127  0.1463 -0.5265
19580TIP3    H180155   0.220   0.810  16.544 -1.2831  0.1910 -1.0501
19580TIP3    H280156   0.227   0.914  16.435  1.9982  0.0412 -1.0851
19581TIP3   OH280157   6.465   1.049  13.978 -0.3212 -0.1659 -0.2716
19581TIP3    H180158   6.526   0.987  14.017 -0.7263 -0.8605 -0.7077
19581TIP3    H280159   6.378   1.011  13.994 -0.5963  0.4591 -0.2512
19582TIP3   OH280160   2.641   3.847  12.461  0.1909 -0.0667  0.1163
19582TIP3    H180161   2.611   3.758  12.481  0.2559  0.0968  0.9806
19582TIP3    H280162   2.733   3.848  12.490 -0.1229  0.5963  1.1516
19583TIP3   OH280163   1.708   4.728   5.089  0.3479  0.2971 -0.0299
19583TIP3    H180164   1.647   4.752   5.019 -0.7872  0.4480  0.9792
19583TIP3    H280165   1.653   4.684   5.154  1.3341  0.3649  0.8719
19584TIP3   OH280166   2.677   2.509   3.633  0.2030 -0.0527 -0.1146
19584TIP3    H180167   2.670   2.604   3.626 -0.1395  0.1595  2.1916
19584TIP3    H280168   2.586   2.479   3.640  0.3422 -0.4542  0.0332
19585TIP3   OH280169   1.667   3.594  17.326 -0.0369 -0.3662  0.0105
19585TIP3    H180170   1.742   3.557  17.373  0.3191 -0.0378 -0.2931
19585TIP3    H280171   1.612   3.518  17.305  1.3404 -0.9441 -1.8198
19586TIP3   OH280172   0.139   2.528  12.913 -0.3104  0.1342 -0.7709
19586TIP3    H180173   0.210   2.473  12.881  3.9752  1.1753  5.1377
19586TIP3    H280174   0.078   2.468  12.954  1.1397 -0.6804  0.3161
19587TIP3   OH280175   0.662   0.809   5.282  0.1101  0.3216  0.3224
19587TIP3    H180176   0.737   0.767   5.324 -0.8645 -0.8975  0.8884
19587TIP3    H280177   0.599   0.822   5.353  0.1897  2.3445  0.0669
19588TIP3   OH280178   2.414   5.093  11.774 -0.2101 -0.3409 -0.1329
19588TIP3    H180179   2.429   5.187  11.778 -0.3356 -0.2926 -0.7547
19588TIP3    H280180   2.471   5.057  11.842  0.7690  0.0713 -0.7113
19589TIP3   OH280181   5.776   2.081   2.174 -0.1240 -0.0047 -0.8234
19589TIP3    H180182   5.770   1.988   2.194 -0.5381 -0.2521 -1.9782
19589TIP3    H280183   5.714   2.094   2.103  0.0843  1.1139 -0.8232
19590TIP3   OH280184   1.399   4.218  13.092  0.0777 -0.4147 -0.2484
19590TIP3    H180185   1.476   4.178  13.132  0.9210 -0.2017 -1.5995
19590TIP3    H280186   1.326   4.163  13.122  0.7027 -0.5225  1.1784
19591TIP3   OH280187   3.661   6.453  16.645 -0.6212 -0.1388 -0.5582
19591TIP3    H180188   3.687   6.543  16.661  1.1583 -0.8403  0.9206
19591TIP3    H280189   3.739   6.413  16.605 -0.8376 -1.3536  0.1927
19592TIP3   OH280190   2.991   4.291   4.547  0.2614 -0.5834 -0.3350
19592TIP3    H180191   3.040   4.274   4.628 -1.8699  0.3183  1.2242
19592TIP3    H280192   2.992   4.386   4.538  0.6272 -0.6832 -1.5033
19593TIP3   OH280193   6.682   4.307  12.110 -0.0476  0.2044 -0.6336
19593TIP3    H180194   6.750   4.348  12.164 -0.5101  1.2966 -0.8553
19593TIP3    H280195   6.601   4.350  12.136 -0.4461 -0.0649 -1.3893
19594TIP3   OH280196   5.785   4.690  15.855 -0.8837 -0.0979 -0.1826
19594TIP3    H180197   5.760   4.759  15.917 -0.0483 -1.3887  1.6622
19594TIP3    H280198   5.704   4.640  15.842 -0.7568 -0.6659  1.0363
19595TIP3   OH280199   4.150   1.835   3.922 -0.0584  0.6213  0.3131
19595TIP3    H180200   4.111   1.801   3.842  1.2667  0.6643 -0.3821
19595TIP3    H280201   4.188   1.759   3.965  0.5563  0.8115  0.1195
19596TIP3   OH280202   1.250   5.994  16.590 -0.2190  0.1567 -0.2568
19596TIP3    H180203   1.175   5.940  16.564 -1.1511  1.4623 -0.3387
19596TIP3    H280204   1.323   5.931  16.595 -1.4499 -1.2831  0.5782
19597TIP3   OH280205   6.421   4.471  10.868  0.5095 -0.6584 -0.4265
19597TIP3    H180206   6.338   4.486  10.914  0.3172 -1.2621 -0.5705
19597TIP3    H280207   6.425   4.376  10.855  0.7113 -0.5334 -1.3711
19598TIP3   OH280208   4.606   1.877   1.236 -0.8388 -0.0644 -0.0095
19598TIP3    H180209   4.626   1.963   1.274 -0.4786 -0.3102  0.3536
19598TIP3    H280210   4.691   1.838   1.219 -1.0054 -0.3667 -0.1432
19599TIP3   OH280211   0.613   4.075  16.555 -0.1950  0.2928 -0.0655
19599TIP3    H180212   0.670   4.109  16.486  0.3923 -0.6739 -0.0726
19599TIP3    H280213   0.554   4.148  16.576  0.3432  0.9528 -0.8091
19600TIP3   OH280214   5.489   3.623  13.908 -0.6073 -0.2023 -0.2976
19600TIP3    H180215   5.416   3.585  13.957 -1.6810 -0.5724 -2.1008
19600TIP3    H280216   5.551   3.550  13.898 -1.4058 -0.7721 -1.3572
19601TIP3   OH280217   2.920   4.150   2.758 -0.1467  0.3681 -0.3874
19601TIP3    H180218   3.015   4.137   2.757 -0.2596 -0.6193  0.3636
19601TIP3    H280219   2.905   4.224   2.698  0.9212 -0.5460 -1.8444
19602TIP3   OH280220   4.620   0.787   6.081  0.0383  0.3227  0.1910
19602TIP3    H180221   4.620   0.880   6.106  1.0133 -0.1550  2.1571
19602TIP3    H280222   4.712   0.765   6.068  0.2562 -1.1932  3.3789
19603TIP3   OH280223   4.126   1.881   2.869  0.0741  0.2482 -0.2495
19603TIP3    H180224   4.206   1.860   2.821  0.5387 -0.0412  0.6173
19603TIP3    H280225   4.077   1.799   2.873 -0.4769  0.5158 -1.1261
19604TIP3   OH280226   5.158   4.077   5.804 -0.3842 -0.5036 -0.1069
19604TIP3    H180227   5.169   4.002   5.863 -1.6949 -1.2221 -0.7248
19604TIP3    H280228   5.205   4.149   5.847  1.6652 -1.8769  0.0717
19605TIP3   OH280229   3.689   3.468   3.868  0.2325  0.8554  0.1006
19605TIP3    H180230   3.701   3.426   3.953 -0.5663  0.1696 -0.1066
19605TIP3    H280231   3.596   3.486   3.863 -0.0230 -0.6153 -1.2855
19606TIP3   OH280232   0.430   3.360   0.208  0.0829 -0.0107  0.1352
19606TIP3    H180233   0.400   3.389   0.122 -0.9403 -3.0581 -0.6750
19606TIP3    H280234   0.362   3.392   0.269 -0.8473 -0.4383 -0.6484
19607TIP3   OH280235   4.982   4.321  11.320  0.4453 -0.0164 -0.2369
19607TIP3    H180236   4.984   4.343  11.413 -0.5754  1.4317 -0.5195
19607TIP3    H280237   5.066   4.352  11.287  0.9279 -0.7906  0.2414
19608TIP3   OH280238   4.700   4.563  16.556  0.4242  0.2569 -0.5206
19608TIP3    H180239   4.609   4.561  16.584  0.8639  1.7041  1.2373
19608TIP3    H280240   4.724   4.471  16.542 -0.5721 -0.3845  1.6080
19609TIP3   OH280241   1.619   4.991   5.229 -1.0736  0.0651 -0.7802
19609TIP3    H180242   1.674   5.006   5.306  0.0022 -0.9974 -1.3001
19609TIP3    H280243   1.536   4.959   5.264 -0.1387 -1.6996 -0.0761
19610TIP3   OH280244   1.527   1.779   5.887  0.2808  0.0536  0.6708
19610TIP3    H180245   1.537   1.807   5.979 -0.4376  1.6940  0.2933
19610TIP3    H280246   1.433   1.782   5.871  0.3292 -1.0956  0.1153
19611TIP3   OH280247   2.849   1.361  12.879 -0.4329  0.9793  0.1708
19611TIP3    H180248   2.766   1.366  12.926 -0.3761  1.1500  0.2539
19611TIP3    H280249   2.916   1.368  12.947 -0.3508  0.9042  0.0984
19612TIP3   OH280250   1.281   3.471   2.197 -0.3858 -0.1166 -0.1473
19612TIP3    H180251   1.314   3.427   2.118  0.7165  0.3814  0.0209
19612TIP3    H280252   1.198   3.427   2.215 -0.4645 -0.5171 -1.3502
19613TIP3   OH280253   6.513   0.826   1.860 -0.2728 -0.0029 -0.0908
19613TIP3    H180254   6.494   0.778   1.779 -1.8370  1.6352 -0.7666
19613TIP3    H280255   6.511   0.759   1.928  3.0246 -1.7891 -1.5137
19614TIP3   OH280256   4.350   4.180   5.193 -0.5663  0.1022 -0.0992
19614TIP3    H180257   4.341   4.103   5.249 -0.0213 -0.3071 -0.5556
19614TIP3    H280258   4.403   4.149   5.119  0.8759  1.2736  0.3952
19615TIP3   OH280259   6.197   6.025  13.506 -0.3431 -0.1067  0.6376
19615TIP3    H180260   6.125   6.033  13.444 -1.1634 -0.4537  1.5239
19615TIP3    H280261   6.218   5.932  13.506  0.7948  0.1151 -0.3439
19616TIP3   OH280262   6.139   1.344  15.091  0.2124 -0.1768 -0.3058
19616TIP3    H180263   6.199   1.412  15.122 -0.3872  0.7510 -1.1285
19616TIP3    H280264   6.183   1.305  15.016  0.0580  0.0723 -0.5243
19617TIP3   OH280265   1.345   5.463  15.889 -0.1103  0.2899  0.3443
19617TIP3    H180266   1.419   5.473  15.828  1.4092 -2.4935  1.5300
19617TIP3    H280267   1.306   5.379  15.865 -0.0306 -0.4431  2.5445
19618TIP3   OH280268   0.649   3.431  16.577  0.4566 -0.1695  0.8696
19618TIP3    H180269   0.558   3.424  16.551  0.3738 -1.1817  1.3735
19618TIP3    H280270   0.698   3.422  16.495  0.1159 -0.3148  0.6776
19619TIP3   OH280271   1.542   1.413   3.241 -0.4186  0.0683  0.2220
19619TIP3    H180272   1.570   1.363   3.165 -1.7069 -0.1426 -0.1261
19619TIP3    H280273   1.546   1.505   3.213  0.1649  0.0618  0.2677
19620TIP3   OH280274   5.887   4.423  12.686 -0.2636 -0.0913  0.0152
19620TIP3    H180275   5.959   4.360  12.676 -1.0401 -1.2261  1.2434
19620TIP3    H280276   5.809   4.375  12.659 -0.7524  0.6841  0.0032
19621TIP3   OH280277   6.359   4.563   3.746 -0.0891  0.4567  0.3692
19621TIP3    H180278   6.279   4.592   3.792  0.1595  0.4485  0.8173
19621TIP3    H280279   6.341   4.472   3.723 -0.1740  0.4245  0.5560
19622TIP3   OH280280   5.233   4.414   2.009  0.4895 -0.0872 -0.1163
19622TIP3    H180281   5.190   4.380   2.087  0.2803 -0.7009 -0.4959
19622TIP3    H280282   5.276   4.495   2.038 -2.3274  1.5325 -0.0840
19623TIP3   OH280283   5.720   4.497  11.047  0.0372  0.2284  0.4047
19623TIP3    H180284   5.722   4.586  11.012  1.4037  0.3512  0.7685
19623TIP3    H280285   5.794   4.493  11.108  0.4190 -1.3710 -0.1232
19624TIP3   OH280286   1.786   1.618   4.279  0.7579  0.5225  0.4022
19624TIP3    H180287   1.798   1.684   4.212  0.8796  0.8467  0.7397
19624TIP3    H280288   1.862   1.628   4.337 -0.0528  1.2108  1.3915
19625TIP3   OH280289   5.526   1.618   5.880 -0.0750  0.3896 -0.1425
19625TIP3    H180290   5.592   1.550   5.864 -1.2642 -0.6689 -0.7289
19625TIP3    H280291   5.474   1.620   5.800  0.3646  2.5356 -0.4152
19626TIP3   OH280292   6.738   3.121  15.980 -0.0739 -0.4281  0.2707
19626TIP3    H180293   6.813   3.065  16.001  0.3160  1.1127  3.6910
19626TIP3    H280294   6.671   3.096  16.044 -0.8254  1.2271  0.1882
19627TIP3   OH280295   2.665   2.154  11.548 -0.1333 -0.0178 -0.0330
19627TIP3    H180296   2.635   2.182  11.634  1.3875 -0.3801  0.6533
19627TIP3    H280297   2.625   2.217  11.487 -0.6851  0.6580  0.9904
19628TIP3   OH280298   4.089   3.980   5.906 -0.0508  0.0878 -0.3793
19628TIP3    H180299   4.067   3.899   5.860 -3.2975  0.5315  0.1423
19628TIP3    H280300   4.047   3.971   5.992  2.7241  0.8320  1.1867
19629TIP3   OH280301   3.571   2.521   4.266  0.1771  0.2563  0.3139
19629TIP3    H180302   3.550   2.502   4.174  0.9346 -0.1794  0.2214
19629TIP3    H280303   3.630   2.451   4.292 -0.0308  0.3823  1.1414
19630TIP3   OH280304   1.802   4.901  14.424 -0.4330  0.2502  0.3141
19630TIP3    H180305   1.708   4.884  14.419 -0.7679  2.0447 -0.2338
19630TIP3    H280306   1.809   4.997  14.423  1.2989  0.2223  2.3972
19631TIP3   OH280307   3.204   4.016  13.615  0.3393 -0.3314  0.5170
19631TIP3    H180308   3.187   3.943  13.674 -0.4354 -0.7626 -0.2131
19631TIP3    H280309   3.263   4.073  13.663 -0.6511 -0.4276  1.9045
19632TIP3   OH280310   0.119   5.316   5.260  0.2745 -0.2605 -0.4421
19632TIP3    H180311   0.034   5.304   5.304  1.2024  0.5223  1.7510
19632TIP3    H280312   0.178   5.256   5.306  1.2587  0.4392 -0.7607
19633TIP3   OH280313   6.548   1.738  13.508  0.3523 -0.1183  0.1869
19633TIP3    H180314   6.553   1.799  13.434  0.5487  0.3492  0.5799
19633TIP3    H280315   6.553   1.652  13.468 -0.2859  0.1139 -0.4103
19634TIP3   OH280316   4.228   2.321  11.617 -0.0286 -0.3182 -0.5299
19634TIP3    H180317   4.307   2.367  11.589  1.8864 -1.9400  1.8271
19634TIP3    H280318   4.231   2.237  11.571 -0.3853 -0.3861 -0.4337
19635TIP3   OH280319   4.714   1.632   2.162 -0.3671  0.2488 -0.1280
19635TIP3    H180320   4.807   1.649   2.178 -0.2392  1.6481 -2.0065
19635TIP3    H280321   4.699   1.545   2.199  1.7041 -0.0414  0.1581
19636TIP3   OH280322   1.715   4.431   2.949 -0.2427 -0.4240 -0.2633
19636TIP3    H180323   1.810   4.433   2.948 -0.2433 -0.0469 -1.8210
19636TIP3    H280324   1.689   4.440   2.857 -1.8055  1.3939  0.2786
19637TIP3   OH280325   3.677   0.700   1.841 -0.3742 -0.1435  0.2626
19637TIP3    H180326   3.651   0.634   1.905 -1.1839 -0.2533 -0.1672
19637TIP3    H280327   3.613   0.692   1.770  1.9178 -1.7755 -1.8126
19638TIP3   OH280328   5.583   0.544  16.750  0.4384  0.7449 -0.0295
19638TIP3    H180329   5.573   0.512  16.660 -1.9972  1.8582 -0.2374
19638TIP3    H280330   5.517   0.612  16.758  2.2545  2.3951  1.8905
19639TIP3   OH280331   2.903   2.139  15.094 -0.3371 -0.2647 -0.0022
19639TIP3    H180332   2.995   2.159  15.082 -0.3480 -0.7044 -0.8392
19639TIP3    H280333   2.898   2.100  15.181 -0.2200  2.6564  1.4590
19640TIP3   OH280334   2.502   1.526  12.714  0.1178 -0.7068 -0.1860
19640TIP3    H180335   2.471   1.437  12.694 -1.1769 -0.4050  0.3409
19640TIP3    H280336   2.477   1.539  12.806  1.2970 -0.1922  0.0759
19641TIP3   OH280337   5.511   1.447  11.565 -0.0894  0.1097  0.1673
19641TIP3    H180338   5.417   1.462  11.576 -0.3150 -1.0543 -0.0562
19641TIP3    H280339   5.552   1.528  11.595 -1.1833  0.7856 -0.1217
19642TIP3   OH280340   4.565   4.711  12.559 -0.3450  0.3502 -0.6200
19642TIP3    H180341   4.576   4.690  12.467 -0.4892 -1.5925 -0.2371
19642TIP3    H280342   4.489   4.768  12.562 -0.5243  0.1823 -1.6839
19643TIP3   OH280343   0.563   2.396  15.151 -0.2173  0.2171  0.0640
19643TIP3    H180344   0.560   2.420  15.244  0.4199 -0.3678  0.2418
19643TIP3    H280345   0.473   2.403  15.121 -0.6601 -0.9293  1.0745
19644TIP3   OH280346   1.844   3.892  16.914 -0.4945 -0.0123  0.0134
19644TIP3    H180347   1.899   3.930  16.983 -2.4647  1.5434  0.8246
19644TIP3    H280348   1.850   3.798  16.928  4.3543 -0.3054 -1.8958
19645TIP3   OH280349   3.381   4.951   3.544 -0.2403  0.1486  0.2345
19645TIP3    H180350   3.420   4.952   3.631  0.4295  0.3154 -0.0602
19645TIP3    H280351   3.358   5.042   3.527 -1.2587 -0.0289  0.6229
19646TIP3   OH280352   2.286   2.493  12.042  0.0051  0.0153 -0.6141
19646TIP3    H180353   2.226   2.431  12.084 -0.0005 -0.2192 -0.9641
19646TIP3    H280354   2.371   2.450  12.046 -0.2998 -0.8917 -2.5399
19647TIP3   OH280355   2.053   4.122   6.182 -0.2483  0.2568 -0.1189
19647TIP3    H180356   2.030   4.058   6.116  1.3947 -1.0505  0.4942
19647TIP3    H280357   2.062   4.072   6.263  0.9225  1.2513  0.4157
19648TIP3   OH280358   1.561   4.158   4.206  0.5200 -0.8691  0.3952
19648TIP3    H180359   1.581   4.203   4.287  0.0552 -1.5391  0.8944
19648TIP3    H280360   1.643   4.161   4.156  0.0860  1.9664 -0.3300
19649TIP3   OH280361   4.595   3.935  11.741  0.0482 -0.0518  0.0557
19649TIP3    H180362   4.575   3.878  11.815 -0.9396 -1.0144 -0.8910
19649TIP3    H280363   4.677   3.978  11.764 -0.3053 -0.2221  1.7434
19650TIP3   OH280364   4.750   1.614  12.186 -0.0807 -0.2941  0.5760
19650TIP3    H180365   4.674   1.670  12.169  1.7198  2.2518  0.4375
19650TIP3    H280366   4.790   1.650  12.265  1.6968 -0.7393 -0.0700
19651TIP3   OH280367   2.549   5.089   0.884 -0.1805  0.1519 -0.8989
19651TIP3    H180368   2.540   5.118   0.974 -3.3737  3.1178 -1.9585
19651TIP3    H280369   2.468   5.040   0.866 -0.2145  0.7260 -2.4832
19652TIP3   OH280370   4.876   0.584  14.901 -0.6161  0.1371  0.1353
19652TIP3    H180371   4.858   0.499  14.942  0.0182  0.4006  0.9669
19652TIP3    H280372   4.844   0.574  14.811 -0.1392 -1.1285  0.0947
19653TIP3   OH280373   4.978   4.566   5.239  0.2407 -0.6258 -0.5213
19653TIP3    H180374   5.041   4.636   5.255 -0.8799  0.1584  0.6124
19653TIP3    H280375   4.944   4.585   5.152  0.7737 -0.4374 -0.6982
19654TIP3   OH280376   2.089   1.435   4.052 -0.3924 -0.0563  0.1527
19654TIP3    H180377   2.103   1.521   4.013  0.3723 -0.6620 -0.9376
19654TIP3    H280378   2.164   1.423   4.109 -0.3979 -0.0972  0.1511
19655TIP3   OH280379   2.167   0.023   6.204 -0.4224  0.3890 -0.6109
19655TIP3    H180380   2.153   0.070   6.286 -3.4099  0.6394 -1.1246
19655TIP3    H280381   2.257   0.043   6.179  0.2135  1.1661  2.0427
19656TIP3   OH280382   5.372   6.713  12.434  0.8517 -0.0873 -0.1943
19656TIP3    H180383   5.308   6.666  12.487 -3.4246  4.1411 -0.8993
19656TIP3    H280384   5.452   6.713  12.487 -1.0171 -1.9652  2.9337
19657TIP3   OH280385   5.929   3.222   2.189  0.2378  0.3219 -0.1138
19657TIP3    H180386   5.875   3.296   2.159  0.0694 -0.5076 -1.9500
19657TIP3    H280387   5.870   3.147   2.186 -0.1248  0.2847  3.4290
19658TIP3   OH280388   5.403   2.060  15.990 -0.1593 -0.4611 -0.1507
19658TIP3    H180389   5.413   2.004  15.914 -0.8905  0.8776 -1.2784
19658TIP3    H280390   5.484   2.111  15.993 -0.7632  0.5866 -0.9958
19659TIP3   OH280391   3.531   3.292  12.229  0.3287  0.5328 -0.4398
19659TIP3    H180392   3.537   3.356  12.300  0.5681 -0.3001  0.3186
19659TIP3    H280393   3.512   3.209  12.274 -0.2547  0.1173 -1.4189
19660TIP3   OH280394   2.991   1.003   1.381 -0.1274 -0.0428 -0.2550
19660TIP3    H180395   2.948   1.070   1.434  1.8089 -1.0846  2.8689
19660TIP3    H280396   3.007   1.046   1.297 -0.9705  2.6236  0.8414
19661TIP3   OH280397   2.812   5.269  14.080  0.0595 -0.7941 -0.0516
19661TIP3    H180398   2.820   5.240  13.989  0.6173 -1.3754  0.1669
19661TIP3    H280399   2.874   5.341  14.088  0.8814 -1.4952  0.1458
19662TIP3   OH280400   6.729   2.576  13.199  0.4902 -0.3817  0.1652
19662TIP3    H180401   6.781   2.631  13.141  1.6413 -0.7970  0.7579
19662TIP3    H280402   6.732   2.489  13.159 -0.2989 -0.2747 -0.1337
19663TIP3   OH280403   6.309   6.756   4.332  0.7934 -0.0375 -0.0282
19663TIP3    H180404   6.233   6.743   4.275 -0.4659  1.5739  1.2039
19663TIP3    H280405   6.275   6.746   4.420  2.3812 -0.8965  0.5273
19664TIP3   OH280406   5.338   5.459   6.067  0.2735 -0.3398  0.1244
19664TIP3    H180407   5.264   5.455   6.129 -0.3465 -0.9145 -0.6255
19664TIP3    H280408   5.416   5.462   6.123 -0.3332  0.7796  0.9396
19665TIP3   OH280409   2.621   1.688   2.629 -0.6427 -0.0870  0.0612
19665TIP3    H180410   2.644   1.765   2.681 -1.2659  0.4032 -0.3779
19665TIP3    H280411   2.684   1.689   2.556 -0.8108  0.1645 -0.0855
19666TIP3   OH280412   4.784   1.533  16.370 -0.0970 -0.2053 -0.3756
19666TIP3    H180413   4.804   1.603  16.433  0.8646 -1.2532  0.5292
19666TIP3    H280414   4.863   1.525  16.318 -0.6482  0.1826 -1.3002
19667TIP3   OH280415   4.935   6.709  14.949  0.2908 -0.5189  0.4547
19667TIP3    H180416   4.859   6.692  14.893  0.8518 -1.6610  0.0116
19667TIP3    H280417   4.992   6.764  14.894  0.3164 -0.6531  0.3473
19668TIP3   OH280418   2.712   5.623  14.396  0.4614 -0.1744  0.7817
19668TIP3    H180419   2.662   5.555  14.351 -0.1258 -1.2106  2.8491
19668TIP3    H280420   2.803   5.598  14.382  0.3360  0.1054 -0.6363
19669TIP3   OH280421   5.186   5.118  11.806 -0.6788  0.1275 -0.4638
19669TIP3    H180422   5.127   5.058  11.850 -2.5019  0.8056 -1.8386
19669TIP3    H280423   5.200   5.189  11.869  0.2363 -0.9378  0.5753
19670TIP3   OH280424   4.546   6.719   2.681 -0.1136 -0.0318 -0.0909
19670TIP3    H180425   4.570   6.685   2.767  1.9213 -0.9833 -0.9539
19670TIP3    H280426   4.490   6.652   2.643  0.4893 -0.4996 -0.1811
19671TIP3   OH280427   1.753   4.607  14.404  0.2323 -0.4964  0.0901
19671TIP3    H180428   1.673   4.659  14.400 -0.7071 -1.9273 -0.9281
19671TIP3    H280429   1.819   4.662  14.362 -0.9865 -0.4907 -1.9776
19672TIP3   OH280430   4.034   6.195  15.249 -0.1647  0.2965 -0.0749
19672TIP3    H180431   4.005   6.157  15.332 -1.3481  0.2004 -0.5167
19672TIP3    H280432   4.129   6.204  15.259 -0.0343 -1.4334  0.5853
19673TIP3   OH280433   4.767   0.189  13.189 -0.7209 -0.0757 -0.2001
19673TIP3    H180434   4.792   0.103  13.154 -0.0397  0.6465 -1.5322
19673TIP3    H280435   4.850   0.231  13.213 -1.0196  0.4020  0.0205
19674TIP3   OH280436   1.021   5.540   1.471  0.3815  0.0139 -0.0174
19674TIP3    H180437   1.014   5.606   1.402  1.5188 -0.4117 -0.5665
19674TIP3    H280438   0.948   5.560   1.530 -0.4971  0.5246 -1.2124
19675TIP3   OH280439   2.961   3.662   3.911  0.1735 -0.0542  0.5383
19675TIP3    H180440   2.874   3.624   3.903  1.0099 -1.9749 -0.1703
19675TIP3    H280441   2.947   3.747   3.952 -1.7998 -1.2381  2.5122
19676TIP3   OH280442   0.226   5.852  13.014 -0.8211 -0.2481 -0.0652
19676TIP3    H180443   0.307   5.855  13.066 -0.3598  0.4680 -0.8045
19676TIP3    H280444   0.189   5.766  13.033  0.0850 -0.5615  0.3343
19677TIP3   OH280445   0.769   3.810   2.639 -0.6511 -0.1269  0.2054
19677TIP3    H180446   0.700   3.871   2.664 -0.0183  0.7543 -0.1521
19677TIP3    H280447   0.817   3.792   2.721  0.5933  1.7062 -0.0556
19678TIP3   OH280448   6.321   0.215  15.276 -0.4860  0.0533  1.0168
19678TIP3    H180449   6.376   0.291  15.255  1.6185 -2.1138 -2.0728
19678TIP3    H280450   6.232   0.243  15.250  0.2689  1.4129 -0.2818
19679TIP3   OH280451   1.068   2.208  10.548 -0.1069  0.1025  0.3094
19679TIP3    H180452   1.047   2.293  10.586 -2.2952 -0.2035 -0.0542
19679TIP3    H280453   1.158   2.216  10.518 -0.4232  2.4565 -0.1722
19680TIP3   OH280454   6.048   2.198  10.993 -0.4464  0.2464  0.7165
19680TIP3    H180455   5.974   2.206  10.933 -1.2968 -1.9129  1.3398
19680TIP3    H280456   6.111   2.264  10.965 -1.5477  0.4490 -1.4257
19681TIP3   OH280457   3.677   2.631   3.297  0.0013 -0.4405 -0.5404
19681TIP3    H180458   3.601   2.664   3.249 -1.5403 -0.3819  1.7852
19681TIP3    H280459   3.693   2.544   3.261 -2.7243 -1.4544  0.5154
19682TIP3   OH280460   5.401   1.667  11.968  0.1021  0.0927  0.2923
19682TIP3    H180461   5.494   1.678  11.949  0.3765 -0.0862  1.4729
19682TIP3    H280462   5.388   1.709  12.053 -0.9715  0.4204 -0.0206
19683TIP3   OH280463   1.450   4.683   2.714  0.0812 -0.0651 -1.2408
19683TIP3    H180464   1.467   4.712   2.803 -1.4002  0.8424 -1.2153
19683TIP3    H280465   1.493   4.598   2.708  0.1226 -0.1902  0.3747
19684TIP3   OH280466   2.067   2.673   2.296  0.1536  0.1890  0.5761
19684TIP3    H180467   2.106   2.725   2.366 -2.6363  1.7438  1.1068
19684TIP3    H280468   2.054   2.734   2.224 -4.0859  0.7222  1.5494
19685TIP3   OH280469   5.884   6.550   3.980 -0.2098 -0.9308  0.3275
19685TIP3    H180470   5.834   6.491   3.924 -0.5941 -0.7691  0.5037
19685TIP3    H280471   5.821   6.585   4.042  0.2881 -1.3986  1.1156
19686TIP3   OH280472   1.212   5.602  13.346  0.0541  0.2106 -0.4153
19686TIP3    H180473   1.127   5.609  13.389  0.2199  3.3083 -0.3915
19686TIP3    H280474   1.203   5.655  13.267  2.1844  1.2613 -0.0043
19687TIP3   OH280475   1.972   4.858  15.650  0.2851  0.2898 -0.2649
19687TIP3    H180476   2.031   4.891  15.717  0.5802  0.6508 -0.6929
19687TIP3    H280477   2.005   4.770  15.629  1.2176  0.8165 -1.1185
19688TIP3   OH280478   5.127   4.081  11.344 -0.0962  0.0644 -0.0017
19688TIP3    H180479   5.057   4.027  11.380  0.4438 -0.3962  0.3730
19688TIP3    H280480   5.088   4.168  11.334 -1.0595 -0.4477 -0.8620
19689TIP3   OH280481   3.503   3.345  10.617  0.3050 -0.2374  0.1721
19689TIP3    H180482   3.564   3.273  10.601  0.1090 -0.2435 -0.6260
19689TIP3    H280483   3.551   3.423  10.591 -0.1056 -0.2689 -0.7205
19690TIP3   OH280484   0.459   3.374  14.146 -0.1994  0.4867  0.0005
19690TIP3    H180485   0.511   3.418  14.079 -2.9257  0.9067 -2.0329
19690TIP3    H280486   0.522   3.320  14.194  1.8784 -0.4067 -3.3804
19691TIP3   OH280487   6.373   3.742   2.733  0.2597  0.2604  0.0667
19691TIP3    H180488   6.460   3.715   2.760  0.0851 -0.1121  0.2717
19691TIP3    H280489   6.384   3.772   2.643  0.6311  0.3845  0.1530
19692TIP3   OH280490   1.929   5.227   4.163 -0.1040 -0.0606  0.7527
19692TIP3    H180491   1.873   5.215   4.086 -0.3460  2.2238  0.4969
19692TIP3    H280492   1.891   5.170   4.230 -1.7979  0.2732  0.1190
19693TIP3   OH280493   4.082   1.493   2.196  0.1666  0.3586  0.4380
19693TIP3    H180494   4.124   1.418   2.153  1.1757  1.3690 -0.4438
19693TIP3    H280495   4.020   1.526   2.131  0.8714  1.2062  0.1648
19694TIP3   OH280496   2.061   0.642   1.507  0.2727  0.2092  0.1693
19694TIP3    H180497   1.993   0.659   1.442  0.1482  1.2547  0.5533
19694TIP3    H280498   2.126   0.710   1.492  0.2490  0.4665  1.1112
19695TIP3   OH280499   4.047   5.436  12.024  0.7072 -0.5403  0.3414
19695TIP3    H180500   4.091   5.448  12.108  1.4932  1.3680 -0.2819
19695TIP3    H280501   4.101   5.371  11.978  1.2629 -0.3136  0.6645
19696TIP3   OH280502   3.950   4.283  17.123 -0.2547  0.0438 -0.3532
19696TIP3    H180503   3.961   4.284  17.218  0.0753  0.2829 -0.3924
19696TIP3    H280504   3.983   4.368  17.094 -1.1667  0.3324 -0.5967
19697TIP3   OH280505   3.514   4.937   3.781 -0.6969  0.0422  0.4144
19697TIP3    H180506   3.569   5.015   3.782 -0.0420 -0.3770 -1.0974
19697TIP3    H280507   3.483   4.929   3.871  2.0296  0.0877  1.4563
19698TIP3   OH280508   3.353   3.840   2.263  0.4274  0.4807  0.6412
19698TIP3    H180509   3.373   3.873   2.350  3.0461 -0.6584  0.5426
19698TIP3    H280510   3.299   3.762   2.278  1.6484 -0.2559  1.3094
19699TIP3   OH280511   5.332   2.059  12.133  0.5541  0.1904 -0.6630
19699TIP3    H180512   5.320   1.983  12.190 -2.5448  1.2866  0.3471
19699TIP3    H280513   5.283   2.037  12.053 -0.4770  1.1243 -0.3119
19700TIP3   OH280514   0.294   4.983  11.759  0.0320  0.5845  0.6288
19700TIP3    H180515   0.299   4.954  11.668 -1.3830 -0.3206  0.8118
19700TIP3    H280516   0.353   4.924  11.806 -0.7150 -0.2266  0.5736
19701TIP3   OH280517   5.239   5.274  15.349  0.1588  0.1675 -0.9014
19701TIP3    H180518   5.251   5.188  15.309  0.6189  0.2228 -0.8874
19701TIP3    H280519   5.319   5.287  15.401  0.0743  0.5853 -0.8774
19702TIP3   OH280520   3.845   6.388  11.803  0.8247 -0.3521  0.4860
19702TIP3    H180521   3.757   6.414  11.777  0.9039 -1.3340 -0.8726
19702TIP3    H280522   3.838   6.370  11.897 -0.0125  1.1649  0.7371
19703TIP3   OH280523   1.649   5.432  14.499 -0.1177  0.6928  0.0396
19703TIP3    H180524   1.706   5.381  14.557  1.3862  0.4912 -1.5235
19703TIP3    H280525   1.629   5.373  14.427 -0.0048  1.6534 -0.7969
19704TIP3   OH280526   2.098   2.654  13.100  0.7604 -0.0016 -0.4096
19704TIP3    H180527   2.021   2.652  13.043  0.9575 -2.2113 -0.6820
19704TIP3    H280528   2.089   2.735  13.150 -1.9313 -0.3788 -0.1581
19705TIP3   OH280529   1.437   1.418   4.947 -0.3118  0.0137  0.3972
19705TIP3    H180530   1.426   1.501   4.899  0.3892  0.0884  0.3582
19705TIP3    H280531   1.417   1.440   5.038  1.1433  0.5447  0.6132
19706TIP3   OH280532   3.340   4.967  11.696  0.4159  0.3597 -0.2557
19706TIP3    H180533   3.298   5.045  11.662  0.1804  0.0363 -0.7220
19706TIP3    H280534   3.363   4.916  11.618  0.0876 -0.2774  0.0497
19707TIP3   OH280535   1.226   0.241  11.863 -0.0749  0.3090  0.2230
19707TIP3    H180536   1.156   0.256  11.799  0.6606 -1.1274 -0.9750
19707TIP3    H280537   1.263   0.156  11.839  1.8319  0.8494  1.0574
19708TIP3   OH280538   4.973   0.127   0.318 -0.4261  0.1019  0.2186
19708TIP3    H180539   4.909   0.197   0.322  0.4465  0.9369 -0.0722
19708TIP3    H280540   5.050   0.166   0.276  0.2050 -0.9227  0.3679
19709TIP3   OH280541   5.730   6.380  16.285 -0.2592  0.4373  0.0003
19709TIP3    H180542   5.762   6.323  16.216 -1.4699  0.3526 -0.5144
19709TIP3    H280543   5.635   6.380  16.274 -0.4580  0.6232  1.5049
19710TIP3   OH280544   2.351   2.731  14.193 -0.4351 -0.9179  0.0381
19710TIP3    H180545   2.368   2.668  14.263  1.1782  0.1764  0.6939
19710TIP3    H280546   2.256   2.730  14.182 -0.5062 -2.8987  0.5318
19711TIP3   OH280547   5.993   4.886   6.145 -0.2615  0.0216  0.0366
19711TIP3    H180548   5.905   4.850   6.129  0.1314 -0.7679 -0.4104
19711TIP3    H280549   5.989   4.921   6.234 -0.5308 -1.5977  0.6969
19712TIP3   OH280550   4.288   2.938  15.527  0.0342  0.6026 -0.3149
19712TIP3    H180551   4.264   2.936  15.620 -2.4689 -1.9530 -0.8661
19712TIP3    H280552   4.334   2.856  15.512  2.2319  1.8736 -1.0362
19713TIP3   OH280553   1.383   3.430   0.699 -0.6552 -0.2560 -0.2508
19713TIP3    H180554   1.346   3.365   0.638 -1.5098  0.3296 -0.3884
19713TIP3    H280555   1.327   3.507   0.687  0.8128  0.7846 -0.6734
19714TIP3   OH280556   0.781   2.785  14.859  0.2150  0.6125 -0.1270
19714TIP3    H180557   0.755   2.781  14.767  1.2706 -0.9868 -0.4033
19714TIP3    H280558   0.729   2.716  14.902 -0.6932  1.7243  0.6126
19715TIP3   OH280559   2.619   2.266  16.185  0.1921 -0.4116  0.1306
19715TIP3    H180560   2.686   2.268  16.117  0.9825  0.4799  0.9227
19715TIP3    H280561   2.557   2.199  16.155  0.6151 -0.1614 -1.3749
19716TIP3   OH280562   2.819   5.032   1.407 -0.1492  0.1129 -0.0006
19716TIP3    H180563   2.910   5.017   1.434 -0.0728  3.2458  1.9292
19716TIP3    H280564   2.823   5.037   1.311  1.8288  0.7703  0.0706
19717TIP3   OH280565   4.331   4.734   6.101  0.0621  0.3698 -0.1470
19717TIP3    H180566   4.300   4.684   6.177 -1.3945  0.6896 -0.5192
19717TIP3    H280567   4.421   4.703   6.088 -0.2389 -0.9272  0.6732
19718TIP3   OH280568   2.302   1.917  14.903  0.1936  0.5951  0.1081
19718TIP3    H180569   2.352   1.906  14.822  1.0514  1.1958  0.5404
19718TIP3    H280570   2.277   1.828  14.928  2.4627  0.0616  0.7418
19719TIP3   OH280571   3.011   4.302  11.437  0.4069  0.0850  0.2510
19719TIP3    H180572   3.061   4.281  11.358  0.4462 -0.4846  0.4193
19719TIP3    H280573   2.920   4.294  11.410  0.4195 -0.6410  0.3870
19720TIP3   OH280574   5.212   0.166   4.105 -0.2325  0.6553 -0.0402
19720TIP3    H180575   5.171   0.250   4.128  0.7981  1.6257 -1.5192
19720TIP3    H280576   5.286   0.191   4.051 -0.0235 -1.2559 -0.6867
19721TIP3   OH280577   3.326   4.581   3.781 -0.2994  0.2225  0.5566
19721TIP3    H180578   3.258   4.524   3.744 -2.1588  1.3182  2.0939
19721TIP3    H280579   3.386   4.598   3.708  0.7210 -4.0887  0.1215
19722TIP3   OH280580   0.851   5.282   2.955 -0.2488 -0.1982 -0.0681
19722TIP3    H180581   0.805   5.204   2.926  0.1521 -0.5631  0.2593
19722TIP3    H280582   0.930   5.285   2.901  0.5721 -0.9587  1.0382
19723TIP3   OH280583   4.227   4.579  14.029 -0.4401 -0.2339 -0.0306
19723TIP3    H180584   4.219   4.554  13.937 -0.6916  0.9530 -0.3436
19723TIP3    H280585   4.137   4.583  14.061 -0.4633  1.1673 -0.2424
19724TIP3   OH280586   1.149   1.494  16.543  0.1116  0.3578 -0.0659
19724TIP3    H180587   1.056   1.494  16.518  0.0301 -0.3630  0.1982
19724TIP3    H280588   1.158   1.418  16.600  0.9406  0.2375 -0.3423
19725TIP3   OH280589   2.631   5.623   1.062  0.2629  0.0023  0.6031
19725TIP3    H180590   2.663   5.536   1.084  0.2483 -0.3209 -0.5984
19725TIP3    H280591   2.606   5.617   0.970 -0.7642  0.9810  0.7992
19726TIP3   OH280592   0.283   3.808  13.191  0.2577  0.0253  0.2054
19726TIP3    H180593   0.362   3.789  13.243  1.1316  1.4279 -0.5674
19726TIP3    H280594   0.312   3.804  13.100 -0.9772 -1.1356 -0.1771
19727TIP3   OH280595   0.121   0.402   6.006  0.2488 -0.0827  0.1639
19727TIP3    H180596   0.070   0.339   6.056  0.4247  0.5206  1.1451
19727TIP3    H280597   0.088   0.395   5.917  1.1283 -2.4541 -0.0401
19728TIP3   OH280598   5.398   4.243   1.856  1.1262 -0.4229 -0.1861
19728TIP3    H180599   5.448   4.246   1.938 -1.5921 -0.6214  1.6182
19728TIP3    H280600   5.330   4.310   1.867  1.4862  0.5145 -2.9253
19729TIP3   OH280601   4.509   5.973   4.207  0.5759  0.5584 -0.1958
19729TIP3    H180602   4.437   5.960   4.269  1.6503  1.5712  1.3397
19729TIP3    H280603   4.588   5.962   4.260  1.5973 -1.0601 -1.9461
19730TIP3   OH280604   2.835   3.733  16.599  0.2381 -0.7118 -0.5861
19730TIP3    H180605   2.924   3.698  16.591  1.0875  0.6972  1.6206
19730TIP3    H280606   2.783   3.658  16.626  1.3661 -1.0443  0.8446
19731TIP3   OH280607   0.633   6.700   2.934  0.2968  0.2537 -0.0604
19731TIP3    H180608   0.586   6.727   2.854 -1.2711  1.6093  1.2291
19731TIP3    H280609   0.652   6.783   2.979  0.0896 -0.5243  1.5256
19732TIP3   OH280610   6.486   0.854   5.371 -0.0045  0.6636  0.0754
19732TIP3    H180611   6.467   0.782   5.430  1.2372 -0.2801 -0.6097
19732TIP3    H280612   6.560   0.899   5.411  1.0250 -0.1488 -0.8425
19733TIP3   OH280613   1.053   2.002   1.029  0.2446 -0.5415  0.0128
19733TIP3    H180614   0.963   2.017   0.997 -0.3294  0.4925  1.9627
19733TIP3    H280615   1.043   1.991   1.123  2.3246  1.3122  0.5300
19734TIP3   OH280616   4.959   0.854  10.591 -0.3892 -0.5786 -0.4045
19734TIP3    H180617   4.952   0.885  10.681  1.9121 -0.6383 -0.1491
19734TIP3    H280618   4.899   0.780  10.586  0.4878 -1.4942  1.5359
19735TIP3   OH280619   4.204   1.934   3.129 -0.2457  0.6603  0.1529
19735TIP3    H180620   4.280   1.992   3.138  1.8195 -2.1244  2.5980
19735TIP3    H280621   4.195   1.921   3.034  2.0931  1.4172 -0.2438
19736TIP3   OH280622   4.257   0.315  17.335  0.5386 -0.1488  0.2346
19736TIP3    H180623   4.345   0.327  17.300  0.1798  0.9330 -0.3168
19736TIP3    H280624   4.254   0.370  17.413  0.4848 -0.5362  0.5137
19737TIP3   OH280625   1.167   4.810  17.103  0.0724  0.3404  0.5053
19737TIP3    H180626   1.116   4.730  17.090  1.0984 -0.4443  1.2167
19737TIP3    H280627   1.240   4.784  17.159  0.5084  1.7453  0.6354
19738TIP3   OH280628   4.262   4.439  15.147  0.4915 -0.5359 -0.9449
19738TIP3    H180629   4.231   4.412  15.061 -0.9999 -0.0641 -0.5763
19738TIP3    H280630   4.266   4.534  15.143 -0.8985 -0.4099 -0.0954
19739TIP3   OH280631   2.657   1.363   5.617  0.1892 -0.5316 -0.2091
19739TIP3    H180632   2.697   1.402   5.539 -1.7458 -0.3097 -1.1275
19739TIP3    H280633   2.645   1.271   5.593 -0.3806 -0.4686 -0.1741
19740TIP3   OH280634   1.177   0.556  15.985 -0.4806 -0.7518  1.1810
19740TIP3    H180635   1.264   0.550  16.025 -0.7661 -0.2783  1.9063
19740TIP3    H280636   1.160   0.468  15.950  1.4646 -0.1549 -1.5768
19741TIP3   OH280637   0.171   2.634  13.408  0.6068  0.2763 -0.0056
19741TIP3    H180638   0.219   2.655  13.329  0.0152 -2.3820 -1.1587
19741TIP3    H280639   0.079   2.630  13.380  0.3192 -0.1259  0.9447
19742TIP3   OH280640   3.455   5.830  15.247 -0.0842 -0.3429  0.9013
19742TIP3    H180641   3.527   5.811  15.187 -1.0866 -1.3634 -0.0149
19742TIP3    H280642   3.449   5.925  15.248 -0.1568 -0.3022 -0.7867
19743TIP3   OH280643   0.176   2.184  13.358  0.0154 -0.2766  0.2493
19743TIP3    H180644   0.105   2.241  13.388  2.2752  2.4585  0.7465
19743TIP3    H280645   0.189   2.122  13.429 -2.6493 -1.7763 -0.3996
19744TIP3   OH280646   1.525   5.803   2.713 -0.3642 -0.1983 -0.6475
19744TIP3    H180647   1.560   5.888   2.742  0.9007 -0.1806 -2.1210
19744TIP3    H280648   1.571   5.738   2.766 -1.0662 -0.0155  0.2222
19745TIP3   OH280649   4.139   2.244   5.558 -0.3418  0.9361  0.0993
19745TIP3    H180650   4.132   2.318   5.618 -1.0828  1.2812 -0.4030
19745TIP3    H280651   4.076   2.263   5.489  1.5405  1.2976 -1.5899
19746TIP3   OH280652   5.769   5.149   4.755  0.0319  0.5454 -0.0296
19746TIP3    H180653   5.717   5.080   4.796  0.0143  1.0959  0.9199
19746TIP3    H280654   5.720   5.173   4.677 -1.7207  1.7324  1.3380
19747TIP3   OH280655   1.469   5.786   4.138 -0.0504 -0.1534 -0.3976
19747TIP3    H180656   1.494   5.871   4.174  0.2486  0.4376 -1.9385
19747TIP3    H280657   1.551   5.741   4.121  0.0534  0.9332 -3.4237
19748TIP3   OH280658   0.536   2.338  14.407 -0.0690  0.2626  0.3131
19748TIP3    H180659   0.441   2.343  14.411 -0.3667 -1.0806 -2.5309
19748TIP3    H280660   0.566   2.429  14.408 -1.3942  0.7041  0.9998
19749TIP3   OH280661   3.437   1.616   1.067 -0.1119  0.0111  0.3831
19749TIP3    H180662   3.453   1.608   0.973  0.5847 -1.0012  0.5613
19749TIP3    H280663   3.477   1.537   1.105 -0.6595  0.2419  1.4944
19750TIP3   OH280664   4.450   0.217   2.628 -0.0604 -0.5731 -0.0142
19750TIP3    H180665   4.525   0.256   2.674  0.0878 -0.4422 -0.3654
19750TIP3    H280666   4.461   0.122   2.639  0.4182 -0.5726 -0.4717
19751TIP3   OH280667   0.265   3.346  11.962  0.6104 -0.1825 -0.5002
19751TIP3    H180668   0.317   3.425  11.945  1.7866 -1.1111 -1.3520
19751TIP3    H280669   0.306   3.278  11.909 -0.7204 -1.2562 -0.2071
19752TIP3   OH280670   4.974   4.590   2.580 -0.6316 -0.1865  0.1242
19752TIP3    H180671   5.019   4.518   2.625 -2.7281 -0.9365  1.1578
19752TIP3    H280672   4.993   4.577   2.487 -0.2063 -1.5062  0.3850
19753TIP3   OH280673   4.008   6.199  14.501  0.9332  1.2421  0.0794
19753TIP3    H180674   3.940   6.211  14.568  0.5597  0.0082 -0.0576
19753TIP3    H280675   4.068   6.273  14.515  0.3321  1.5627  1.1293
19754TIP3   OH280676   4.426   0.192   3.824  0.3986  0.4617 -0.1198
19754TIP3    H180677   4.518   0.169   3.818 -0.0005 -1.0906 -0.8373
19754TIP3    H280678   4.400   0.161   3.911  0.1238 -0.9611 -0.6682
19755TIP3   OH280679   5.226   3.418  17.026  0.7241 -0.1019 -0.1106
19755TIP3    H180680   5.240   3.333  16.985  2.6140 -0.2155  0.6519
19755TIP3    H280681   5.299   3.427  17.087  0.9845  2.3750 -0.6809
19756TIP3   OH280682   2.742   0.807   5.646  0.0053 -1.3270 -0.5099
19756TIP3    H180683   2.734   0.774   5.735  1.5844  1.0154  0.6047
19756TIP3    H280684   2.829   0.779   5.616  0.8494  0.5627 -0.0082
19757TIP3   OH280685   5.766   6.401  15.797  0.3020 -0.1587 -0.7957
19757TIP3    H180686   5.745   6.445  15.715 -1.0152  1.6788  0.4569
19757TIP3    H280687   5.719   6.318  15.793 -0.0261  0.0619 -1.7505
19758TIP3   OH280688   2.521   6.132   1.184  0.1096 -0.5399 -0.6486
19758TIP3    H180689   2.437   6.088   1.179  1.5570 -3.4226 -2.4641
19758TIP3    H280690   2.541   6.157   1.094  0.7955  1.0304 -0.1013
19759TIP3   OH280691   2.168   6.597  12.503  0.1570 -0.1183 -0.1908
19759TIP3    H180692   2.145   6.677  12.551  0.8592  0.7558 -1.2629
19759TIP3    H280693   2.258   6.579  12.530  0.2288 -0.1588 -0.4578
19760TIP3   OH280694   2.946   1.690  12.849 -0.2482 -0.4847  0.1093
19760TIP3    H180695   2.934   1.619  12.785 -0.3978  1.0670 -1.6572
19760TIP3    H280696   2.858   1.708  12.881 -0.3572 -0.3792 -0.2446
19761TIP3   OH280697   5.621   6.195   0.889  1.1059  0.1776  0.3880
19761TIP3    H180698   5.596   6.108   0.921  2.0411  0.4887  2.0671
19761TIP3    H280699   5.555   6.254   0.926  1.0018  0.2991  0.0133
19762TIP3   OH280700   1.449   2.482   5.797  0.3848  0.0032 -0.8214
19762TIP3    H180701   1.386   2.412   5.776 -0.1798  0.8680 -2.1475
19762TIP3    H280702   1.394   2.557   5.819  0.9924  0.1172  0.3656
19763TIP3   OH280703   3.349   0.705  11.560 -0.4039 -0.7007 -0.5628
19763TIP3    H180704   3.360   0.779  11.500  0.9385 -1.2312 -1.0045
19763TIP3    H280705   3.327   0.631  11.504 -3.1850 -0.4238 -0.0038
19764TIP3   OH280706   3.391   2.694  15.329  0.0136  0.2080  0.1391
19764TIP3    H180707   3.309   2.649  15.346  0.3825 -0.5752 -0.0961
19764TIP3    H280708   3.458   2.636  15.364  0.5546  0.1735 -0.9013
19765TIP3   OH280709   5.475   6.317   0.098 -0.3893  0.4717 -0.5557
19765TIP3    H180710   5.494   6.290   0.188  1.5272 -2.5191 -1.7056
19765TIP3    H280711   5.532   6.393   0.083 -1.2872  1.4884  0.9199
19766TIP3   OH280712   2.385   2.397   4.904  0.3328  0.4708 -0.3146
19766TIP3    H180713   2.432   2.314   4.909  0.5952  0.6609  0.4384
19766TIP3    H280714   2.307   2.385   4.958 -0.2207  0.3356 -1.1305
19767TIP3   OH280715   5.044   5.147  16.283 -0.1435 -0.4552 -0.3455
19767TIP3    H180716   5.121   5.115  16.238  0.1907 -0.6739  0.3602
19767TIP3    H280717   5.057   5.242  16.289 -1.4942  0.0054 -3.1120
19768TIP3   OH280718   0.390   0.247   2.402  0.1114 -0.0999 -0.1944
19768TIP3    H180719   0.309   0.197   2.397  0.1778 -0.3894  1.1592
19768TIP3    H280720   0.391   0.300   2.322 -1.6634  0.3057  0.0119
19769TIP3   OH280721   1.020   4.754   4.757  0.2683  0.3660 -0.5933
19769TIP3    H180722   0.957   4.698   4.802  0.9987  0.2042  0.2498
19769TIP3    H280723   1.053   4.813   4.824 -1.3204  2.6629 -1.6898
19770TIP3   OH280724   1.643   0.323   5.694 -0.4523  0.0344  0.8402
19770TIP3    H180725   1.558   0.323   5.651 -1.5648  1.6409  2.9033
19770TIP3    H280726   1.651   0.234   5.730 -1.1774 -0.1692  0.5213
19771TIP3   OH280727   5.680   0.841   4.439 -0.1719 -0.4915 -0.1018
19771TIP3    H180728   5.687   0.859   4.532 -0.3601  0.8184 -0.3249
19771TIP3    H280729   5.722   0.755   4.428  0.2909 -0.4364  1.0967
19772TIP3   OH280730   2.511   5.092  13.754  0.3242  0.1582  0.0206
19772TIP3    H180731   2.458   5.138  13.820 -0.6967  0.9085 -1.2671
19772TIP3    H280732   2.482   5.001  13.760  0.4394  0.1653  0.7860
19773TIP3   OH280733   5.927   6.376   2.808  0.5639 -0.4294  0.6541
19773TIP3    H180734   5.959   6.316   2.741 -0.5330 -1.2151  0.8015
19773TIP3    H280735   5.933   6.463   2.768  2.2921 -0.5906  0.4816
19774TIP3   OH280736   1.500   3.402   1.559  0.1633  0.1216 -0.1609
19774TIP3    H180737   1.587   3.441   1.549 -0.0299  0.4704 -0.5207
19774TIP3    H280738   1.452   3.465   1.614  0.1490 -0.0864  0.0655
19775TIP3   OH280739   1.643   5.073  12.524 -0.3559 -0.1815  0.0374
19775TIP3    H180740   1.669   5.148  12.577 -2.2937  0.0658  0.7217
19775TIP3    H280741   1.680   4.998  12.570 -0.4326  0.1821  0.7108
19776TIP3   OH280742   5.689   0.053   3.740 -0.3636  0.4050 -0.0816
19776TIP3    H180743   5.747  -0.008   3.695  0.8195 -0.1780  2.0914
19776TIP3    H280744   5.607   0.049   3.691  0.8647 -0.0186 -2.2326
19777TIP3   OH280745   1.148   5.792   2.067  0.2601 -0.3379 -0.2864
19777TIP3    H180746   1.232   5.838   2.064 -0.4977  1.0602 -1.5315
19777TIP3    H280747   1.084   5.861   2.083 -0.7916 -1.1673 -0.7961
19778TIP3   OH280748   0.460   5.780  16.558  0.0508  0.6713 -0.1645
19778TIP3    H180749   0.405   5.703  16.545 -0.4101  1.1527 -1.1919
19778TIP3    H280750   0.425   5.822  16.637  0.2496 -0.1056  0.3497
19779TIP3   OH280751   3.849   0.161  11.591  0.0893 -0.3387  0.1422
19779TIP3    H180752   3.923   0.135  11.646  0.3280 -1.7313 -0.7571
19779TIP3    H280753   3.813   0.078  11.560 -1.9733  0.3017  0.6867
19780TIP3   OH280754   1.905   0.600  16.032 -0.4100 -0.5096 -0.7534
19780TIP3    H180755   1.915   0.533  15.964  0.4144 -0.2588 -0.8891
19780TIP3    H280756   1.933   0.681  15.990 -1.1793 -0.1111 -0.5157
19781TIP3   OH280757   0.645   5.278  16.908 -0.0558 -0.1801 -0.0382
19781TIP3    H180758   0.682   5.223  16.840  0.4591 -0.5563  0.5334
19781TIP3    H280759   0.649   5.366  16.873 -0.4212 -0.4482 -0.7611
19782TIP3   OH280760   3.229   3.008  13.155  0.4104  1.1063  0.2093
19782TIP3    H180761   3.182   2.938  13.202 -0.6748  1.8008  0.1884
19782TIP3    H280762   3.293   2.961  13.101 -0.9253  0.0473 -0.5178
19783TIP3   OH280763   4.473   4.102  13.764 -0.1269  0.2464  0.9249
19783TIP3    H180764   4.563   4.072  13.778  0.6769  1.3541 -1.3558
19783TIP3    H280765   4.462   4.104  13.669 -2.9981 -0.9532  1.1171
19784TIP3   OH280766   5.070   5.393   1.252  0.2261  0.4276 -0.2493
19784TIP3    H180767   5.028   5.432   1.329 -1.2816 -1.1020 -0.2233
19784TIP3    H280768   5.164   5.401   1.269 -0.0626  0.6361  1.4884
19785TIP3   OH280769   3.167   4.436   5.488 -0.1837  0.2831  0.9212
19785TIP3    H180770   3.215   4.398   5.561 -0.8564 -1.7796  0.3629
19785TIP3    H280771   3.221   4.418   5.411 -2.5353 -3.9184 -0.0244
19786TIP3   OH280772   3.679   1.982   6.463  0.1295 -0.9775 -0.5424
19786TIP3    H180773   3.742   2.044   6.500 -0.1282  0.1030 -1.8556
19786TIP3    H280774   3.728   1.899   6.457  0.3943 -1.0225  1.4869
19787TIP3   OH280775   1.746   0.789   3.474 -0.4801 -0.2074  0.3315
19787TIP3    H180776   1.655   0.763   3.490 -0.6884  0.0203 -0.4553
19787TIP3    H280777   1.742   0.884   3.465 -0.4445 -0.3435 -1.4397
19788TIP3   OH280778   1.352   0.299  12.375 -0.1292  0.2687  0.2302
19788TIP3    H180779   1.395   0.276  12.458  0.0678  1.8824  0.6084
19788TIP3    H280780   1.375   0.227  12.316 -1.1344 -1.4770  1.8252
19789TIP3   OH280781   2.630   6.453   2.665 -0.2044  0.5799 -0.1407
19789TIP3    H180782   2.605   6.487   2.751  0.6164  1.3677 -0.2031
19789TIP3    H280783   2.552   6.407   2.634 -1.3924  2.4223 -0.0650
19790TIP3   OH280784   4.248   2.797   4.432 -0.2758  0.3501 -0.3709
19790TIP3    H180785   4.231   2.891   4.423 -0.5251  0.4450  0.8861
19790TIP3    H280786   4.318   2.792   4.497  0.8376 -0.2812 -1.5755
19791TIP3   OH280787   6.593   4.675   3.867  0.1434 -0.2470  0.4677
19791TIP3    H180788   6.591   4.656   3.961 -0.9729  1.0043  0.7314
19791TIP3    H280789   6.519   4.627   3.831  0.1600 -0.1838  0.3487
19792TIP3   OH280790   0.418   2.926  16.692  0.3831 -0.0207 -0.3888
19792TIP3    H180791   0.397   2.912  16.784  0.3836  0.3165 -0.3370
19792TIP3    H280792   0.514   2.923  16.689  0.3483 -1.3603 -0.5988
19793TIP3   OH280793   4.339   1.249  15.073 -0.5254  0.4148  0.5067
19793TIP3    H180794   4.310   1.330  15.115 -0.7773 -0.0065  1.1646
19793TIP3    H280795   4.267   1.187  15.088 -0.7330  0.3208 -0.7750
19794TIP3   OH280796   4.142   5.446  16.599 -0.1246  0.7044 -0.1597
19794TIP3    H180797   4.081   5.373  16.585  0.1651  0.5963 -0.9400
19794TIP3    H280798   4.111   5.514  16.540  0.7370  0.4965 -0.8835
19795TIP3   OH280799   0.717   0.055  13.793 -0.1383 -0.2203  0.1307
19795TIP3    H180800   0.689   0.053  13.885  0.9452 -1.4257  0.4598
19795TIP3    H280801   0.812   0.063  13.797 -0.0819 -0.2877 -0.8954
19796TIP3   OH280802   4.215   5.465  11.162 -0.4198  0.6037 -0.3584
19796TIP3    H180803   4.196   5.424  11.246  2.0409 -0.1176 -0.0866
19796TIP3    H280804   4.139   5.522  11.146 -1.8871 -0.7401  1.3416
19797TIP3   OH280805   6.655   6.610  16.888 -0.3316  0.0911 -0.1143
19797TIP3    H180806   6.592   6.664  16.840 -2.2169 -0.4300  1.6391
19797TIP3    H280807   6.715   6.578  16.821 -1.5353  1.1651 -1.7805
19798TIP3   OH280808   1.457   3.132   0.051 -0.2296 -0.2485  0.4400
19798TIP3    H180809   1.523   3.073   0.015 -0.3855  0.1864 -0.5963
19798TIP3    H280810   1.484   3.220   0.023 -1.6293 -0.1301 -0.6814
19799TIP3   OH280811   1.278   6.739   3.854  0.4016  0.2882  0.2080
19799TIP3    H180812   1.343   6.796   3.812 -0.0851 -0.2994 -1.4429
19799TIP3    H280813   1.262   6.670   3.790 -1.9287  0.4656  0.4926
19800TIP3   OH280814   1.755   3.491   0.615 -0.1594 -0.1583  0.2148
19800TIP3    H180815   1.744   3.435   0.692 -1.2271 -1.8643 -1.0976
19800TIP3    H280816   1.825   3.552   0.639  0.9806 -1.9655  1.7785
19801TIP3   OH280817   4.532   2.100   0.307 -0.3192  0.1055  0.0202
19801TIP3    H180818   4.503   2.079   0.219 -0.7996 -0.6172  0.3352
19801TIP3    H280819   4.455   2.083   0.362 -0.1209  0.8264  0.5469
19802TIP3   OH280820   6.446   5.750   5.096 -0.2078  0.0884 -0.1917
19802TIP3    H180821   6.424   5.667   5.053  0.1512 -1.4038  2.2878
19802TIP3    H280822   6.541   5.756   5.088 -0.2288  0.2406 -0.3287
19803TIP3   OH280823   6.484   3.276  12.489 -0.3946  0.1849 -0.3819
19803TIP3    H180824   6.402   3.258  12.442 -0.3840  0.0381 -0.3427
19803TIP3    H280825   6.550   3.283  12.420 -0.1365 -1.2912 -0.3163
19804TIP3   OH280826   1.528   0.100   0.139 -0.2474  0.3968  0.0826
19804TIP3    H180827   1.539   0.188   0.102 -2.1410  0.8041  0.3682
19804TIP3    H280828   1.608   0.086   0.191  0.4013  1.6625 -0.5092
19805TIP3   OH280829   3.098   0.189  15.403  0.0131  0.1597 -0.6357
19805TIP3    H180830   3.111   0.263  15.463 -0.5432  1.5187 -2.1107
19805TIP3    H280831   3.020   0.145  15.436  0.7794 -0.2692  0.6975
19806TIP3   OH280832   1.712   6.537  11.599 -0.2700  0.8286 -0.1498
19806TIP3    H180833   1.623   6.508  11.578  0.7474 -1.3034 -1.8625
19806TIP3    H280834   1.710   6.553  11.693 -1.5021 -3.1375  0.6619
19807TIP3   OH280835   0.948   3.875  16.480 -0.1673 -1.1435 -0.0144
19807TIP3    H180836   0.921   3.958  16.441  0.2139 -0.9244  0.1728
19807TIP3    H280837   0.869   3.840  16.522  0.0588 -0.0146  1.4213
19808TIP3   OH280838   4.602   4.631   0.394  0.1058  0.0096 -0.0219
19808TIP3    H180839   4.601   4.690   0.469 -1.8186  1.0076 -0.7777
19808TIP3    H280840   4.529   4.659   0.339  0.8471 -1.3060 -1.8113
19809TIP3   OH280841   0.923   3.591  10.751 -0.1690 -0.3346 -0.0428
19809TIP3    H180842   0.992   3.591  10.685 -0.8298  0.2456 -0.7609
19809TIP3    H280843   0.863   3.522  10.723 -0.2885 -0.3009  0.1274
19810TIP3   OH280844   1.182   1.533   5.645  0.6329  0.2125  0.3448
19810TIP3    H180845   1.133   1.464   5.689 -0.4894  0.4393 -0.5098
19810TIP3    H280846   1.194   1.601   5.712  1.2433 -0.5426  1.0207
19811TIP3   OH280847   3.104   5.589  15.315 -0.6843 -0.2745  0.4745
19811TIP3    H180848   3.167   5.608  15.385  0.5121 -1.1013 -0.3251
19811TIP3    H280849   3.144   5.628  15.237 -1.8494  0.3697  0.1759
19812TIP3   OH280850   5.967   5.595   1.382 -0.4143 -0.2103  0.5139
19812TIP3    H180851   5.928   5.593   1.295 -0.5806  0.2479  0.5788
19812TIP3    H280852   5.949   5.508   1.418  1.7508 -1.3170 -0.8197
19813TIP3   OH280853   3.129   2.488  14.170 -0.2090  0.1387 -0.1314
19813TIP3    H180854   3.218   2.469  14.199  0.8303 -0.5309 -3.3017
19813TIP3    H280855   3.123   2.445  14.085 -2.3452  3.1479 -1.6742
19814TIP3   OH280856   3.116   2.189   3.952 -0.3093  0.5985 -0.0163
19814TIP3    H180857   3.102   2.161   3.862 -1.8954  2.3949 -0.4066
19814TIP3    H280858   3.201   2.233   3.951 -0.6858  1.3456 -0.8594
19815TIP3   OH280859   3.395   1.475  14.309 -0.0551  0.2949 -0.1248
19815TIP3    H180860   3.337   1.402  14.330 -1.5966  1.2804 -0.7537
19815TIP3    H280861   3.361   1.548  14.360  0.2244  1.0555 -1.0045
19816TIP3   OH280862   6.295   4.875   1.096  0.2140 -0.0811 -0.4155
19816TIP3    H180863   6.358   4.824   1.147 -0.0491 -0.3370 -0.3473
19816TIP3    H280864   6.304   4.964   1.130  0.2955 -0.1822 -0.1677
19817TIP3   OH280865   3.902   4.463   0.858  0.5084  0.5585 -0.1156
19817TIP3    H180866   3.917   4.557   0.871 -1.1424  1.0002 -1.0399
19817TIP3    H280867   3.942   4.445   0.773 -0.1002  0.6974 -0.4422
19818TIP3   OH280868   4.590   2.332  11.971 -0.0430 -0.2011  0.0035
19818TIP3    H180869   4.649   2.266  12.007 -0.0099 -1.0741 -1.5444
19818TIP3    H280870   4.568   2.388  12.045 -0.6870 -2.3834  1.5525
19819TIP3   OH280871   4.796   2.034  12.565 -0.1319  0.2425 -0.2990
19819TIP3    H180872   4.809   2.109  12.622  2.6258  1.3957 -2.2256
19819TIP3    H280873   4.797   2.070  12.476  1.2289 -1.9907 -1.2863
19820TIP3   OH280874   3.108   3.998  16.488 -0.4946 -1.2619 -0.7588
19820TIP3    H180875   3.140   3.908  16.492  1.9184 -0.4763 -0.6102
19820TIP3    H280876   3.121   4.024  16.397  2.7981  0.1467 -0.0457
19821TIP3   OH280877   3.382   3.726  12.673  0.0006  0.1525  0.0798
19821TIP3    H180878   3.336   3.645  12.651  1.4565 -0.3880 -1.0643
19821TIP3    H280879   3.357   3.787  12.604  0.4130  0.0837 -0.1311
19822TIP3   OH280880   6.469   2.228   0.045  0.4761  0.0286 -0.1445
19822TIP3    H180881   6.420   2.296   0.091  0.2974 -1.4747  2.0734
19822TIP3    H280882   6.425   2.219  -0.039  0.0972  2.1508 -0.2159
19823TIP3   OH280883   0.850   5.063   5.117  0.0677  0.1056  0.3032
19823TIP3    H180884   0.923   5.052   5.178 -0.2479  0.2963  0.7174
19823TIP3    H280885   0.829   4.974   5.089 -1.1399 -0.2168  2.0748
19824TIP3   OH280886   1.205   2.154   0.060  0.0980 -0.5539 -0.2506
19824TIP3    H180887   1.118   2.118   0.077 -0.3248  0.0885 -0.9920
19824TIP3    H280888   1.197   2.247   0.079  0.6789 -0.5245 -0.1457
19825TIP3   OH280889   5.254   0.266   1.827  0.1886  0.6731  0.1722
19825TIP3    H180890   5.208   0.340   1.867  2.3768  1.0676  2.2017
19825TIP3    H280891   5.195   0.192   1.839 -0.5180  1.4053  1.4831
19826TIP3   OH280892   3.003   2.939   3.835  0.0091  0.3404 -1.1111
19826TIP3    H180893   2.924   2.884   3.836  1.1420 -1.3607 -0.7648
19826TIP3    H280894   3.029   2.941   3.743  1.3551 -1.8981 -0.8555
19827TIP3   OH280895   1.239   0.995  11.013  0.8570  0.9168  0.0127
19827TIP3    H180896   1.333   0.979  11.003  0.8186  1.2236 -0.9257
19827TIP3    H280897   1.199   0.909  11.004  1.1395  0.4897  2.1560
19828TIP3   OH280898   3.110   0.975  14.107  0.3905 -0.1402 -0.2120
19828TIP3    H180899   3.015   0.966  14.118  0.3778 -1.8040 -1.1908
19828TIP3    H280900   3.120   1.014  14.020  0.6021  0.7193  0.1941
19829TIP3   OH280901   3.284   3.059  12.804 -0.5104  0.1649  0.3818
19829TIP3    H180902   3.292   2.965  12.814  1.2584  0.1912 -0.3849
19829TIP3    H280903   3.339   3.096  12.873  1.3595  0.5254 -1.2018
19830TIP3   OH280904   4.719   0.872  16.838  0.6836 -0.6415  0.4934
19830TIP3    H180905   4.768   0.876  16.920  2.6444  0.9785 -0.6603
19830TIP3    H280906   4.694   0.963  16.821  0.5554 -0.9105 -0.8243
19831TIP3   OH280907   6.543   5.387   3.522  0.0840  0.4047  0.4603
19831TIP3    H180908   6.555   5.384   3.617  1.3397  2.3534  0.4140
19831TIP3    H280909   6.464   5.439   3.509 -0.1974 -0.0246  0.4272
19832TIP3   OH280910   0.729   5.276  10.954 -0.0154 -0.1880  0.5318
19832TIP3    H180911   0.671   5.347  10.981  0.9824  0.5133  0.8696
19832TIP3    H280912   0.692   5.198  10.995 -0.2002  0.3985  1.5075
19833TIP3   OH280913   2.963   2.549   5.094 -0.1715  0.2956 -0.6311
19833TIP3    H180914   2.872   2.566   5.071 -0.3299 -0.0692 -0.2855
19833TIP3    H280915   2.981   2.610   5.166 -0.8098 -1.0967  0.7667
19834TIP3   OH280916   4.558   1.557   5.806 -0.3999 -0.2090 -0.3070
19834TIP3    H180917   4.519   1.589   5.724 -0.2539 -1.7831 -1.0272
19834TIP3    H280918   4.498   1.588   5.874 -0.6735  0.8965 -1.0231
19835TIP3   OH280919   0.060   6.103  13.107  1.1192  0.8233  0.0344
19835TIP3    H180920   0.034   6.161  13.035  1.7261  0.4550 -0.4869
19835TIP3    H280921   0.133   6.052  13.072 -0.1493 -1.1339  0.0339
19836TIP3   OH280922   5.229   0.986  11.878 -0.1460 -0.2551  0.3774
19836TIP3    H180923   5.302   0.943  11.923 -0.4264  0.3256  1.4061
19836TIP3    H280924   5.186   1.038  11.945 -1.5021 -0.5491 -0.2181
19837TIP3   OH280925   0.705   1.461  15.188 -0.3388 -0.1032  0.5519
19837TIP3    H180926   0.747   1.412  15.259 -2.2233  0.0660  1.8574
19837TIP3    H280927   0.718   1.407  15.110  2.8200  0.2633  0.6919
19838TIP3   OH280928   2.170   3.262  14.529  0.7435 -0.5136  0.4125
19838TIP3    H180929   2.240   3.251  14.593  1.3683  1.4613  0.1477
19838TIP3    H280930   2.197   3.338  14.477 -0.4232 -1.2204 -1.2956
19839TIP3   OH280931   4.447   0.588  14.854 -0.4407 -0.3816  1.1579
19839TIP3    H180932   4.357   0.567  14.881 -0.4120 -1.2926  0.5909
19839TIP3    H280933   4.436   0.657  14.788 -0.5994  0.7531  2.3314
19840TIP3   OH280934   6.695   5.736   1.246 -0.0886 -0.0626  0.4804
19840TIP3    H180935   6.615   5.696   1.279 -0.3771  0.4755  0.4570
19840TIP3    H280936   6.760   5.718   1.314 -0.5526  0.5899  1.1192
19841TIP3   OH280937   3.837   1.545   1.612  0.4352  0.1738  0.4221
19841TIP3    H180938   3.744   1.532   1.631  0.7266 -0.5094  1.4197
19841TIP3    H280939   3.876   1.569   1.696  1.0873  0.9532 -0.0868
19842TIP3   OH280940   2.831   0.182   5.169  0.0098 -0.0565  0.0898
19842TIP3    H180941   2.759   0.226   5.124 -0.8330  0.8214  2.1435
19842TIP3    H280942   2.910   0.219   5.130 -0.6301 -0.2158 -1.4402
19843TIP3   OH280943   3.758   6.625  12.937  0.1243 -0.0457  0.0926
19843TIP3    H180944   3.773   6.634  13.031  0.0191 -1.0404  0.2102
19843TIP3    H280945   3.681   6.679  12.920 -2.1182 -2.6207  1.2586
19844TIP3   OH280946   6.317   1.514  15.201 -0.1461  0.4744  0.3792
19844TIP3    H180947   6.392   1.480  15.249  1.2350  1.9712 -0.6198
19844TIP3    H280948   6.293   1.593  15.248 -2.3767 -0.9347  1.8011
19845TIP3   OH280949   6.437   4.231  16.254  0.2940 -0.3810 -0.4994
19845TIP3    H180950   6.434   4.224  16.158 -1.2689 -1.3678 -0.4167
19845TIP3    H280951   6.367   4.293  16.275 -0.6066 -1.5593  0.0860
19846TIP3   OH280952   1.648   3.723   1.297 -0.1457  0.6784  0.2483
19846TIP3    H180953   1.592   3.751   1.369 -0.2256 -0.9076  0.8347
19846TIP3    H280954   1.631   3.630   1.288  0.9439  0.5626 -0.8836
19847TIP3   OH280955   1.465   5.588   5.337  0.3560 -0.0785 -0.0386
19847TIP3    H180956   1.520   5.602   5.413  1.0913  1.7944 -0.8539
19847TIP3    H280957   1.525   5.589   5.262 -0.7468  2.7541 -1.0188
19848TIP3   OH280958   3.638   6.538   4.213 -0.7658 -0.1915 -0.3764
19848TIP3    H180959   3.687   6.609   4.254  1.4015 -2.0222  0.4042
19848TIP3    H280960   3.684   6.522   4.131 -1.7991 -0.1306 -0.9907
19849TIP3   OH280961   5.462   1.439   2.237 -0.1072 -0.1507  0.0482
19849TIP3    H180962   5.466   1.491   2.317 -0.2416 -0.5640  0.3294
19849TIP3    H280963   5.526   1.369   2.251  0.1776  0.0257 -0.3872
19850TIP3   OH280964   3.422   6.427   0.649  0.5319  0.4541  0.9144
19850TIP3    H180965   3.480   6.365   0.692  0.7051 -0.4470 -0.5554
19850TIP3    H280966   3.474   6.464   0.578  0.3541  2.1467  1.6179
19851TIP3   OH280967   5.633   3.747  15.827 -0.1200  0.2672  0.0621
19851TIP3    H180968   5.723   3.757  15.798  0.0779 -1.0823  0.1757
19851TIP3    H280969   5.593   3.686  15.765  0.1009 -2.0626  2.0799
19852TIP3   OH280970   0.609   1.913   2.482 -0.3321  0.4859  0.2954
19852TIP3    H180971   0.638   1.825   2.506 -0.2838  0.7411  1.1807
19852TIP3    H280972   0.521   1.901   2.446 -0.0478 -0.0064 -0.2411
19853TIP3   OH280973   1.424   2.113   5.274 -0.6444 -0.1824 -0.8161
19853TIP3    H180974   1.501   2.162   5.304 -1.2918  0.5662 -0.3194
19853TIP3    H280975   1.410   2.141   5.184  0.6838 -1.6389 -1.5075
19854TIP3   OH280976   5.213   3.169   0.532 -0.2091  0.3447 -0.2366
19854TIP3    H180977   5.271   3.163   0.608 -0.3839  0.6458 -0.0807
19854TIP3    H280978   5.126   3.151   0.566 -0.0379 -1.7426 -0.7416
19855TIP3   OH280979   1.310   0.433  16.340 -0.1561  0.0816  0.2870
19855TIP3    H180980   1.364   0.360  16.372  1.0459  0.6354 -0.3830
19855TIP3    H280981   1.227   0.424  16.386  0.2185 -1.3043  0.7339
19856TIP3   OH280982   2.897   4.208   4.886  0.0719  0.1514 -0.1128
19856TIP3    H180983   2.936   4.245   4.965  0.6164  0.2143 -0.4077
19856TIP3    H280984   2.923   4.116   4.888 -0.4803 -0.0051  0.1258
19857TIP3   OH280985   3.211   0.321   3.326 -0.6399  0.1508 -0.1536
19857TIP3    H180986   3.293   0.331   3.277 -0.7004  0.1578 -0.2529
19857TIP3    H280987   3.236   0.271   3.403 -0.3770  0.8534  0.2339
19858TIP3   OH280988   6.540   6.736  16.678 -0.2169 -0.4929 -0.4333
19858TIP3    H180989   6.489   6.797  16.730 -1.2145 -0.8821 -0.9227
19858TIP3    H280990   6.516   6.755  16.587 -1.8015 -2.6135 -0.5473
19859TIP3   OH280991   5.395   2.740   0.997  0.4605  0.4629  0.1856
19859TIP3    H180992   5.432   2.714   0.913 -0.1586 -2.5969  0.7587
19859TIP3    H280993   5.471   2.753   1.054  0.8917 -2.7913  0.5344
19860TIP3   OH280994   5.033   1.462   2.769 -0.1582 -0.0799  0.5150
19860TIP3    H180995   4.956   1.406   2.778  1.4588 -2.5095  0.4598
19860TIP3    H280996   5.043   1.474   2.675  0.4136 -1.1733  0.4190
19861TIP3   OH280997   0.293   6.486   3.100  0.2940  0.1461 -0.2426
19861TIP3    H180998   0.387   6.469   3.108 -0.2329 -2.5201  1.6021
19861TIP3    H280999   0.273   6.543   3.175  0.4171  0.7270 -0.6445
19862TIP3   OH281000   2.463   6.181  11.842  0.8770  0.5038 -0.0850
19862TIP3    H181001   2.467   6.183  11.746 -0.5554 -3.1078 -0.3539
19862TIP3    H281002   2.381   6.225  11.863 -0.2448 -1.1806 -0.7817
19863TIP3   OH281003   5.771   2.447  16.302  0.3708  0.3139  0.0750
19863TIP3    H181004   5.785   2.386  16.375  2.6999 -0.0088 -0.5480
19863TIP3    H281005   5.737   2.392  16.231  0.3073  0.1786  0.2083
19864TIP3   OH281006   2.126   4.901   5.116 -0.8697 -0.3910 -0.2256
19864TIP3    H181007   2.122   4.805   5.119  1.4189 -0.5556 -0.4311
19864TIP3    H281008   2.211   4.920   5.077 -1.0689  1.7373  0.2549
19865TIP3   OH281009   0.339   3.230  17.317 -0.0565  0.4680 -0.2504
19865TIP3    H181010   0.300   3.183  17.390  0.1147  0.3496 -0.2350
19865TIP3    H281011   0.268   3.286  17.284 -0.3640 -0.0436 -0.4809
19866TIP3   OH281012   6.298   3.196   6.188  0.0268  0.4724  0.5556
19866TIP3    H181013   6.306   3.287   6.159  2.6000  0.4874  1.0930
19866TIP3    H281014   6.302   3.200   6.283  0.7997 -0.2472  0.5598
19867TIP3   OH281015   6.390   3.421   4.137 -0.1431 -0.2319  0.0398
19867TIP3    H181016   6.418   3.330   4.128 -3.0665 -1.2829  0.4369
19867TIP3    H281017   6.413   3.462   4.053  1.2591 -1.3002 -0.1194
19868TIP3   OH281018   1.665   1.490   1.281  0.6040  0.1244  0.3224
19868TIP3    H181019   1.614   1.529   1.210 -0.1299  0.4928  1.0294
19868TIP3    H281020   1.637   1.399   1.284 -0.9050  0.5912  1.4473
19869TIP3   OH281021   5.488   5.304  12.863  0.4220 -0.0799  0.2479
19869TIP3    H181022   5.444   5.385  12.886  0.2053 -0.8562  2.8277
19869TIP3    H281023   5.550   5.329  12.794 -1.0861  1.8237 -0.4843
19870TIP3   OH281024   3.896   5.976  14.951  0.7927  0.3207  0.0480
19870TIP3    H181025   3.969   6.038  14.950  0.7318  0.4844 -2.5490
19870TIP3    H281026   3.901   5.932  14.866 -2.5338  0.8596 -0.5866
19871TIP3   OH281027   4.050   5.112   2.465 -0.1019 -0.2323 -0.5099
19871TIP3    H181028   4.125   5.171   2.461 -0.2476  0.5365  3.5733
19871TIP3    H281029   4.088   5.024   2.457  0.6022  0.2096 -2.6835
19872TIP3   OH281030   5.871   5.506  11.178  0.1889 -0.0933 -0.2210
19872TIP3    H181031   5.816   5.536  11.106 -1.2319  2.0460  1.6155
19872TIP3    H281032   5.916   5.429  11.143 -1.6880 -0.1623 -2.8108
19873TIP3   OH281033   5.054   3.895   1.259 -0.1215 -0.2076 -0.4358
19873TIP3    H181034   4.979   3.894   1.199  0.1503  3.5313 -1.0363
19873TIP3    H281035   5.112   3.962   1.224  1.9075 -0.5891  1.9521
19874TIP3   OH281036   1.395   0.200  12.114 -0.0223  0.1858 -0.2367
19874TIP3    H181037   1.472   0.149  12.088 -2.1539 -3.0346 -0.8687
19874TIP3    H281038   1.369   0.246  12.034  0.5401  0.2595 -0.3762
19875TIP3   OH281039   1.564   5.182   1.805  0.0691 -0.1741 -0.0582
19875TIP3    H181040   1.608   5.182   1.720  0.8748 -0.6287  0.3497
19875TIP3    H281041   1.557   5.089   1.829 -1.5943 -0.1558 -0.3458
19876TIP3   OH281042   3.184   6.377  11.578  0.1312 -0.0612  0.0725
19876TIP3    H181043   3.144   6.448  11.628  2.1042 -0.0957  1.8429
19876TIP3    H281044   3.138   6.299  11.605  0.7708  0.0101  1.4255
19877TIP3   OH281045   3.054   0.904  12.678 -0.5020  0.4312  0.0464
19877TIP3    H181046   2.991   0.847  12.721 -0.4647  0.9406  0.7878
19877TIP3    H281047   3.110   0.937  12.749  0.9558 -0.4413 -0.6457
19878TIP3   OH281048   4.650   0.985   4.075  0.4216  0.1757  0.7825
19878TIP3    H181049   4.566   1.002   4.118 -0.2111  0.1446 -0.4000
19878TIP3    H281050   4.707   0.955   4.146 -0.7788 -0.5479  1.4884
19879TIP3   OH281051   1.357   0.338  13.164  0.3314 -0.7249  0.1148
19879TIP3    H181052   1.375   0.333  13.070  0.4594  0.9433  0.0229
19879TIP3    H281053   1.325   0.427  13.177  4.3473  0.6767  2.2674
19880TIP3   OH281054   6.122   2.830  14.975  0.6223  0.9655  0.1170
19880TIP3    H181055   6.212   2.802  14.960  1.5412  4.1096 -1.0463
19880TIP3    H281056   6.086   2.845  14.887 -1.6602 -1.6745  0.4537
19881TIP3   OH281057   2.838   4.585  11.949  0.3260 -0.0771  0.0296
19881TIP3    H181058   2.772   4.521  11.923 -0.2363  0.4507  0.1416
19881TIP3    H281059   2.897   4.536  12.006  0.7016 -0.8554 -0.9943
19882TIP3   OH281060   0.763   1.814  16.043  0.2018 -0.3149  0.2849
19882TIP3    H181061   0.678   1.831  16.084  0.4028  0.5889  0.3630
19882TIP3    H281062   0.781   1.722  16.060 -1.8577 -1.2027 -1.7955
19883TIP3   OH281063   4.427   4.115  16.102  0.3938  1.0569 -0.1277
19883TIP3    H181064   4.426   4.141  16.010  0.1236  0.1750 -0.3824
19883TIP3    H281065   4.335   4.102  16.124  0.5687 -0.8978 -0.3854
19884TIP3   OH281066   3.142   2.340   4.710  0.1100 -0.0357  0.5825
19884TIP3    H181067   3.156   2.246   4.710 -0.6048 -0.1638  1.6205
19884TIP3    H281068   3.064   2.353   4.763  1.2023  1.2668  1.9752
19885TIP3   OH281069   5.887   0.447  13.166  0.3834 -0.2186 -0.0449
19885TIP3    H181070   5.975   0.442  13.203 -0.0718  1.1617  1.3164
19885TIP3    H281071   5.901   0.465  13.073  1.5753  1.5149  0.4110
19886TIP3   OH281072   5.422   4.223  14.187  0.1174 -0.3019 -0.3599
19886TIP3    H181073   5.365   4.298  14.175  0.5112  0.2967  1.2868
19886TIP3    H281074   5.368   4.147  14.164 -1.0036  0.3244  0.1518
19887TIP3   OH281075   3.693   0.413   2.724  0.0715  0.3169 -0.2706
19887TIP3    H181076   3.785   0.412   2.751  0.2558 -1.6896 -0.7591
19887TIP3    H281077   3.696   0.394   2.630 -0.8482  0.2259 -0.2881
19888TIP3   OH281078   5.438   3.673   5.358 -0.1433  0.0055  0.0545
19888TIP3    H181079   5.484   3.589   5.352  0.7898  0.5501 -0.6592
19888TIP3    H281080   5.493   3.726   5.415  0.5549  0.9280 -1.4413
19889TIP3   OH281081   2.240   2.286  12.761  0.4815  0.2213 -0.0291
19889TIP3    H181082   2.245   2.363  12.817  0.7758  1.2475 -1.4320
19889TIP3    H281083   2.153   2.290  12.722  0.1222 -0.7124  0.6369
19890TIP3   OH281084   0.432   1.701   3.238 -0.0948 -0.3037 -0.3512
19890TIP3    H181085   0.480   1.771   3.192 -0.0247  0.3976  0.7472
19890TIP3    H281086   0.344   1.736   3.250  0.0207 -0.2856  0.4637
19891TIP3   OH281087   5.700   3.495  11.926 -0.1368 -0.2145  0.3220
19891TIP3    H181088   5.705   3.581  11.885 -3.0479  0.2030  0.6376
19891TIP3    H281089   5.703   3.513  12.020  1.5020 -0.7366  0.4187
19892TIP3   OH281090   5.262   1.342   5.897 -0.5531 -0.5889 -0.1452
19892TIP3    H181091   5.195   1.282   5.864 -1.5491  0.5698 -0.3388
19892TIP3    H281092   5.331   1.340   5.832 -0.3361 -1.8980  0.1092
19893TIP3   OH281093   5.325   5.089  10.859  0.2764  0.4500  0.1096
19893TIP3    H181094   5.235   5.067  10.885  0.3480 -0.0112 -0.0289
19893TIP3    H281095   5.316   5.167  10.804 -0.2742 -0.9052 -1.8253
19894TIP3   OH281096   6.009   1.729   5.655  0.2262 -0.5792  0.2732
19894TIP3    H181097   6.019   1.703   5.563 -1.0436 -0.5556  0.1095
19894TIP3    H281098   6.064   1.807   5.663 -0.7718  0.2727 -0.8626
19895TIP3   OH281099   3.657   0.243   2.192  0.5094  0.1130 -0.2415
19895TIP3    H181100   3.578   0.195   2.167  0.8117  0.5239 -2.1247
19895TIP3    H281101   3.723   0.215   2.128  0.8047  2.6726 -1.1521
19896TIP3   OH281102   1.689   5.316  16.186 -0.1238 -0.5692  0.3293
19896TIP3    H181103   1.700   5.313  16.281 -0.0090 -1.8544  0.2896
19896TIP3    H281104   1.594   5.321  16.173 -0.1764 -1.0387  0.5116
19897TIP3   OH281105   5.380   2.233  13.204  0.0027  0.3591  0.3752
19897TIP3    H181106   5.401   2.321  13.173 -0.3749  0.5854  0.7487
19897TIP3    H281107   5.377   2.240  13.299  0.7870 -0.2505  0.4535
19898TIP3   OH281108   6.566   3.311  16.594  0.3263  0.0097  0.7413
19898TIP3    H181109   6.497   3.377  16.602  2.0625  2.1549 -0.6936
19898TIP3    H281110   6.645   3.354  16.628  1.2324 -1.9572  1.3161
19899TIP3   OH281111   3.167   1.213  10.653  0.1149  0.1867  0.1028
19899TIP3    H181112   3.092   1.227  10.595 -0.3725  3.3443  1.2731
19899TIP3    H281113   3.141   1.140  10.709  0.0737 -2.0799 -2.6282
19900TIP3   OH281114   1.138   2.551  15.415 -0.0341 -0.8962 -0.0772
19900TIP3    H181115   1.159   2.464  15.450 -1.8415 -0.9310  1.0413
19900TIP3    H281116   1.129   2.537  15.320  1.0373 -1.6242 -0.0905
19901TIP3   OH281117   1.713   2.801  16.441 -0.1730  0.0793 -0.5560
19901TIP3    H181118   1.790   2.832  16.490 -0.3697  0.8062 -0.6976
19901TIP3    H281119   1.747   2.733  16.384  0.4380  0.6355 -0.8686
19902TIP3   OH281120   5.479   6.011  16.240 -0.2126  0.2760  0.5857
19902TIP3    H181121   5.455   5.923  16.269 -0.5926  0.1170 -0.1808
19902TIP3    H281122   5.446   6.069  16.309 -1.9786 -0.0162  0.0502
19903TIP3   OH281123   0.520   0.075   4.806  0.0641  0.2900 -0.0672
19903TIP3    H181124   0.441   0.116   4.842  0.1103 -0.6298  1.1281
19903TIP3    H281125   0.503   0.070   4.712  0.0661  3.0451 -0.2957
19904TIP3   OH281126   3.297   1.547  15.930  0.3350 -0.1620  0.0027
19904TIP3    H181127   3.259   1.497  15.858  1.3108 -0.8947 -0.0256
19904TIP3    H281128   3.240   1.527  16.005  0.0464 -0.3968 -0.2768
19905TIP3   OH281129   2.604   2.625   2.156 -0.3073  0.1256  0.1587
19905TIP3    H181130   2.598   2.551   2.217 -0.6905 -0.9793 -1.1631
19905TIP3    H281131   2.536   2.686   2.186 -0.3136 -0.2730  0.9928
19906TIP3   OH281132   6.088   3.063   3.643 -0.2069 -0.3783 -0.0949
19906TIP3    H181133   6.166   3.074   3.589  0.1277 -0.7127  0.3044
19906TIP3    H281134   6.070   2.969   3.640 -0.8135 -0.2515 -0.4795
19907TIP3   OH281135   4.248   2.589   4.255 -0.1078  0.1910 -0.5223
19907TIP3    H181136   4.230   2.657   4.320  1.9437 -0.2278  0.5724
19907TIP3    H281137   4.337   2.607   4.226  1.0710 -2.8031  0.8802
19908TIP3   OH281138   0.512   1.985   2.757  0.1288  0.4446 -0.2960
19908TIP3    H181139   0.453   2.009   2.828  0.9164  1.6556 -0.0177
19908TIP3    H281140   0.456   1.947   2.690 -0.9268  1.3148  0.0710
19909TIP3   OH281141   2.608   1.450  13.544 -0.0897 -0.4804 -0.4578
19909TIP3    H181142   2.594   1.379  13.607 -0.1973 -0.9085 -0.9586
19909TIP3    H281143   2.551   1.521  13.574 -0.0852 -0.6539 -0.0322
19910TIP3   OH281144   4.902   2.163   4.309 -0.3839 -0.2039  0.3875
19910TIP3    H181145   4.935   2.110   4.237  0.3767  1.2030 -0.3478
19910TIP3    H281146   4.934   2.120   4.388 -0.8011 -1.4868 -0.1138
19911TIP3   OH281147   1.177   5.676   4.854 -0.9989 -0.0876 -0.4891
19911TIP3    H181148   1.146   5.688   4.943 -1.0917  0.7454 -0.6318
19911TIP3    H281149   1.101   5.644   4.806 -0.7714 -1.2268 -0.1319
19912TIP3   OH281150   3.379   1.612   6.119 -0.1789 -0.4252 -0.3681
19912TIP3    H181151   3.370   1.666   6.198 -0.2094 -1.2759  0.2215
19912TIP3    H281152   3.295   1.567   6.111  0.9431 -3.0101  1.1318
19913TIP3   OH281153   5.395   3.247  13.808 -0.3539  0.9525 -0.3874
19913TIP3    H181154   5.381   3.252  13.903  0.1000  0.4638 -0.2858
19913TIP3    H281155   5.413   3.154  13.792 -0.5510  1.0154 -0.9705
19914TIP3   OH281156   3.595   3.597   3.358  0.5599  0.5411  0.4581
19914TIP3    H181157   3.612   3.622   3.267  1.5170 -0.2942  0.3909
19914TIP3    H281158   3.563   3.677   3.399 -0.6726  0.7320 -0.7981
19915TIP3   OH281159   4.990   3.935   2.859 -0.4110  0.7036  0.6889
19915TIP3    H181160   4.905   3.891   2.859 -0.5771  1.0083  0.0589
19915TIP3    H281161   5.053   3.864   2.850 -0.7404  0.6476 -1.8481
19916TIP3   OH281162   5.084   1.568   3.020 -0.5279 -0.3197 -0.4491
19916TIP3    H181163   5.080   1.511   2.943 -0.5152 -0.0903 -0.6220
19916TIP3    H281164   4.998   1.610   3.022 -0.3954 -0.0370 -0.5627
19917TIP3   OH281165   5.558   5.289  11.200 -0.9113 -0.3223  0.0668
19917TIP3    H181166   5.602   5.329  11.275 -0.3525  2.5574 -1.6552
19917TIP3    H281167   5.474   5.334  11.194 -1.6536 -1.6672 -0.1586
19918TIP3   OH281168   0.555   4.689   5.860  0.0914  0.0273 -0.0212
19918TIP3    H181169   0.610   4.693   5.938 -1.0093  1.1101  0.7369
19918TIP3    H281170   0.468   4.715   5.891 -0.8811 -1.6767 -1.1726
19919TIP3   OH281171   2.711   1.396  11.464 -0.4119  0.3685  0.0376
19919TIP3    H181172   2.767   1.465  11.428 -1.1573  1.2185  0.4840
19919TIP3    H281173   2.718   1.325  11.400  0.7377  0.6612 -0.1930
19920TIP3   OH281174   4.754   4.475  15.799 -0.3299  0.2135 -0.1359
19920TIP3    H181175   4.709   4.390  15.803 -2.0968  1.1439  0.6249
19920TIP3    H281176   4.825   4.466  15.863  0.7969 -1.3584 -1.5140
19921TIP3   OH281177   1.473   2.856   5.632  0.3108 -0.1812 -0.0200
19921TIP3    H181178   1.389   2.865   5.587 -1.3408 -0.3158  2.8024
19921TIP3    H281179   1.531   2.916   5.586 -1.9189  1.5268 -0.7878
19922TIP3   OH281180   1.525   6.395   0.367 -0.2607 -0.5281  0.5976
19922TIP3    H181181   1.520   6.455   0.293 -0.6455 -0.8449  0.3623
19922TIP3    H281182   1.508   6.451   0.444  0.3876 -0.1561  0.4771
19923TIP3   OH281183   0.923   0.089   4.009 -0.7401  0.4152  0.2430
19923TIP3    H181184   1.007   0.133   4.025  0.2867 -0.6741 -1.7816
19923TIP3    H281185   0.867   0.117   4.082  1.0894  1.8714  1.1757
19924TIP3   OH281186   1.816   3.095  11.919 -0.3769 -0.1336  0.3306
19924TIP3    H181187   1.883   3.156  11.888 -0.3588 -1.0568 -1.5164
19924TIP3    H281188   1.762   3.148  11.978  1.0024  1.0375  0.6023
19925TIP3   OH281189   1.741   0.859   4.024  0.2163  0.4275  0.4219
19925TIP3    H181190   1.793   0.780   4.010 -0.1272  0.0852  1.0525
19925TIP3    H281191   1.751   0.878   4.117  0.1712  1.0428  0.3093
19926TIP3   OH281192   3.339   1.543   1.415  0.4928 -0.3926  0.5030
19926TIP3    H181193   3.361   1.550   1.507 -1.0045 -1.2121  0.9559
19926TIP3    H281194   3.379   1.462   1.386  1.6635  0.2766  0.1990
19927TIP3   OH281195   4.045   4.917  10.854 -0.5484  0.4631 -0.6083
19927TIP3    H181196   4.027   4.837  10.805 -0.5552 -0.3432  0.6692
19927TIP3    H281197   3.964   4.933  10.903 -0.0834  0.4885  0.1611
19928TIP3   OH281198   5.206   1.067   4.675  0.8542  0.1437  0.2933
19928TIP3    H181199   5.194   1.014   4.754  0.8994 -0.4714 -0.1029
19928TIP3    H281200   5.177   1.010   4.604  1.1486  0.5617 -0.1636
19929TIP3   OH281201   0.520   6.435   2.710 -0.3708  0.0186  0.0935
19929TIP3    H181202   0.542   6.431   2.803 -0.2581  2.4533  0.2565
19929TIP3    H281203   0.426   6.415   2.707 -0.3900 -0.0086  0.7473
19930TIP3   OH281204   6.605   2.324   0.693 -0.2138  0.0041 -0.4357
19930TIP3    H181205   6.559   2.351   0.614  0.0572  1.0307 -0.2635
19930TIP3    H281206   6.545   2.349   0.764  0.1346  0.3537 -0.2623
19931TIP3   OH281207   6.138   2.954  16.189 -0.1687  0.2764 -0.3397
19931TIP3    H181208   6.149   2.904  16.270  0.2177  0.9819  0.0600
19931TIP3    H281209   6.079   2.901  16.136 -2.9849  1.1721  1.6377
19932TIP3   OH281210   1.005   3.825   3.322 -0.5467  0.0046  0.0878
19932TIP3    H181211   0.966   3.910   3.343 -2.3763 -0.8720  0.5242
19932TIP3    H281212   1.040   3.794   3.405 -0.4011  0.0902  0.0577
19933TIP3   OH281213   1.896   3.731   1.442  0.1193 -0.3200 -0.5980
19933TIP3    H181214   1.830   3.721   1.373 -0.3133  2.0191 -0.5957
19933TIP3    H281215   1.979   3.712   1.398 -0.0418  2.0577 -2.1066
19934TIP3   OH281216   2.648   6.215   2.894 -0.8278  0.3658 -0.1280
19934TIP3    H181217   2.643   6.230   2.989 -1.3632  1.4121 -0.3073
19934TIP3    H281218   2.612   6.295   2.856  1.6528  1.0428 -1.2808
19935TIP3   OH281219   1.845   1.361   4.168 -0.2032 -0.0826 -0.3908
19935TIP3    H181220   1.823   1.444   4.209  1.0938  0.5937 -1.0112
19935TIP3    H281221   1.932   1.375   4.130 -0.7448 -1.1182 -2.1438
19936TIP3   OH281222   5.699   4.552   2.351 -0.0370 -0.1464  0.3167
19936TIP3    H181223   5.758   4.548   2.427  1.6005  0.8184 -0.8513
19936TIP3    H281224   5.696   4.644   2.328 -0.2081 -0.4635 -1.0157
19937TIP3   OH281225   2.723   1.771  17.129 -0.3900  0.1489  0.3113
19937TIP3    H181226   2.646   1.714  17.138  0.6530 -1.1505  1.3939
19937TIP3    H281227   2.792   1.725  17.177  0.6282  2.1046  0.7809
19938TIP3   OH281228   2.699   2.078  14.919 -0.5170 -0.1073  0.2194
19938TIP3    H181229   2.767   2.100  14.983  0.6810 -2.2077 -0.2255
19938TIP3    H281230   2.714   1.985  14.900 -3.6262 -0.6827  0.1974
19939TIP3   OH281231   0.737   0.997   1.403 -0.5305  0.4196 -0.0424
19939TIP3    H181232   0.828   0.979   1.380 -0.4838 -0.0012  0.4487
19939TIP3    H281233   0.685   0.937   1.350 -0.3769 -1.2109  1.5720
19940TIP3   OH281234   3.720   5.553   5.767  0.6485 -0.0755  0.3412
19940TIP3    H181235   3.739   5.643   5.739  2.2057  0.3327  2.5409
19940TIP3    H281236   3.673   5.563   5.850 -1.6652 -1.3016 -0.7209
19941TIP3   OH281237   6.481   2.533   2.164 -0.7497 -0.2749  0.5516
19941TIP3    H181238   6.516   2.546   2.252 -0.9722 -0.6970  0.7034
19941TIP3    H281239   6.546   2.575   2.106 -1.0910  0.8792  0.9684
19942TIP3   OH281240   0.356   0.962  14.232 -0.0654  0.0907 -0.1596
19942TIP3    H181241   0.444   0.927  14.223 -0.2540 -0.2767 -0.6580
19942TIP3    H281242   0.353   1.036  14.171  0.1160  0.5556  0.3829
19943TIP3   OH281243   0.190   1.683  16.333 -0.3982 -0.1418  0.0550
19943TIP3    H181244   0.226   1.765  16.298  0.4570 -0.4681  0.1656
19943TIP3    H281245   0.254   1.616  16.309 -1.3591 -0.8863 -0.5281
19944TIP3   OH281246   6.166   5.959  12.920  0.4065  0.1790  0.3130
19944TIP3    H181247   6.090   6.018  12.923  0.4172  0.1904  0.3449
19944TIP3    H281248   6.236   6.007  12.963  1.1061  1.1585 -1.7831
19945TIP3   OH281249   2.327   1.542   6.629 -0.1268 -0.4056 -0.4277
19945TIP3    H181250   2.407   1.526   6.679  1.3485  0.7452 -2.2666
19945TIP3    H281251   2.322   1.469   6.567 -0.8283 -0.7646  0.0392
19946TIP3   OH281252   5.532   6.378   4.210 -0.3227 -0.1250  0.0921
19946TIP3    H181253   5.498   6.422   4.132 -1.5422  0.7929  1.0856
19946TIP3    H281254   5.587   6.307   4.177 -1.0181  0.0917 -1.5911
19947TIP3   OH281255   4.578   4.227   4.754 -0.3006  0.1785  0.7031
19947TIP3    H181256   4.504   4.256   4.700  0.9358 -0.7251 -1.6167
19947TIP3    H281257   4.639   4.300   4.752  0.9859 -0.8609 -1.6325
19948TIP3   OH281258   4.310   5.231  15.285  0.3409 -0.4255 -0.1102
19948TIP3    H181259   4.356   5.285  15.348  0.6285 -0.3693 -0.3665
19948TIP3    H281260   4.287   5.151  15.334  1.6441 -0.9129 -0.2608
19949TIP3   OH281261   3.919   1.723   1.834  0.0273  0.2780  0.0702
19949TIP3    H181262   3.884   1.795   1.887 -0.7208 -0.2531  0.3161
19949TIP3    H281263   3.977   1.766   1.771  0.5072  0.9732  0.9602
19950TIP3   OH281264   3.046   5.614   4.905 -0.2439 -0.1597 -0.5254
19950TIP3    H181265   3.107   5.647   4.839  0.1535 -0.4034 -0.2883
19950TIP3    H281266   2.973   5.675   4.904  1.2798  1.8502  1.2048
19951TIP3   OH281267   6.612   6.169  14.882  0.3515 -0.3131 -0.1525
19951TIP3    H181268   6.645   6.121  14.958 -1.2057 -0.2930  0.5645
19951TIP3    H281269   6.527   6.129  14.864 -0.1727  0.9979 -0.6424
19952TIP3   OH281270   6.661   0.025  15.777  0.9747 -0.1404 -0.2543
19952TIP3    H181271   6.572  -0.005  15.793  0.9696 -0.6070 -1.1171
19952TIP3    H281272   6.717  -0.050  15.800  1.1415  0.0803  0.0840
19953TIP3   OH281273   0.272   3.827   3.284 -0.2173  0.5424 -0.6163
19953TIP3    H181274   0.315   3.811   3.200  0.2426  1.7589 -0.6383
19953TIP3    H281275   0.329   3.890   3.329 -1.3035  1.2035 -0.0976
19954TIP3   OH281276   1.671   3.548   5.065 -0.6176 -0.4535 -0.5199
19954TIP3    H181277   1.657   3.496   4.987 -0.3286 -2.1877  0.5294
19954TIP3    H281278   1.584   3.583   5.086 -0.8721 -0.7145 -1.1095
19955TIP3   OH281279   5.989   1.460   1.528 -0.0581  0.1219 -1.2632
19955TIP3    H181280   6.023   1.508   1.603  1.1308 -0.7729 -1.2076
19955TIP3    H281281   6.041   1.380   1.524 -0.9784 -0.4688 -2.2574
19956TIP3   OH281282   4.097   2.190   5.880  0.4295  0.4898 -0.6378
19956TIP3    H181283   4.031   2.252   5.913  1.5879  1.2691  0.2738
19956TIP3    H281284   4.169   2.245   5.850  1.8011 -0.4127  0.8724
19957TIP3   OH281285   0.544   6.585   0.136 -0.3256 -0.2331 -0.1780
19957TIP3    H181286   0.448   6.584   0.140 -0.3138  0.4336  0.4948
19957TIP3    H281287   0.566   6.677   0.127  0.3080 -0.1848  1.5050
19958TIP3   OH281288   6.451   6.516   1.008  0.2445 -0.0501 -0.1326
19958TIP3    H181289   6.527   6.486   0.957  0.9796  0.7917  0.4278
19958TIP3    H281290   6.376   6.495   0.953  0.9321 -0.2685 -1.0246
19959TIP3   OH281291   5.360   2.329   6.504 -0.2547  0.1548  0.9452
19959TIP3    H181292   5.286   2.276   6.474 -1.1531  0.9820  1.6443
19959TIP3    H281293   5.365   2.311   6.598  0.3710  0.1871  0.9202
19960TIP3   OH281294   6.554   2.372  12.167 -0.3753 -0.7822 -0.5834
19960TIP3    H181295   6.629   2.409  12.213 -0.8325 -0.8563  0.2493
19960TIP3    H281296   6.575   2.279  12.156 -0.9994 -1.1458  1.0607
19961TIP3   OH281297   5.710   4.430   1.734  0.1098 -0.2505  0.2886
19961TIP3    H181298   5.775   4.495   1.758  0.8432 -0.5091 -0.9178
19961TIP3    H281299   5.632   4.454   1.784  0.3179  1.6169 -0.2194
19962TIP3   OH281300   3.305   6.108   0.830  0.3783  0.0179  0.9282
19962TIP3    H181301   3.256   6.094   0.749 -0.1098 -0.0598  1.2294
19962TIP3    H281302   3.340   6.021   0.852  0.6645  0.0756  0.7068
19963TIP3   OH281303   6.227   6.518  15.125  0.0154 -0.0945 -0.1580
19963TIP3    H181304   6.200   6.545  15.037  0.5295  0.9629 -0.0040
19963TIP3    H281305   6.278   6.438  15.110  2.2117  1.4019 -1.1105
19964TIP3   OH281306   1.464   1.572  11.946  0.2070  0.3130 -0.2916
19964TIP3    H181307   1.520   1.523  11.886  1.7675 -0.6089  1.7510
19964TIP3    H281308   1.377   1.534  11.935  0.9777 -1.6041 -0.1950
19965TIP3   OH281309   3.754   2.723  16.070 -0.3100  0.7422 -0.5586
19965TIP3    H181310   3.662   2.718  16.046 -0.0041  1.4217 -1.9725
19965TIP3    H281311   3.765   2.656  16.138 -1.7000  0.2484 -0.7907
19966TIP3   OH281312   1.218   6.240  11.566  0.4399  0.5110 -0.1733
19966TIP3    H181313   1.198   6.149  11.545 -1.0236  0.3458  1.6254
19966TIP3    H281314   1.312   6.240  11.586  0.1909 -0.9180  1.1584
19967TIP3   OH281315   4.298   3.059   5.997  0.2050 -0.5789  0.2725
19967TIP3    H181316   4.370   3.088   6.052  1.2689 -1.6445 -0.5210
19967TIP3    H281317   4.255   2.990   6.049 -1.1254  0.9360  1.3134
19968TIP3   OH281318   2.743   4.319  11.959 -0.2424  0.0518  0.0287
19968TIP3    H181319   2.744   4.234  11.915  0.2014 -0.4404  0.9569
19968TIP3    H281320   2.658   4.322  12.002 -0.8630  0.7271 -1.1896
19969TIP3   OH281321   1.253   4.681  15.982 -0.3154  0.3188 -0.1818
19969TIP3    H181322   1.230   4.771  16.005  1.0939  0.4900  0.6286
19969TIP3    H281323   1.325   4.689  15.919 -1.6097 -0.2370 -1.8347
19970TIP3   OH281324   6.607   6.737  15.017  0.2524 -0.0213  0.1544
19970TIP3    H181325   6.537   6.718  15.080  0.3591 -1.7858 -0.2147
19970TIP3    H281326   6.567   6.722  14.931  1.2752 -1.9079 -0.0390
19971TIP3   OH281327   5.153   5.311   4.870  0.0349 -0.6333 -0.2416
19971TIP3    H181328   5.202   5.330   4.790 -1.4753 -1.0430 -1.3021
19971TIP3    H281329   5.202   5.357   4.939  0.7031  0.7514 -1.5700
19972TIP3   OH281330   2.745   4.432   4.819  0.2152  0.3458 -0.4631
19972TIP3    H181331   2.791   4.377   4.882  0.3175  1.0765  0.1166
19972TIP3    H281332   2.802   4.435   4.743 -0.5317 -1.6804 -1.1813
19973TIP3   OH281333   4.882   1.199  16.063 -0.8959  0.1938 -0.4480
19973TIP3    H181334   4.858   1.236  15.978  0.0498 -1.7048 -1.6122
19973TIP3    H281335   4.839   1.113  16.064  2.7341 -1.8336 -1.1169
19974TIP3   OH281336   0.132   4.221  12.432 -0.2987 -0.1310  0.0135
19974TIP3    H181337   0.055   4.271  12.460 -0.1659 -1.0093  2.1320
19974TIP3    H281338   0.184   4.283  12.381 -1.2566  1.1938  0.5913
19975TIP3   OH281339   1.862   2.109   3.462  0.3728  0.6116  0.2576
19975TIP3    H181340   1.803   2.137   3.392  0.0094  1.3631  0.8452
19975TIP3    H281341   1.849   2.173   3.532  0.2510 -0.4697  1.2738
19976TIP3   OH281342   0.687   0.927  14.983  0.1862  0.3909 -0.5041
19976TIP3    H181343   0.642   0.949  15.064 -0.1143 -0.2036 -0.5115
19976TIP3    H281344   0.694   1.011  14.936  0.3263  0.7291  0.1076
19977TIP3   OH281345   2.115   0.405  15.050 -0.1710  0.4691  0.3659
19977TIP3    H181346   2.154   0.409  15.137  0.7226  2.4737 -0.0823
19977TIP3    H281347   2.037   0.460  15.056 -0.0385  0.7181 -0.1120
19978TIP3   OH281348   4.312   0.709   5.355 -0.3098  0.2801  0.5868
19978TIP3    H181349   4.262   0.747   5.427 -1.2864 -0.2383  0.2086
19978TIP3    H281350   4.367   0.643   5.396 -0.3973  0.4235  0.9398
19979TIP3   OH281351   2.010   4.243  16.659  0.3992  0.4628 -0.4186
19979TIP3    H181352   2.077   4.191  16.615 -1.0253 -1.7119 -0.1531
19979TIP3    H281353   2.054   4.326  16.680  3.0979 -0.9742  0.0717
19980TIP3   OH281354   0.041   6.075   5.860 -0.4459 -0.0015 -0.1129
19980TIP3    H181355   0.053   6.024   5.779 -0.4485 -1.9023  1.0308
19980TIP3    H281356   0.130   6.091   5.892 -0.4412  0.8308 -0.5129
19981TIP3   OH281357   5.851   2.165   4.790 -0.2842 -0.0785  0.3520
19981TIP3    H181358   5.930   2.204   4.753  1.0392 -0.8835  2.1816
19981TIP3    H281359   5.812   2.234   4.844 -0.2019 -0.0306  0.3494
19982LIG     O181360   3.679   3.530  16.774 -0.0090 -0.9950 -0.0886
19982LIG     O281361   3.766   3.314  16.375 -0.1865  0.3508  0.4610
19982LIG     N181362   3.558   3.282  16.476 -0.9929 -0.1306 -0.1387
19982LIG     N281363   3.409   3.401  16.773  0.2453  0.2858 -0.1584
19982LIG     N381364   3.722   3.432  16.570  0.2228  0.8402  0.6190
19982LIG     N481365   3.354   3.262  16.602  0.1037 -0.5233  0.1799
19982LIG     C181366   3.519   3.401  16.689 -0.2357  0.4032 -0.9743
19982LIG     C281367   3.480   3.312  16.585 -0.1875  0.4538  0.5640
19982LIG     C381368   3.640   3.459  16.684  0.7104  0.5852 -0.1391
19982LIG     C481369   3.686   3.341  16.465 -0.5499  0.1991  0.3247
19982LIG     C581370   3.312   3.316  16.713 -0.6787  0.4400 -1.0127
19982LIG     C681371   3.518   3.182  16.377  0.4807 -0.5868  0.2078
19982LIG     C781372   3.395   3.477  16.895  0.4024  0.7489 -1.0377
19982LIG     C881373   3.853   3.495  16.566 -0.2328  0.0100 -0.3043
19982LIG     H181374   3.220   3.285  16.763 -0.0285  0.9352  0.5470
19982LIG     H281375   3.599   3.138  16.315 -0.5391 -1.1988 -0.7367
19982LIG     H381376   3.441   3.225  16.309  0.5206 -1.3632 -0.3435
19982LIG     H481377   3.477   3.100  16.440  1.9223  0.1810  2.2213
19982LIG     H581378   3.449   3.421  16.974 -1.7655 -0.1029 -0.0743
19982LIG     H681379   3.292   3.513  16.918  1.3614  2.6765  0.4597
19982LIG     H781380   3.461   3.565  16.882  3.0881 -0.8337  0.8431
19982LIG     H881381   3.889   3.524  16.667 -1.6101  2.0000 -0.3327
19982LIG     H981382   3.845   3.588  16.507  0.0344  0.7295  0.7728
19982LIG    H1081383   3.932   3.430  16.523  0.2131  0.1185  0.3324
   6.75769   6.75769  17.39573
